<event>
 5    0  0.5619558E-005  0.2640229E+03  0.7546771E-02  0.1104750E+00
         21   -1    0    0  502  501  0.00000000000E+00  0.00000000000E+00  0.29997959030E+03  0.29997959030E+03  0.00000000000E+00 0. -1.
         21   -1    0    0  501  502 -0.00000000000E+00 -0.00000000000E+00 -0.23237612726E+03  0.23237612726E+03  0.00000000000E+00 0. -1.
         25    1    1    2    0    0 -0.83691111104E+02 -0.11432485792E+03 -0.49510810826E+02  0.19532203052E+03  0.12500000000E+03 0.  0.
         25    1    1    2    0    0  0.95550966610E+02  0.30105633685E+02  0.88989127427E+02  0.18324955989E+03  0.12500000000E+03 0.  0.
         25    1    1    2    0    0 -0.11859855507E+02  0.84219224235E+02  0.28125146441E+02  0.15378412716E+03  0.12500000000E+03 0.  0.
</event>
<event>
 5    0  0.5619558E-005  0.2209696E+03  0.7546771E-02  0.1133162E+00
         21   -1    0    0  502  501  0.00000000000E+00  0.00000000000E+00  0.74779594159E+02  0.74779594159E+02  0.00000000000E+00 0.  1.
         21   -1    0    0  501  502 -0.00000000000E+00 -0.00000000000E+00 -0.65295317387E+03  0.65295317387E+03  0.00000000000E+00 0.  1.
         25    1    1    2    0    0 -0.55382136831E+02  0.42015980773E+02 -0.81386850952E+02  0.16456410067E+03  0.12500000000E+03 0.  0.
         25    1    1    2    0    0  0.45398865610E+02 -0.88643651485E+01 -0.28845475846E+03  0.31775899932E+03  0.12500000000E+03 0.  0.
         25    1    1    2    0    0  0.99832712208E+01 -0.33151615625E+02 -0.20833197030E+03  0.24540966805E+03  0.12500000000E+03 0.  0.
</event>
<event>
 5    0  0.5619558E-005  0.2314434E+03  0.7546771E-02  0.1125628E+00
         21   -1    0    0  502  501  0.00000000000E+00  0.00000000000E+00  0.14718819501E+03  0.14718819501E+03  0.00000000000E+00 0.  1.
         21   -1    0    0  501  502 -0.00000000000E+00 -0.00000000000E+00 -0.36392898771E+03  0.36392898771E+03  0.00000000000E+00 0.  1.
         25    1    1    2    0    0 -0.10293061821E+03 -0.58070316511E+02 -0.11830841805E+03  0.20877920301E+03  0.12500000000E+03 0.  0.
         25    1    1    2    0    0  0.21116404536E+02  0.81914302481E+01 -0.29514441031E+02  0.13041895683E+03  0.12500000000E+03 0.  0.
         25    1    1    2    0    0  0.81814213678E+02  0.49878886263E+02 -0.68917933613E+02  0.17191902288E+03  0.12500000000E+03 0.  0.
</event>
<event>
 5    0  0.6486229E-005  0.3860386E+03  0.7546771E-02  0.1048724E+00
         21   -1    0    0  502  501  0.00000000000E+00  0.00000000000E+00  0.31119601364E+03  0.31119601364E+03  0.00000000000E+00 0. -1.
         21   -1    0    0  501  502 -0.00000000000E+00 -0.00000000000E+00 -0.47888083001E+03  0.47888083001E+03  0.00000000000E+00 0. -1.
         25    1    1    2    0    0  0.15336451937E+03 -0.73115546285E+02 -0.92675363764E+01  0.21113371625E+03  0.12500000000E+03 0.  0.
         25    1    1    2    0    0 -0.10122132606E+03 -0.29986009971E+02  0.15302296138E+03  0.22402219612E+03  0.12500000000E+03 0.  0.
         25    1    1    2    0    0 -0.52143193304E+02  0.10310155626E+03 -0.31144024137E+03  0.35492093128E+03  0.12500000000E+03 0.  0.
</event>
<event>
 5    0  0.5619558E-005  0.3227285E+03  0.7546771E-02  0.1074400E+00
         21   -1    0    0  502  501  0.00000000000E+00  0.00000000000E+00  0.55967679212E+03  0.55967679212E+03  0.00000000000E+00 0.  1.
         21   -1    0    0  501  502 -0.00000000000E+00 -0.00000000000E+00 -0.18609616262E+03  0.18609616262E+03  0.00000000000E+00 0.  1.
         25    1    1    2    0    0  0.28723158541E+02 -0.14690777085E+03 -0.80546688960E+01  0.19518399183E+03  0.12500000000E+03 0.  0.
         25    1    1    2    0    0 -0.10511851066E+03  0.11298391393E+03  0.34134215002E+03  0.39491103994E+03  0.12500000000E+03 0.  0.
         25    1    1    2    0    0  0.76395352122E+02  0.33923856929E+02  0.40293148378E+02  0.15567792297E+03  0.12500000000E+03 0.  0.
</event>
<event>
 5    0  0.5727195E-005  0.3324078E+03  0.7546771E-02  0.1070076E+00
         21   -1    0    0  502  501  0.00000000000E+00  0.00000000000E+00  0.17278989078E+03  0.17278989078E+03  0.00000000000E+00 0. -1.
         21   -1    0    0  501  502 -0.00000000000E+00 -0.00000000000E+00 -0.63947584999E+03  0.63947584999E+03  0.00000000000E+00 0. -1.
         25    1    1    2    0    0  0.21648214044E+03  0.67431367041E+02 -0.81889095743E+02  0.27155539102E+03  0.12500000000E+03 0.  0.
         25    1    1    2    0    0 -0.10443672393E+03 -0.62496786277E+02 -0.78321644595E+02  0.19123848361E+03  0.12500000000E+03 0.  0.
         25    1    1    2    0    0 -0.11204541651E+03 -0.49345807640E+01 -0.30647521887E+03  0.34947186615E+03  0.12500000000E+03 0.  0.
</event>
<event>
 5    0  0.5619558E-005  0.3218106E+03  0.7546771E-02  0.1074819E+00
         21   -1    0    0  502  501  0.00000000000E+00  0.00000000000E+00  0.92958634180E+02  0.92958634180E+02  0.00000000000E+00 0. -1.
         21   -1    0    0  501  502 -0.00000000000E+00 -0.00000000000E+00 -0.11140657853E+04  0.11140657853E+04  0.00000000000E+00 0. -1.
         25    1    1    2    0    0 -0.89079362516E+02  0.12498469147E+03 -0.43193721044E+03  0.47513267589E+03  0.12500000000E+03 0.  0.
         25    1    1    2    0    0 -0.89255961284E+02 -0.48942697010E+02 -0.40763071773E+03  0.43834896630E+03  0.12500000000E+03 0.  0.
         25    1    1    2    0    0  0.17833532380E+03 -0.76041994459E+02 -0.18153922294E+03  0.29354277730E+03  0.12500000000E+03 0.  0.
</event>
<event>
 5    0  0.5619558E-005  0.2858664E+03  0.7546771E-02  0.1092527E+00
         21   -1    0    0  502  501  0.00000000000E+00  0.00000000000E+00  0.90580548806E+02  0.90580548806E+02  0.00000000000E+00 0.  1.
         21   -1    0    0  501  502 -0.00000000000E+00 -0.00000000000E+00 -0.90217604811E+03  0.90217604811E+03  0.00000000000E+00 0.  1.
         25    1    1    2    0    0 -0.14304414269E+02 -0.93997121664E+01 -0.44654963034E+03  0.46403075675E+03  0.12500000000E+03 0.  0.
         25    1    1    2    0    0 -0.16775203261E+02 -0.71479944549E+02 -0.13386278063E+02  0.14558496611E+03  0.12500000000E+03 0.  0.
         25    1    1    2    0    0  0.31079617530E+02  0.80879656716E+02 -0.35165959090E+03  0.38314087405E+03  0.12500000000E+03 0.  0.
</event>
<event>
 5    0  0.5619558E-005  0.2847402E+03  0.7546771E-02  0.1093128E+00
         21   -1    0    0  502  501  0.00000000000E+00  0.00000000000E+00  0.85152965958E+02  0.85152965958E+02  0.00000000000E+00 0.  1.
         21   -1    0    0  501  502 -0.00000000000E+00 -0.00000000000E+00 -0.95213371279E+03  0.95213371279E+03  0.00000000000E+00 0.  1.
         25    1    1    2    0    0 -0.86804835645E+02  0.13545583368E+03 -0.18040339082E+03  0.27212817896E+03  0.12500000000E+03 0.  0.
         25    1    1    2    0    0  0.12089715407E+01 -0.45916998768E+01 -0.37020543501E+03  0.39076797391E+03  0.12500000000E+03 0.  0.
         25    1    1    2    0    0  0.85595864104E+02 -0.13086413380E+03 -0.31637192100E+03  0.37439052588E+03  0.12500000000E+03 0.  0.
</event>
<event>
 5    0  0.6232073E-005  0.4186896E+03  0.7546771E-02  0.1037494E+00
         21   -1    0    0  502  501  0.00000000000E+00  0.00000000000E+00  0.29864737623E+03  0.29864737623E+03  0.00000000000E+00 0. -1.
         21   -1    0    0  501  502 -0.00000000000E+00 -0.00000000000E+00 -0.58698320373E+03  0.58698320373E+03  0.00000000000E+00 0. -1.
         25    1    1    2    0    0 -0.71398271474E+02 -0.64627176342E+02 -0.32553121089E+03  0.36175952559E+03  0.12500000000E+03 0.  0.
         25    1    1    2    0    0 -0.15140201171E+03 -0.15217825538E+02  0.13516398532E+03  0.23884818252E+03  0.12500000000E+03 0.  0.
         25    1    1    2    0    0  0.22280028318E+03  0.79845001881E+02 -0.97968601932E+02  0.28502287185E+03  0.12500000000E+03 0.  0.
</event>
<event>
 5    0  0.5619558E-005  0.2539768E+03  0.7546771E-02  0.1110817E+00
         21   -1    0    0  502  501  0.00000000000E+00  0.00000000000E+00  0.14092918457E+03  0.14092918457E+03  0.00000000000E+00 0.  1.
         21   -1    0    0  501  502 -0.00000000000E+00 -0.00000000000E+00 -0.45770662502E+03  0.45770662502E+03  0.00000000000E+00 0.  1.
         25    1    1    2    0    0 -0.20447106124E+02  0.11829476429E+03 -0.50513227752E+02  0.18052235758E+03  0.12500000000E+03 0.  0.
         25    1    1    2    0    0 -0.32512612537E+02  0.17502303420E+02 -0.10581700646E+03  0.16788579289E+03  0.12500000000E+03 0.  0.
         25    1    1    2    0    0  0.52959718661E+02 -0.13579706771E+03 -0.16044720624E+03  0.25022765912E+03  0.12500000000E+03 0.  0.
</event>
<event>
 5    0  0.5619558E-005  0.3105098E+03  0.7546771E-02  0.1080102E+00
         21   -1    0    0  502  501  0.00000000000E+00  0.00000000000E+00  0.34468696558E+03  0.34468696558E+03  0.00000000000E+00 0.  1.
         21   -1    0    0  501  502 -0.00000000000E+00 -0.00000000000E+00 -0.27972141072E+03  0.27972141072E+03  0.00000000000E+00 0.  1.
         25    1    1    2    0    0  0.93530460221E+02 -0.17957991927E+03  0.29579319324E+02  0.23978496726E+03  0.12500000000E+03 0.  0.
         25    1    1    2    0    0 -0.61665130166E+02  0.12608604572E+03 -0.79223893821E+02  0.20396495914E+03  0.12500000000E+03 0.  0.
         25    1    1    2    0    0 -0.31865330054E+02  0.53493873546E+02  0.11461012936E+03  0.18065844989E+03  0.12500000000E+03 0.  0.
</event>
<event>
 5    0  0.5619558E-005  0.2779054E+03  0.7546771E-02  0.1096839E+00
         21   -1    0    0  502  501  0.00000000000E+00  0.00000000000E+00  0.12730659021E+03  0.12730659021E+03  0.00000000000E+00 0.  1.
         21   -1    0    0  501  502 -0.00000000000E+00 -0.00000000000E+00 -0.60665667094E+03  0.60665667094E+03  0.00000000000E+00 0.  1.
         25    1    1    2    0    0  0.59680491537E+02  0.30300524666E+01  0.22800794748E+02  0.14041302835E+03  0.12500000000E+03 0.  0.
         25    1    1    2    0    0 -0.42509933878E+02  0.46395495532E+02 -0.10805101331E+03  0.17680401003E+03  0.12500000000E+03 0.  0.
         25    1    1    2    0    0 -0.17170557659E+02 -0.49425547999E+02 -0.39409986216E+03  0.41674622278E+03  0.12500000000E+03 0.  0.
</event>
<event>
 5    0  0.5619558E-005  0.2323150E+03  0.7546771E-02  0.1125021E+00
         21   -1    0    0  502  501  0.00000000000E+00  0.00000000000E+00  0.12154390815E+03  0.12154390815E+03  0.00000000000E+00 0. -1.
         21   -1    0    0  501  502 -0.00000000000E+00 -0.00000000000E+00 -0.44403902799E+03  0.44403902799E+03  0.00000000000E+00 0. -1.
         25    1    1    2    0    0  0.45958739150E+02  0.99168898399E+02 -0.59258700822E+02  0.17630448020E+03  0.12500000000E+03 0.  0.
         25    1    1    2    0    0 -0.85238746640E+01 -0.15902536970E+02 -0.15721703950E+03  0.20166245221E+03  0.12500000000E+03 0.  0.
         25    1    1    2    0    0 -0.37434864486E+02 -0.83266361429E+02 -0.10601937952E+03  0.18761600374E+03  0.12500000000E+03 0.  0.
</event>
<event>
 5    0  0.5619558E-005  0.3625976E+03  0.7546771E-02  0.1057560E+00
         21   -1    0    0  502  501  0.00000000000E+00  0.00000000000E+00  0.21559553154E+03  0.21559553154E+03  0.00000000000E+00 0.  1.
         21   -1    0    0  501  502 -0.00000000000E+00 -0.00000000000E+00 -0.60983186356E+03  0.60983186356E+03  0.00000000000E+00 0.  1.
         25    1    1    2    0    0 -0.55941623426E+02  0.18338767338E+03  0.32593283338E+02  0.23118785889E+03  0.12500000000E+03 0.  0.
         25    1    1    2    0    0  0.14359592876E+03 -0.42082838498E+02 -0.27316915157E+03  0.33561457272E+03  0.12500000000E+03 0.  0.
         25    1    1    2    0    0 -0.87654305337E+02 -0.14130483488E+03 -0.15366046380E+03  0.25862496349E+03  0.12500000000E+03 0.  0.
</event>
<event>
 5    0  0.5619558E-005  0.4238705E+03  0.7546771E-02  0.1035814E+00
         21   -1    0    0  502  501  0.00000000000E+00  0.00000000000E+00  0.13899406980E+04  0.13899406980E+04  0.00000000000E+00 0.  1.
         21   -1    0    0  501  502 -0.00000000000E+00 -0.00000000000E+00 -0.12926180143E+03  0.12926180143E+03  0.00000000000E+00 0.  1.
         25    1    1    2    0    0 -0.13705845375E+03  0.30854124224E+03  0.31595400605E+03  0.47899337349E+03  0.12500000000E+03 0.  0.
         25    1    1    2    0    0  0.12258704583E+03 -0.20940623551E+03  0.54361813868E+03  0.60829617455E+03  0.12500000000E+03 0.  0.
         25    1    1    2    0    0  0.14471407922E+02 -0.99135006726E+02  0.40110675186E+03  0.43191295140E+03  0.12500000000E+03 0.  0.
</event>
<event>
 5    0  0.5619558E-005  0.3952378E+03  0.7546771E-02  0.1045441E+00
         21   -1    0    0  502  501  0.00000000000E+00  0.00000000000E+00  0.42012517014E+03  0.42012517014E+03  0.00000000000E+00 0.  1.
         21   -1    0    0  501  502 -0.00000000000E+00 -0.00000000000E+00 -0.37182469211E+03  0.37182469211E+03  0.00000000000E+00 0.  1.
         25    1    1    2    0    0  0.30052363115E+02  0.24268221594E+03  0.70524454944E+02  0.28354276786E+03  0.12500000000E+03 0.  0.
         25    1    1    2    0    0  0.37410297001E+02 -0.28137577295E+03 -0.11902939284E+03  0.33221205922E+03  0.12500000000E+03 0.  0.
         25    1    1    2    0    0 -0.67462660116E+02  0.38693557014E+02  0.96805415934E+02  0.17619503517E+03  0.12500000000E+03 0.  0.
</event>
<event>
 5    0  0.5619558E-005  0.3813744E+03  0.7546771E-02  0.1050427E+00
         21   -1    0    0  502  501  0.00000000000E+00  0.00000000000E+00  0.12520292453E+04  0.12520292453E+04  0.00000000000E+00 0. -1.
         21   -1    0    0  501  502 -0.00000000000E+00 -0.00000000000E+00 -0.11616857267E+03  0.11616857267E+03  0.00000000000E+00 0. -1.
         25    1    1    2    0    0  0.10050041712E+03 -0.76890394488E+02  0.71954376370E+03  0.74120219541E+03  0.12500000000E+03 0.  0.
         25    1    1    2    0    0 -0.78350824325E+02  0.18170320891E+03  0.39751522529E+03  0.46130062013E+03  0.12500000000E+03 0.  0.
         25    1    1    2    0    0 -0.22149592793E+02 -0.10481281442E+03  0.18801683661E+02  0.16569500245E+03  0.12500000000E+03 0.  0.
</event>
<event>
 5    0  0.5619558E-005  0.3657083E+03  0.7546771E-02  0.1056346E+00
         21   -1    0    0  502  501  0.00000000000E+00  0.00000000000E+00  0.54806518267E+03  0.54806518267E+03  0.00000000000E+00 0.  1.
         21   -1    0    0  501  502 -0.00000000000E+00 -0.00000000000E+00 -0.24402677332E+03  0.24402677332E+03  0.00000000000E+00 0.  1.
         25    1    1    2    0    0  0.15369240733E+03 -0.11208405988E+02  0.18835836166E+03  0.27358884634E+03  0.12500000000E+03 0.  0.
         25    1    1    2    0    0 -0.69871803284E+02 -0.15954787896E+03 -0.69182457853E+02  0.22527495877E+03  0.12500000000E+03 0.  0.
         25    1    1    2    0    0 -0.83820604043E+02  0.17075628495E+03  0.18486250554E+03  0.29322815088E+03  0.12500000000E+03 0.  0.
</event>
<event>
 5    0  0.5619558E-005  0.2391492E+03  0.7546771E-02  0.1120361E+00
         21   -1    0    0  502  501  0.00000000000E+00  0.00000000000E+00  0.16245505081E+03  0.16245505081E+03  0.00000000000E+00 0.  1.
         21   -1    0    0  501  502 -0.00000000000E+00 -0.00000000000E+00 -0.35205037300E+03  0.35205037300E+03  0.00000000000E+00 0.  1.
         25    1    1    2    0    0 -0.74478945251E+02  0.56102523292E+02 -0.53285848724E+02  0.16479984247E+03  0.12500000000E+03 0.  0.
         25    1    1    2    0    0  0.82446204081E+02  0.31249812585E+02 -0.13163174355E+02  0.15353239565E+03  0.12500000000E+03 0.  0.
         25    1    1    2    0    0 -0.79672588296E+01 -0.87352335877E+02 -0.12314629912E+03  0.19617318569E+03  0.12500000000E+03 0.  0.
</event>
<event>
 5    0  0.5619558E-005  0.2670458E+03  0.7546771E-02  0.1102982E+00
         21   -1    0    0  502  501  0.00000000000E+00  0.00000000000E+00  0.65021115688E+02  0.65021115688E+02  0.00000000000E+00 0. -1.
         21   -1    0    0  501  502 -0.00000000000E+00 -0.00000000000E+00 -0.10967742538E+04  0.10967742538E+04  0.00000000000E+00 0. -1.
         25    1    1    2    0    0  0.20415943687E+02  0.24098991103E+02 -0.55899710342E+03  0.57367267127E+03  0.12500000000E+03 0.  0.
         25    1    1    2    0    0 -0.11428164028E+03  0.24972899352E+02 -0.15652174082E+03  0.23196550251E+03  0.12500000000E+03 0.  0.
         25    1    1    2    0    0  0.93865696588E+02 -0.49071890455E+02 -0.31623429383E+03  0.35615719566E+03  0.12500000000E+03 0.  0.
</event>
<event>
 5    0  0.5619558E-005  0.3170886E+03  0.7546771E-02  0.1076997E+00
         21   -1    0    0  502  501  0.00000000000E+00  0.00000000000E+00  0.28748858436E+04  0.28748858436E+04  0.00000000000E+00 0. -1.
         21   -1    0    0  501  502 -0.00000000000E+00 -0.00000000000E+00 -0.34973628249E+02  0.34973628249E+02  0.00000000000E+00 0. -1.
         25    1    1    2    0    0  0.10397054486E+03 -0.16631791903E+03  0.17005482895E+04  0.17163802054E+04  0.12500000000E+03 0.  0.
         25    1    1    2    0    0 -0.63274688591E+01  0.16205124042E+02  0.28587884370E+03  0.31249696987E+03  0.12500000000E+03 0.  0.
         25    1    1    2    0    0 -0.97643076004E+02  0.15011279499E+03  0.85348508219E+03  0.88098229666E+03  0.12500000000E+03 0.  0.
</event>
<event>
 5    0  0.5619558E-005  0.3316298E+03  0.7546771E-02  0.1070418E+00
         21   -1    0    0  502  501  0.00000000000E+00  0.00000000000E+00  0.11871508968E+03  0.11871508968E+03  0.00000000000E+00 0. -1.
         21   -1    0    0  501  502 -0.00000000000E+00 -0.00000000000E+00 -0.92640548575E+03  0.92640548575E+03  0.00000000000E+00 0. -1.
         25    1    1    2    0    0 -0.21150870294E+02 -0.19063485834E+03 -0.32688723643E+03  0.39908554705E+03  0.12500000000E+03 0.  0.
         25    1    1    2    0    0  0.11013217581E+03  0.15673177704E+03 -0.13351071117E+03  0.26484723159E+03  0.12500000000E+03 0.  0.
         25    1    1    2    0    0 -0.88981305518E+02  0.33903081297E+02 -0.34729244847E+03  0.38118779679E+03  0.12500000000E+03 0.  0.
</event>
<event>
 5    0  0.5619558E-005  0.2509496E+03  0.7546771E-02  0.1112706E+00
         21   -1    0    0  502  501  0.00000000000E+00  0.00000000000E+00  0.98784472429E+02  0.98784472429E+02  0.00000000000E+00 0. -1.
         21   -1    0    0  501  502 -0.00000000000E+00 -0.00000000000E+00 -0.63750628664E+03  0.63750628664E+03  0.00000000000E+00 0. -1.
         25    1    1    2    0    0  0.92006300045E+02 -0.99938711290E+02 -0.23389069255E+03  0.29796436251E+03  0.12500000000E+03 0.  0.
         25    1    1    2    0    0 -0.78208098828E+02  0.43565822742E+02 -0.76754320007E+02  0.17184502691E+03  0.12500000000E+03 0.  0.
         25    1    1    2    0    0 -0.13798201217E+02  0.56372888548E+02 -0.22807680165E+03  0.26648136965E+03  0.12500000000E+03 0.  0.
</event>
<event>
 5    0  0.5619558E-005  0.2575479E+03  0.7546771E-02  0.1108625E+00
         21   -1    0    0  502  501  0.00000000000E+00  0.00000000000E+00  0.63963018066E+02  0.63963018066E+02  0.00000000000E+00 0. -1.
         21   -1    0    0  501  502 -0.00000000000E+00 -0.00000000000E+00 -0.10370200549E+04  0.10370200549E+04  0.00000000000E+00 0. -1.
         25    1    1    2    0    0 -0.23111343199E+02  0.53282084170E+02 -0.41985154511E+03  0.44189753858E+03  0.12500000000E+03 0.  0.
         25    1    1    2    0    0 -0.94599308190E+01 -0.12932216854E+03 -0.42593551659E+03  0.46244975712E+03  0.12500000000E+03 0.  0.
         25    1    1    2    0    0  0.32571274018E+02  0.76040084374E+02 -0.12726997510E+03  0.19663577722E+03  0.12500000000E+03 0.  0.
</event>
<event>
 5    0  0.5619558E-005  0.2833389E+03  0.7546771E-02  0.1093879E+00
         21   -1    0    0  502  501  0.00000000000E+00  0.00000000000E+00  0.25530600178E+03  0.25530600178E+03  0.00000000000E+00 0. -1.
         21   -1    0    0  501  502 -0.00000000000E+00 -0.00000000000E+00 -0.31444989809E+03  0.31444989809E+03  0.00000000000E+00 0. -1.
         25    1    1    2    0    0 -0.20030018862E+02 -0.63845476857E+02  0.45723086669E+02  0.14897331045E+03  0.12500000000E+03 0.  0.
         25    1    1    2    0    0  0.84928306698E+02  0.12646642273E+02  0.88930268670E+02  0.17580201229E+03  0.12500000000E+03 0.  0.
         25    1    1    2    0    0 -0.64898287836E+02  0.51198834584E+02 -0.19379725165E+03  0.24498057713E+03  0.12500000000E+03 0.  0.
</event>
<event>
 5    0  0.5619558E-005  0.3677628E+03  0.7546771E-02  0.1055552E+00
         21   -1    0    0  502  501  0.00000000000E+00  0.00000000000E+00  0.32960416173E+03  0.32960416173E+03  0.00000000000E+00 0. -1.
         21   -1    0    0  501  502 -0.00000000000E+00 -0.00000000000E+00 -0.41033912049E+03  0.41033912049E+03  0.00000000000E+00 0. -1.
         25    1    1    2    0    0 -0.30985215744E+02  0.13906840438E+03  0.13424931258E+03  0.23226705022E+03  0.12500000000E+03 0.  0.
         25    1    1    2    0    0  0.45013043919E+02  0.11129019205E+03 -0.12396474646E+03  0.21308200143E+03  0.12500000000E+03 0.  0.
         25    1    1    2    0    0 -0.14027828174E+02 -0.25035859643E+03 -0.91019524886E+02  0.29459423057E+03  0.12500000000E+03 0.  0.
</event>
<event>
 5    0  0.7001323E-005  0.3669369E+03  0.7546771E-02  0.1055870E+00
         21   -1    0    0  502  501  0.00000000000E+00  0.00000000000E+00  0.11843711886E+03  0.11843711886E+03  0.00000000000E+00 0. -1.
         21   -1    0    0  501  502 -0.00000000000E+00 -0.00000000000E+00 -0.11368282787E+04  0.11368282787E+04  0.00000000000E+00 0. -1.
         25    1    1    2    0    0 -0.92523789252E+02 -0.11259183485E+03 -0.81239262830E+02  0.20847635520E+03  0.12500000000E+03 0.  0.
         25    1    1    2    0    0 -0.85787667143E+02 -0.76904696455E+02 -0.44303271081E+03  0.47452801711E+03  0.12500000000E+03 0.  0.
         25    1    1    2    0    0  0.17831145639E+03  0.18949653131E+03 -0.49411918624E+03  0.57226102530E+03  0.12500000000E+03 0.  0.
</event>
<event>
 5    0  0.5690848E-005  0.3499209E+03  0.7546771E-02  0.1062648E+00
         21   -1    0    0  502  501  0.00000000000E+00  0.00000000000E+00  0.38801734704E+03  0.38801734704E+03  0.00000000000E+00 0.  1.
         21   -1    0    0  501  502 -0.00000000000E+00 -0.00000000000E+00 -0.31556485449E+03  0.31556485449E+03  0.00000000000E+00 0.  1.
         25    1    1    2    0    0  0.17982386586E+02  0.17742476024E+03  0.50660369724E+02  0.22359424150E+03  0.12500000000E+03 0.  0.
         25    1    1    2    0    0  0.48483313987E+02 -0.21323238770E+03  0.14349938508E+03  0.28988921404E+03  0.12500000000E+03 0.  0.
         25    1    1    2    0    0 -0.66465700573E+02  0.35807627466E+02 -0.12170726225E+03  0.19009874598E+03  0.12500000000E+03 0.  0.
</event>
<event>
 5    0  0.5619558E-005  0.4023201E+03  0.7546771E-02  0.1042979E+00
         21   -1    0    0  502  501  0.00000000000E+00  0.00000000000E+00  0.22618883510E+04  0.22618883510E+04  0.00000000000E+00 0. -1.
         21   -1    0    0  501  502 -0.00000000000E+00 -0.00000000000E+00 -0.71560338886E+02  0.71560338886E+02  0.00000000000E+00 0. -1.
         25    1    1    2    0    0  0.91414766312E+02 -0.53169363894E+02  0.30663837410E+03  0.34761434554E+03  0.12500000000E+03 0.  0.
         25    1    1    2    0    0 -0.60885919298E+02 -0.18244162473E+03  0.15006817344E+04  0.15181115603E+04  0.12500000000E+03 0.  0.
         25    1    1    2    0    0 -0.30528847014E+02  0.23561098863E+03  0.38300790358E+03  0.46772278400E+03  0.12500000000E+03 0.  0.
</event>
<event>
 5    0  0.5619558E-005  0.2945371E+03  0.7546771E-02  0.1088004E+00
         21   -1    0    0  502  501  0.00000000000E+00  0.00000000000E+00  0.19317283090E+03  0.19317283090E+03  0.00000000000E+00 0. -1.
         21   -1    0    0  501  502 -0.00000000000E+00 -0.00000000000E+00 -0.44909054255E+03  0.44909054255E+03  0.00000000000E+00 0. -1.
         25    1    1    2    0    0  0.28127892246E+02 -0.14402911546E+02 -0.11993539987E+03  0.17609123296E+03  0.12500000000E+03 0.  0.
         25    1    1    2    0    0  0.97642232647E+02  0.45217311131E+02  0.81420360306E+02  0.18393717921E+03  0.12500000000E+03 0.  0.
         25    1    1    2    0    0 -0.12577012489E+03 -0.30814399585E+02 -0.21740267208E+03  0.28223496128E+03  0.12500000000E+03 0.  0.
</event>
<event>
 5    0  0.5619558E-005  0.4659855E+03  0.7546771E-02  0.1023059E+00
         21   -1    0    0  502  501  0.00000000000E+00  0.00000000000E+00  0.35561982825E+03  0.35561982825E+03  0.00000000000E+00 0. -1.
         21   -1    0    0  501  502 -0.00000000000E+00 -0.00000000000E+00 -0.61060297344E+03  0.61060297344E+03  0.00000000000E+00 0. -1.
         25    1    1    2    0    0 -0.10409154389E+03  0.36160079154E+03  0.12086249857E+01  0.39650553934E+03  0.12500000000E+03 0.  0.
         25    1    1    2    0    0 -0.36762258908E+02 -0.25613788664E+03 -0.10398633884E+03  0.30560798307E+03  0.12500000000E+03 0.  0.
         25    1    1    2    0    0  0.14085380280E+03 -0.10546290490E+03 -0.15220543133E+03  0.26410927928E+03  0.12500000000E+03 0.  0.
</event>
<event>
 5    0  0.5619558E-005  0.3002812E+03  0.7546771E-02  0.1085100E+00
         21   -1    0    0  502  501  0.00000000000E+00  0.00000000000E+00  0.19820493292E+04  0.19820493292E+04  0.00000000000E+00 0. -1.
         21   -1    0    0  501  502 -0.00000000000E+00 -0.00000000000E+00 -0.45492701632E+02  0.45492701632E+02  0.00000000000E+00 0. -1.
         25    1    1    2    0    0  0.42484597314E+02  0.90633129534E+02  0.12279045006E+04  0.12383027771E+04  0.12500000000E+03 0.  0.
         25    1    1    2    0    0 -0.66582070928E+02 -0.14764499957E+03  0.36630788253E+03  0.41956964007E+03  0.12500000000E+03 0.  0.
         25    1    1    2    0    0  0.24097473615E+02  0.57011870037E+02  0.34234424438E+03  0.36966961360E+03  0.12500000000E+03 0.  0.
</event>
<event>
 5    0  0.5619558E-005  0.3253134E+03  0.7546771E-02  0.1073230E+00
         21   -1    0    0  502  501  0.00000000000E+00  0.00000000000E+00  0.67194301731E+03  0.67194301731E+03  0.00000000000E+00 0. -1.
         21   -1    0    0  501  502 -0.00000000000E+00 -0.00000000000E+00 -0.15749665685E+03  0.15749665685E+03  0.00000000000E+00 0. -1.
         25    1    1    2    0    0 -0.70206964232E+02  0.54480604812E+02  0.21664657708E+02  0.15489193498E+03  0.12500000000E+03 0.  0.
         25    1    1    2    0    0  0.16772169001E+03  0.12548497485E+02  0.45117493295E+03  0.49746542615E+03  0.12500000000E+03 0.  0.
         25    1    1    2    0    0 -0.97514725775E+02 -0.67029102297E+02  0.41606769797E+02  0.17708231304E+03  0.12500000000E+03 0.  0.
</event>
<event>
 5    0  0.5619558E-005  0.3344048E+03  0.7546771E-02  0.1069204E+00
         21   -1    0    0  502  501  0.00000000000E+00  0.00000000000E+00  0.35632969661E+03  0.35632969661E+03  0.00000000000E+00 0. -1.
         21   -1    0    0  501  502 -0.00000000000E+00 -0.00000000000E+00 -0.31382894519E+03  0.31382894519E+03  0.00000000000E+00 0. -1.
         25    1    1    2    0    0  0.12932617903E+03 -0.11578464680E+03 -0.50688400347E+02  0.21983097813E+03  0.12500000000E+03 0.  0.
         25    1    1    2    0    0 -0.15675205291E+03  0.18115087205E+03  0.13306825899E+03  0.30119595962E+03  0.12500000000E+03 0.  0.
         25    1    1    2    0    0  0.27425873884E+02 -0.65366225255E+02 -0.39879107221E+02  0.14913170406E+03  0.12500000000E+03 0.  0.
</event>
<event>
 5    0  0.5619558E-005  0.3416927E+03  0.7546771E-02  0.1066077E+00
         21   -1    0    0  502  501  0.00000000000E+00  0.00000000000E+00  0.16181043284E+03  0.16181043284E+03  0.00000000000E+00 0.  1.
         21   -1    0    0  501  502 -0.00000000000E+00 -0.00000000000E+00 -0.72154755830E+03  0.72154755830E+03  0.00000000000E+00 0.  1.
         25    1    1    2    0    0  0.17385604820E+03  0.16688401175E+03 -0.11950315386E+03  0.29661794055E+03  0.12500000000E+03 0.  0.
         25    1    1    2    0    0 -0.14421906555E+03 -0.62638043324E+02 -0.33519040129E+03  0.39076881715E+03  0.12500000000E+03 0.  0.
         25    1    1    2    0    0 -0.29636982648E+02 -0.10424596842E+03 -0.10504357031E+03  0.19597123344E+03  0.12500000000E+03 0.  0.
</event>
<event>
 5    0  0.5619558E-005  0.4325494E+03  0.7546771E-02  0.1033058E+00
         21   -1    0    0  502  501  0.00000000000E+00  0.00000000000E+00  0.13477231601E+04  0.13477231601E+04  0.00000000000E+00 0. -1.
         21   -1    0    0  501  502 -0.00000000000E+00 -0.00000000000E+00 -0.13882599122E+03  0.13882599122E+03  0.00000000000E+00 0.  1.
         25    1    1    2    0    0 -0.18559549807E+02 -0.25740981637E+03  0.56087560680E+03  0.62992913630E+03  0.12500000000E+03 0.  0.
         25    1    1    2    0    0 -0.17982904459E+03  0.27230616340E+02  0.34557857236E+03  0.41003602454E+03  0.12500000000E+03 0.  0.
         25    1    1    2    0    0  0.19838859439E+03  0.23017920003E+03  0.30244298968E+03  0.44658399044E+03  0.12500000000E+03 0.  0.
</event>
<event>
 5    0  0.5619558E-005  0.2790600E+03  0.7546771E-02  0.1096203E+00
         21   -1    0    0  502  501  0.00000000000E+00  0.00000000000E+00  0.11921854441E+04  0.11921854441E+04  0.00000000000E+00 0.  1.
         21   -1    0    0  501  502 -0.00000000000E+00 -0.00000000000E+00 -0.65320796713E+02  0.65320796713E+02  0.00000000000E+00 0.  1.
         25    1    1    2    0    0 -0.62194859921E+02  0.16016560116E+03  0.37665716623E+03  0.43245443837E+03  0.12500000000E+03 0.  0.
         25    1    1    2    0    0  0.70519206213E+02 -0.26663234081E+02  0.45343171056E+03  0.47634987419E+03  0.12500000000E+03 0.  0.
         25    1    1    2    0    0 -0.83243462914E+01 -0.13350236708E+03  0.29677577063E+03  0.34870192828E+03  0.12500000000E+03 0.  0.
</event>
<event>
 5    0  0.5619558E-005  0.3152826E+03  0.7546771E-02  0.1077841E+00
         21   -1    0    0  502  501  0.00000000000E+00  0.00000000000E+00  0.95753322120E+03  0.95753322120E+03  0.00000000000E+00 0.  1.
         21   -1    0    0  501  502 -0.00000000000E+00 -0.00000000000E+00 -0.10381164497E+03  0.10381164497E+03  0.00000000000E+00 0.  1.
         25    1    1    2    0    0 -0.62343860634E+02  0.74957814903E+02  0.21086665831E+03  0.26380898120E+03  0.12500000000E+03 0.  0.
         25    1    1    2    0    0  0.16262027077E+03 -0.15970249815E+03  0.51118275897E+03  0.57348326344E+03  0.12500000000E+03 0.  0.
         25    1    1    2    0    0 -0.10027641014E+03  0.84744683248E+02  0.13167215896E+03  0.22405262153E+03  0.12500000000E+03 0.  0.
</event>
<event>
 5    0  0.5619558E-005  0.3317484E+03  0.7546771E-02  0.1070366E+00
         21   -1    0    0  502  501  0.00000000000E+00  0.00000000000E+00  0.13043101320E+04  0.13043101320E+04  0.00000000000E+00 0.  1.
         21   -1    0    0  501  502 -0.00000000000E+00 -0.00000000000E+00 -0.84379461890E+02  0.84379461890E+02  0.00000000000E+00 0.  1.
         25    1    1    2    0    0 -0.26578508765E+02  0.50733258820E+02  0.22864861357E+03  0.26680605160E+03  0.12500000000E+03 0.  0.
         25    1    1    2    0    0  0.21938886885E+02 -0.24936400731E+03  0.65004415453E+03  0.70770482953E+03  0.12500000000E+03 0.  0.
         25    1    1    2    0    0  0.46396218799E+01  0.19863074849E+03  0.34123790196E+03  0.41417871272E+03  0.12500000000E+03 0.  0.
</event>
<event>
 5    0  0.6626650E-005  0.3393366E+03  0.7546771E-02  0.1067079E+00
         21   -1    0    0  502  501  0.00000000000E+00  0.00000000000E+00  0.27511428807E+03  0.27511428807E+03  0.00000000000E+00 0. -1.
         21   -1    0    0  501  502 -0.00000000000E+00 -0.00000000000E+00 -0.41855095141E+03  0.41855095141E+03  0.00000000000E+00 0. -1.
         25    1    1    2    0    0  0.16535937351E+03 -0.81515554099E+02 -0.11185021578E+03  0.24924682293E+03  0.12500000000E+03 0.  0.
         25    1    1    2    0    0 -0.17073713420E+03 -0.13557378607E+02  0.10463922033E+03  0.23645155517E+03  0.12500000000E+03 0.  0.
         25    1    1    2    0    0  0.53777606863E+01  0.95072932706E+02 -0.13622566789E+03  0.20796686139E+03  0.12500000000E+03 0.  0.
</event>
<event>
 5    0  0.5619558E-005  0.3833501E+03  0.7546771E-02  0.1049702E+00
         21   -1    0    0  502  501  0.00000000000E+00  0.00000000000E+00  0.44396673525E+03  0.44396673525E+03  0.00000000000E+00 0. -1.
         21   -1    0    0  501  502 -0.00000000000E+00 -0.00000000000E+00 -0.33100978998E+03  0.33100978998E+03  0.00000000000E+00 0. -1.
         25    1    1    2    0    0 -0.62110181659E+02 -0.20391886394E+03  0.93318080289E+02  0.26414738659E+03  0.12500000000E+03 0.  0.
         25    1    1    2    0    0  0.21418882490E+03  0.81713642552E+02  0.76812619438E+02  0.27217485298E+03  0.12500000000E+03 0.  0.
         25    1    1    2    0    0 -0.15207864324E+03  0.12220522139E+03 -0.57173754457E+02  0.23865428566E+03  0.12500000000E+03 0.  0.
</event>
<event>
 5    0  0.5619558E-005  0.3743259E+03  0.7546771E-02  0.1053051E+00
         21   -1    0    0  502  501  0.00000000000E+00  0.00000000000E+00  0.24035583326E+03  0.24035583326E+03  0.00000000000E+00 0. -1.
         21   -1    0    0  501  502 -0.00000000000E+00 -0.00000000000E+00 -0.58296856630E+03  0.58296856630E+03  0.00000000000E+00 0. -1.
         25    1    1    2    0    0  0.10816220718E+03  0.22536668495E+03 -0.19817017606E+03  0.34261585548E+03  0.12500000000E+03 0.  0.
         25    1    1    2    0    0 -0.58117357732E+02 -0.69890562345E+02  0.81868879454E+02  0.17489948942E+03  0.12500000000E+03 0.  0.
         25    1    1    2    0    0 -0.50044849447E+02 -0.15547612260E+03 -0.22631143644E+03  0.30580905467E+03  0.12500000000E+03 0.  0.
</event>
<event>
 5    0  0.5619558E-005  0.2932117E+03  0.7546771E-02  0.1088684E+00
         21   -1    0    0  502  501  0.00000000000E+00  0.00000000000E+00  0.49273275862E+03  0.49273275862E+03  0.00000000000E+00 0. -1.
         21   -1    0    0  501  502 -0.00000000000E+00 -0.00000000000E+00 -0.17448217833E+03  0.17448217833E+03  0.00000000000E+00 0. -1.
         25    1    1    2    0    0 -0.20721119704E+02  0.24828704930E+02 -0.80997478284E+02  0.15241857131E+03  0.12500000000E+03 0.  0.
         25    1    1    2    0    0  0.75828272680E+02 -0.60048182482E+02  0.10874259918E+03  0.19184802327E+03  0.12500000000E+03 0.  0.
         25    1    1    2    0    0 -0.55107152976E+02  0.35219477553E+02  0.29050545939E+03  0.32294834237E+03  0.12500000000E+03 0.  0.
</event>
<event>
 5    0  0.5619558E-005  0.2796928E+03  0.7546771E-02  0.1095857E+00
         21   -1    0    0  502  501  0.00000000000E+00  0.00000000000E+00  0.42546583573E+03  0.42546583573E+03  0.00000000000E+00 0. -1.
         21   -1    0    0  501  502 -0.00000000000E+00 -0.00000000000E+00 -0.18386450988E+03  0.18386450988E+03  0.00000000000E+00 0. -1.
         25    1    1    2    0    0 -0.87991364446E+02 -0.78919794751E+01  0.20966867340E+03  0.25959721909E+03  0.12500000000E+03 0.  0.
         25    1    1    2    0    0  0.11455396358E+03 -0.65192502521E+02  0.74731349323E+02  0.19642415210E+03  0.12500000000E+03 0.  0.
         25    1    1    2    0    0 -0.26562599130E+02  0.73084481996E+02 -0.42798696871E+02  0.15330897441E+03  0.12500000000E+03 0.  0.
</event>
<event>
 5    0  0.5619558E-005  0.2740677E+03  0.7546771E-02  0.1098974E+00
         21   -1    0    0  502  501  0.00000000000E+00  0.00000000000E+00  0.27293986028E+03  0.27293986028E+03  0.00000000000E+00 0.  1.
         21   -1    0    0  501  502 -0.00000000000E+00 -0.00000000000E+00 -0.27520029263E+03  0.27520029263E+03  0.00000000000E+00 0.  1.
         25    1    1    2    0    0  0.40311217326E+01 -0.13249030395E+03 -0.50442474791E+02  0.18904860181E+03  0.12500000000E+03 0.  0.
         25    1    1    2    0    0  0.95563899641E+02  0.10462897687E+03  0.54731480632E+02  0.19672370647E+03  0.12500000000E+03 0.  0.
         25    1    1    2    0    0 -0.99595021373E+02  0.27861327082E+02 -0.65494381964E+01  0.16236784463E+03  0.12500000000E+03 0.  0.
</event>
<event>
 5    0  0.5619558E-005  0.3826584E+03  0.7546771E-02  0.1049956E+00
         21   -1    0    0  502  501  0.00000000000E+00  0.00000000000E+00  0.77463769729E+03  0.77463769729E+03  0.00000000000E+00 0.  1.
         21   -1    0    0  501  502 -0.00000000000E+00 -0.00000000000E+00 -0.18902698457E+03  0.18902698457E+03  0.00000000000E+00 0.  1.
         25    1    1    2    0    0 -0.14321244361E+03  0.97662375904E+02  0.28791229850E+02  0.21564247863E+03  0.12500000000E+03 0.  0.
         25    1    1    2    0    0  0.71273845714E+02 -0.18411501657E+02  0.56493182474E+03  0.58325972866E+03  0.12500000000E+03 0.  0.
         25    1    1    2    0    0  0.71938597897E+02 -0.79250874246E+02 -0.81123418768E+01  0.16476247457E+03  0.12500000000E+03 0.  0.
</event>
<event>
 5    0  0.6001463E-005  0.2914653E+03  0.7546771E-02  0.1089587E+00
         21   -1    0    0  502  501  0.00000000000E+00  0.00000000000E+00  0.16428710148E+03  0.16428710148E+03  0.00000000000E+00 0.  1.
         21   -1    0    0  501  502 -0.00000000000E+00 -0.00000000000E+00 -0.51709490013E+03  0.51709490013E+03  0.00000000000E+00 0.  1.
         25    1    1    2    0    0 -0.44283077192E+02 -0.99277594726E+02 -0.33879535232E+03  0.37712640121E+03  0.12500000000E+03 0.  0.
         25    1    1    2    0    0  0.74129727750E+02  0.88268130484E+02 -0.34933783914E+02  0.17358527776E+03  0.12500000000E+03 0.  0.
         25    1    1    2    0    0 -0.29846650558E+02  0.11009464242E+02  0.20921337589E+02  0.13067032264E+03  0.12500000000E+03 0.  0.
</event>
<event>
 5    0  0.5619558E-005  0.2223164E+03  0.7546771E-02  0.1132168E+00
         21   -1    0    0  502  501  0.00000000000E+00  0.00000000000E+00  0.28316281071E+03  0.28316281071E+03  0.00000000000E+00 0.  1.
         21   -1    0    0  501  502 -0.00000000000E+00 -0.00000000000E+00 -0.17454475124E+03  0.17454475124E+03  0.00000000000E+00 0.  1.
         25    1    1    2    0    0 -0.19552441052E+02 -0.89808097222E+00 -0.60554579628E+01  0.12666796387E+03  0.12500000000E+03 0.  0.
         25    1    1    2    0    0  0.85646755824E+01  0.69765554815E+02  0.12118518205E+03  0.18775365417E+03  0.12500000000E+03 0.  0.
         25    1    1    2    0    0  0.10987765470E+02 -0.68867473843E+02 -0.65116646146E+01  0.14328594390E+03  0.12500000000E+03 0.  0.
</event>
<event>
 5    0  0.5619558E-005  0.4799453E+03  0.7546771E-02  0.1019150E+00
         21   -1    0    0  502  501  0.00000000000E+00  0.00000000000E+00  0.21887008011E+04  0.21887008011E+04  0.00000000000E+00 0. -1.
         21   -1    0    0  501  502 -0.00000000000E+00 -0.00000000000E+00 -0.10524392747E+03  0.10524392747E+03  0.00000000000E+00 0. -1.
         25    1    1    2    0    0 -0.57805162436E+02 -0.25419154434E+03  0.97193765000E+03  0.10140229650E+04  0.12500000000E+03 0.  0.
         25    1    1    2    0    0  0.11968642853E+03  0.28930419844E+03  0.28636297002E+03  0.44232398873E+03  0.12500000000E+03 0.  0.
         25    1    1    2    0    0 -0.61881266094E+02 -0.35112654102E+02  0.82515625362E+03  0.83759777487E+03  0.12500000000E+03 0.  0.
</event>
<event>
 5    0  0.5619558E-005  0.4169025E+03  0.7546771E-02  0.1038079E+00
         21   -1    0    0  502  501  0.00000000000E+00  0.00000000000E+00  0.11475260121E+04  0.11475260121E+04  0.00000000000E+00 0.  1.
         21   -1    0    0  501  502 -0.00000000000E+00 -0.00000000000E+00 -0.15146293474E+03  0.15146293474E+03  0.00000000000E+00 0.  1.
         25    1    1    2    0    0 -0.19364046463E+03  0.17061174696E+03  0.19547736448E+03  0.34704667952E+03  0.12500000000E+03 0.  0.
         25    1    1    2    0    0  0.17301834401E+03 -0.18759059027E+03  0.22534721937E+03  0.36267333263E+03  0.12500000000E+03 0.  0.
         25    1    1    2    0    0  0.20622120615E+02  0.16978843305E+02  0.57523849353E+03  0.58926893471E+03  0.12500000000E+03 0.  0.
</event>
<event>
 5    0  0.5619558E-005  0.2535804E+03  0.7546771E-02  0.1111063E+00
         21   -1    0    0  502  501  0.00000000000E+00  0.00000000000E+00  0.43291557871E+03  0.43291557871E+03  0.00000000000E+00 0. -1.
         21   -1    0    0  501  502 -0.00000000000E+00 -0.00000000000E+00 -0.14853477165E+03  0.14853477165E+03  0.00000000000E+00 0. -1.
         25    1    1    2    0    0  0.12229270494E+02  0.27950844872E+02  0.61421743113E+02  0.14257782195E+03  0.12500000000E+03 0.  0.
         25    1    1    2    0    0 -0.14465773046E+03  0.12074489005E+02  0.11391004342E+03  0.22287249776E+03  0.12500000000E+03 0.  0.
         25    1    1    2    0    0  0.13242845997E+03 -0.40025333877E+02  0.10904902053E+03  0.21600003065E+03  0.12500000000E+03 0.  0.
</event>
<event>
 5    0  0.5619558E-005  0.2390158E+03  0.7546771E-02  0.1120450E+00
         21   -1    0    0  502  501  0.00000000000E+00  0.00000000000E+00  0.27171372856E+03  0.27171372856E+03  0.00000000000E+00 0. -1.
         21   -1    0    0  501  502 -0.00000000000E+00 -0.00000000000E+00 -0.21025270833E+03  0.21025270833E+03  0.00000000000E+00 0. -1.
         25    1    1    2    0    0 -0.22532901652E+02  0.11216265504E+03 -0.20260452208E+01  0.16946178832E+03  0.12500000000E+03 0.  0.
         25    1    1    2    0    0 -0.14002969024E+02 -0.95995543139E+02 -0.16070536102E+02  0.15904241439E+03  0.12500000000E+03 0.  0.
         25    1    1    2    0    0  0.36535870676E+02 -0.16167111903E+02  0.79557601558E+02  0.15346223418E+03  0.12500000000E+03 0.  0.
</event>
<event>
 5    0  0.5619558E-005  0.3459583E+03  0.7546771E-02  0.1064286E+00
         21   -1    0    0  502  501  0.00000000000E+00  0.00000000000E+00  0.97295979684E+03  0.97295979684E+03  0.00000000000E+00 0.  1.
         21   -1    0    0  501  502 -0.00000000000E+00 -0.00000000000E+00 -0.12301348640E+03  0.12301348640E+03  0.00000000000E+00 0.  1.
         25    1    1    2    0    0  0.88224597266E+02  0.11292211466E+03  0.27643982036E+03  0.33552787935E+03  0.12500000000E+03 0.  0.
         25    1    1    2    0    0 -0.12776995620E+03  0.90228264889E+02  0.89320086174E+02  0.21924730167E+03  0.12500000000E+03 0.  0.
         25    1    1    2    0    0  0.39545358938E+02 -0.20315037955E+03  0.48418640391E+03  0.54119810223E+03  0.12500000000E+03 0.  0.
</event>
<event>
 5    0  0.5619558E-005  0.3258143E+03  0.7546771E-02  0.1073004E+00
         21   -1    0    0  502  501  0.00000000000E+00  0.00000000000E+00  0.23592089123E+03  0.23592089123E+03  0.00000000000E+00 0. -1.
         21   -1    0    0  501  502 -0.00000000000E+00 -0.00000000000E+00 -0.44995999668E+03  0.44995999668E+03  0.00000000000E+00 0. -1.
         25    1    1    2    0    0 -0.12235424006E+03 -0.16342235570E+03 -0.13685899113E+03  0.27574047555E+03  0.12500000000E+03 0.  0.
         25    1    1    2    0    0  0.33895403972E+02 -0.23626454370E+02  0.45194048731E+02  0.13919270741E+03  0.12500000000E+03 0.  0.
         25    1    1    2    0    0  0.88458836086E+02  0.18704881007E+03 -0.12237416306E+03  0.27094770495E+03  0.12500000000E+03 0.  0.
</event>
<event>
 5    0  0.5619558E-005  0.4166216E+03  0.7546771E-02  0.1038171E+00
         21   -1    0    0  502  501  0.00000000000E+00  0.00000000000E+00  0.26339375171E+03  0.26339375171E+03  0.00000000000E+00 0. -1.
         21   -1    0    0  501  502 -0.00000000000E+00 -0.00000000000E+00 -0.65898886995E+03  0.65898886995E+03  0.00000000000E+00 0. -1.
         25    1    1    2    0    0 -0.22334191189E+03  0.13675503649E+03 -0.34244157811E+03  0.44885942569E+03  0.12500000000E+03 0.  0.
         25    1    1    2    0    0  0.48227691749E+02  0.31652247955E+02 -0.13036554110E+03  0.18959944451E+03  0.12500000000E+03 0.  0.
         25    1    1    2    0    0  0.17511422014E+03 -0.16840728444E+03  0.77212000965E+02  0.28392375146E+03  0.12500000000E+03 0.  0.
</event>
<event>
 5    0  0.5619558E-005  0.4037816E+03  0.7546771E-02  0.1042478E+00
         21   -1    0    0  502  501  0.00000000000E+00  0.00000000000E+00  0.16777154706E+04  0.16777154706E+04  0.00000000000E+00 0. -1.
         21   -1    0    0  501  502 -0.00000000000E+00 -0.00000000000E+00 -0.97179528191E+02  0.97179528191E+02  0.00000000000E+00 0. -1.
         25    1    1    2    0    0 -0.80741853455E+02 -0.59419338522E+02  0.86949991489E+03  0.88414082967E+03  0.12500000000E+03 0.  0.
         25    1    1    2    0    0  0.14118429044E+02 -0.19520466026E+03  0.22064716429E+03  0.32033476324E+03  0.12500000000E+03 0.  0.
         25    1    1    2    0    0  0.66623424410E+02  0.25462399878E+03  0.49038886322E+03  0.57041940588E+03  0.12500000000E+03 0.  0.
</event>
<event>
 5    0  0.5619558E-005  0.4190516E+03  0.7546771E-02  0.1037375E+00
         21   -1    0    0  502  501  0.00000000000E+00  0.00000000000E+00  0.33439480841E+03  0.33439480841E+03  0.00000000000E+00 0. -1.
         21   -1    0    0  501  502 -0.00000000000E+00 -0.00000000000E+00 -0.52514054846E+03  0.52514054846E+03  0.00000000000E+00 0. -1.
         25    1    1    2    0    0  0.49751426074E+02 -0.11747941305E+03  0.19034773672E+03  0.26102466887E+03  0.12500000000E+03 0.  0.
         25    1    1    2    0    0 -0.51044907091E+02  0.14968390609E+03 -0.58328682079E+01  0.20166773821E+03  0.12500000000E+03 0.  0.
         25    1    1    2    0    0  0.12934810172E+01 -0.32204493043E+02 -0.37526060855E+03  0.39684294979E+03  0.12500000000E+03 0.  0.
</event>
<event>
 5    0  0.5619558E-005  0.3839215E+03  0.7546771E-02  0.1049494E+00
         21   -1    0    0  502  501  0.00000000000E+00  0.00000000000E+00  0.64694435075E+03  0.64694435075E+03  0.00000000000E+00 0. -1.
         21   -1    0    0  501  502 -0.00000000000E+00 -0.00000000000E+00 -0.22783370682E+03  0.22783370682E+03  0.00000000000E+00 0. -1.
         25    1    1    2    0    0 -0.25636470910E+03  0.66279919784E+02 -0.10360499323E+02  0.29299868905E+03  0.12500000000E+03 0.  0.
         25    1    1    2    0    0  0.15742194423E+03 -0.68003706706E+02  0.33472139922E+03  0.39632005721E+03  0.12500000000E+03 0.  0.
         25    1    1    2    0    0  0.98942764868E+02  0.17237869221E+01  0.94749744038E+02  0.18545931132E+03  0.12500000000E+03 0.  0.
</event>
<event>
 5    0  0.5619558E-005  0.3474267E+03  0.7546771E-02  0.1063676E+00
         21   -1    0    0  502  501  0.00000000000E+00  0.00000000000E+00  0.73588350994E+02  0.73588350994E+02  0.00000000000E+00 0.  1.
         21   -1    0    0  501  502 -0.00000000000E+00 -0.00000000000E+00 -0.16402771119E+04  0.16402771119E+04  0.00000000000E+00 0.  1.
         25    1    1    2    0    0  0.12827915637E+03  0.45688641387E+02 -0.53474721378E+03  0.56579375797E+03  0.12500000000E+03 0.  0.
         25    1    1    2    0    0  0.10857662147E+03  0.16776276712E+02 -0.14928042977E+03  0.22356201132E+03  0.12500000000E+03 0.  0.
         25    1    1    2    0    0 -0.23685577784E+03 -0.62464918099E+02 -0.88266111736E+03  0.92450969361E+03  0.12500000000E+03 0.  0.
</event>
<event>
 5    0  0.5619558E-005  0.2863817E+03  0.7546771E-02  0.1092254E+00
         21   -1    0    0  502  501  0.00000000000E+00  0.00000000000E+00  0.69383048317E+02  0.69383048317E+02  0.00000000000E+00 0.  1.
         21   -1    0    0  501  502 -0.00000000000E+00 -0.00000000000E+00 -0.11820538506E+04  0.11820538506E+04  0.00000000000E+00 0.  1.
         25    1    1    2    0    0  0.70163472327E+02 -0.10951036079E+03 -0.55024538684E+03  0.57905994311E+03  0.12500000000E+03 0.  0.
         25    1    1    2    0    0 -0.37933649440E+02 -0.55205524381E+02 -0.13185082597E+03  0.19363948975E+03  0.12500000000E+03 0.  0.
         25    1    1    2    0    0 -0.32229822887E+02  0.16471588517E+03 -0.43057458946E+03  0.47873746605E+03  0.12500000000E+03 0.  0.
</event>
<event>
 5    0  0.5619558E-005  0.3299413E+03  0.7546771E-02  0.1071163E+00
         21   -1    0    0  502  501  0.00000000000E+00  0.00000000000E+00  0.85918362424E+02  0.85918362424E+02  0.00000000000E+00 0. -1.
         21   -1    0    0  501  502 -0.00000000000E+00 -0.00000000000E+00 -0.12670313829E+04  0.12670313829E+04  0.00000000000E+00 0. -1.
         25    1    1    2    0    0 -0.22165517486E+03  0.62649578311E+02 -0.50522242727E+03  0.56914909050E+03  0.12500000000E+03 0.  0.
         25    1    1    2    0    0  0.33765001840E+02 -0.21895091154E+02 -0.10356955453E+03  0.16724569648E+03  0.12500000000E+03 0.  0.
         25    1    1    2    0    0  0.18789017302E+03 -0.40754487157E+02 -0.57232103865E+03  0.61655495831E+03  0.12500000000E+03 0.  0.
</event>
<event>
 5    0  0.5619558E-005  0.2944763E+03  0.7546771E-02  0.1088035E+00
         21   -1    0    0  502  501  0.00000000000E+00  0.00000000000E+00  0.18642864827E+03  0.18642864827E+03  0.00000000000E+00 0.  1.
         21   -1    0    0  501  502 -0.00000000000E+00 -0.00000000000E+00 -0.46514460287E+03  0.46514460287E+03  0.00000000000E+00 0.  1.
         25    1    1    2    0    0  0.23806183117E+02  0.94675793496E+02  0.23364902709E+02  0.16031580991E+03  0.12500000000E+03 0.  0.
         25    1    1    2    0    0 -0.12013302753E+03 -0.13595692190E+03 -0.13845582131E+03  0.26021384162E+03  0.12500000000E+03 0.  0.
         25    1    1    2    0    0  0.96326844413E+02  0.41281128401E+02 -0.16362503600E+03  0.23104359961E+03  0.12500000000E+03 0.  0.
</event>
<event>
 5    0  0.5619558E-005  0.3334502E+03  0.7546771E-02  0.1069620E+00
         21   -1    0    0  502  501  0.00000000000E+00  0.00000000000E+00  0.17099813884E+03  0.17099813884E+03  0.00000000000E+00 0. -1.
         21   -1    0    0  501  502 -0.00000000000E+00 -0.00000000000E+00 -0.65023540270E+03  0.65023540270E+03  0.00000000000E+00 0. -1.
         25    1    1    2    0    0  0.21575536676E+03 -0.11321132359E+03 -0.77540632317E+02  0.28461330210E+03  0.12500000000E+03 0.  0.
         25    1    1    2    0    0 -0.12096646602E+03  0.59749666151E+02 -0.16132536306E+03  0.24465032449E+03  0.12500000000E+03 0.  0.
         25    1    1    2    0    0 -0.94788900738E+02  0.53461657439E+02 -0.24037126849E+03  0.29196991495E+03  0.12500000000E+03 0.  0.
</event>
<event>
 5    0  0.5619558E-005  0.3063136E+03  0.7546771E-02  0.1082126E+00
         21   -1    0    0  502  501  0.00000000000E+00  0.00000000000E+00  0.79553115887E+03  0.79553115887E+03  0.00000000000E+00 0. -1.
         21   -1    0    0  501  502 -0.00000000000E+00 -0.00000000000E+00 -0.11794385375E+03  0.11794385375E+03  0.00000000000E+00 0. -1.
         25    1    1    2    0    0  0.77311706110E+02  0.10763863212E+03  0.50923461787E+03  0.54084015297E+03  0.12500000000E+03 0.  0.
         25    1    1    2    0    0 -0.12688210223E+03 -0.49044056409E+02  0.10822560903E+03  0.21410784615E+03  0.12500000000E+03 0.  0.
         25    1    1    2    0    0  0.49570396119E+02 -0.58594575711E+02  0.60127078220E+02  0.15852701350E+03  0.12500000000E+03 0.  0.
</event>
<event>
 5    0  0.5619558E-005  0.3234554E+03  0.7546771E-02  0.1074070E+00
         21   -1    0    0  502  501  0.00000000000E+00  0.00000000000E+00  0.36080733018E+03  0.36080733018E+03  0.00000000000E+00 0. -1.
         21   -1    0    0  501  502 -0.00000000000E+00 -0.00000000000E+00 -0.28997017809E+03  0.28997017809E+03  0.00000000000E+00 0. -1.
         25    1    1    2    0    0  0.83731709738E+02 -0.20798338021E+03 -0.81472357182E+02  0.26931548534E+03  0.12500000000E+03 0.  0.
         25    1    1    2    0    0  0.72857757984E+01  0.82187186254E+02  0.76677224292E+02  0.16826233339E+03  0.12500000000E+03 0.  0.
         25    1    1    2    0    0 -0.91017485536E+02  0.12579619396E+03  0.75632284986E+02  0.21319968954E+03  0.12500000000E+03 0.  0.
</event>
<event>
 5    0  0.5619558E-005  0.4559474E+03  0.7546771E-02  0.1025963E+00
         21   -1    0    0  502  501  0.00000000000E+00  0.00000000000E+00  0.17736688146E+03  0.17736688146E+03  0.00000000000E+00 0.  1.
         21   -1    0    0  501  502 -0.00000000000E+00 -0.00000000000E+00 -0.11720793911E+04  0.11720793911E+04  0.00000000000E+00 0.  1.
         25    1    1    2    0    0  0.49880105772E+02 -0.10685251089E+03 -0.71097347676E+02  0.18597127972E+03  0.12500000000E+03 0.  0.
         25    1    1    2    0    0 -0.22821825240E+03  0.15082368052E+03 -0.88915056453E+03  0.93864001605E+03  0.12500000000E+03 0.  0.
         25    1    1    2    0    0  0.17833814663E+03 -0.43971169624E+02 -0.34464597411E+02  0.22483497677E+03  0.12500000000E+03 0.  0.
</event>
<event>
 5    0  0.5619558E-005  0.3141923E+03  0.7546771E-02  0.1078354E+00
         21   -1    0    0  502  501  0.00000000000E+00  0.00000000000E+00  0.17185682815E+03  0.17185682815E+03  0.00000000000E+00 0.  1.
         21   -1    0    0  501  502 -0.00000000000E+00 -0.00000000000E+00 -0.57441288128E+03  0.57441288128E+03  0.00000000000E+00 0.  1.
         25    1    1    2    0    0  0.58129133984E+02 -0.27246878011E+02 -0.17324466364E+03  0.22306972466E+03  0.12500000000E+03 0.  0.
         25    1    1    2    0    0 -0.81588153273E+01 -0.43290957527E+02 -0.31990183522E+03  0.34626991993E+03  0.12500000000E+03 0.  0.
         25    1    1    2    0    0 -0.49970318657E+02  0.70537835538E+02  0.90590445729E+02  0.17693006485E+03  0.12500000000E+03 0.  0.
</event>
<event>
 5    0  0.5619558E-005  0.2605262E+03  0.7546771E-02  0.1106827E+00
         21   -1    0    0  502  501  0.00000000000E+00  0.00000000000E+00  0.11080216757E+04  0.11080216757E+04  0.00000000000E+00 0. -1.
         21   -1    0    0  501  502 -0.00000000000E+00 -0.00000000000E+00 -0.61256837148E+02  0.61256837148E+02  0.00000000000E+00 0. -1.
         25    1    1    2    0    0 -0.17564750462E+02  0.76692363264E+02  0.32377568221E+03  0.35587347672E+03  0.12500000000E+03 0.  0.
         25    1    1    2    0    0 -0.11696573757E+03 -0.39776473311E+02  0.25867247793E+03  0.31272927978E+03  0.12500000000E+03 0.  0.
         25    1    1    2    0    0  0.13453048803E+03 -0.36915889953E+02  0.46431667839E+03  0.50067575632E+03  0.12500000000E+03 0.  0.
</event>
<event>
 5    0  0.5619558E-005  0.4402389E+03  0.7546771E-02  0.1030674E+00
         21   -1    0    0  502  501  0.00000000000E+00  0.00000000000E+00  0.24188178544E+03  0.24188178544E+03  0.00000000000E+00 0. -1.
         21   -1    0    0  501  502 -0.00000000000E+00 -0.00000000000E+00 -0.80126024591E+03  0.80126024591E+03  0.00000000000E+00 0. -1.
         25    1    1    2    0    0  0.10518524137E+03  0.34662926877E+01  0.49756673494E+02  0.17081181676E+03  0.12500000000E+03 0.  0.
         25    1    1    2    0    0 -0.95161242470E+02 -0.27372806647E+03 -0.39409321699E+03  0.50489323636E+03  0.12500000000E+03 0.  0.
         25    1    1    2    0    0 -0.10023998900E+02  0.27026177378E+03 -0.21504191697E+03  0.36743697824E+03  0.12500000000E+03 0.  0.
</event>
<event>
 5    0  0.5619558E-005  0.4789468E+03  0.7546771E-02  0.1019425E+00
         21   -1    0    0  502  501  0.00000000000E+00  0.00000000000E+00  0.24283025684E+03  0.24283025684E+03  0.00000000000E+00 0.  1.
         21   -1    0    0  501  502 -0.00000000000E+00 -0.00000000000E+00 -0.94465176985E+03  0.94465176985E+03  0.00000000000E+00 0.  1.
         25    1    1    2    0    0 -0.26320368933E+03 -0.34882719494E+02 -0.31811266415E+03  0.43279747376E+03  0.12500000000E+03 0.  0.
         25    1    1    2    0    0  0.26246021387E+03 -0.92770149060E+02  0.27452687169E+02  0.30638262753E+03  0.12500000000E+03 0.  0.
         25    1    1    2    0    0  0.74347545968E+00  0.12765286855E+03 -0.41116153603E+03  0.44830192540E+03  0.12500000000E+03 0.  0.
</event>
<event>
 5    0  0.5619558E-005  0.2835607E+03  0.7546771E-02  0.1093760E+00
         21   -1    0    0  502  501  0.00000000000E+00  0.00000000000E+00  0.16103369928E+03  0.16103369928E+03  0.00000000000E+00 0. -1.
         21   -1    0    0  501  502 -0.00000000000E+00 -0.00000000000E+00 -0.49931563328E+03  0.49931563328E+03  0.00000000000E+00 0. -1.
         25    1    1    2    0    0  0.58607409014E+02  0.56628524797E+02 -0.11384710236E+03  0.18769065221E+03  0.12500000000E+03 0.  0.
         25    1    1    2    0    0  0.51530100071E+02 -0.13356434502E+03 -0.21775999912E+03  0.28903149083E+03  0.12500000000E+03 0.  0.
         25    1    1    2    0    0 -0.11013750909E+03  0.76935820221E+02 -0.66748325244E+01  0.18362718952E+03  0.12500000000E+03 0.  0.
</event>
<event>
 5    0  0.5619558E-005  0.2107474E+03  0.7546771E-02  0.1140976E+00
         21   -1    0    0  502  501  0.00000000000E+00  0.00000000000E+00  0.15410087144E+03  0.15410087144E+03  0.00000000000E+00 0. -1.
         21   -1    0    0  501  502 -0.00000000000E+00 -0.00000000000E+00 -0.28821673757E+03  0.28821673757E+03  0.00000000000E+00 0. -1.
         25    1    1    2    0    0 -0.36141957279E+02  0.35293650741E+02 -0.25841270077E+02  0.13727583217E+03  0.12500000000E+03 0.  0.
         25    1    1    2    0    0  0.76118748192E+02 -0.94599757462E+01 -0.28807435502E+02  0.14946044061E+03  0.12500000000E+03 0.  0.
         25    1    1    2    0    0 -0.39976790913E+02 -0.25833674995E+02 -0.79467160557E+02  0.15558133623E+03  0.12500000000E+03 0.  0.
</event>
<event>
 5    0  0.5619558E-005  0.3426189E+03  0.7546771E-02  0.1065686E+00
         21   -1    0    0  502  501  0.00000000000E+00  0.00000000000E+00  0.31047195180E+03  0.31047195180E+03  0.00000000000E+00 0. -1.
         21   -1    0    0  501  502 -0.00000000000E+00 -0.00000000000E+00 -0.37809436647E+03  0.37809436647E+03  0.00000000000E+00 0. -1.
         25    1    1    2    0    0 -0.26951259894E+02  0.38642283941E+02 -0.12072655635E+03  0.18005415276E+03  0.12500000000E+03 0.  0.
         25    1    1    2    0    0  0.45695794940E+02 -0.79004452759E+02 -0.18177858085E+03  0.23874308720E+03  0.12500000000E+03 0.  0.
         25    1    1    2    0    0 -0.18744535046E+02  0.40362168818E+02  0.23488272253E+03  0.26976907831E+03  0.12500000000E+03 0.  0.
</event>
<event>
 5    0  0.5619558E-005  0.4669201E+03  0.7546771E-02  0.1022793E+00
         21   -1    0    0  502  501  0.00000000000E+00  0.00000000000E+00  0.19843676033E+04  0.19843676033E+04  0.00000000000E+00 0. -1.
         21   -1    0    0  501  502 -0.00000000000E+00 -0.00000000000E+00 -0.10986593108E+03  0.10986593108E+03  0.00000000000E+00 0. -1.
         25    1    1    2    0    0  0.29638607817E+02 -0.24070757567E+02  0.24379408334E+02  0.13295564672E+03  0.12500000000E+03 0.  0.
         25    1    1    2    0    0 -0.21705458669E+02 -0.15006694856E+03  0.14881062729E+03  0.24649709690E+03  0.12500000000E+03 0.  0.
         25    1    1    2    0    0 -0.79331491476E+01  0.17413770612E+03  0.17013116366E+04  0.17147807907E+04  0.12500000000E+03 0.  0.
</event>
<event>
 5    0  0.5619558E-005  0.3209043E+03  0.7546771E-02  0.1075234E+00
         21   -1    0    0  502  501  0.00000000000E+00  0.00000000000E+00  0.46144052237E+03  0.46144052237E+03  0.00000000000E+00 0. -1.
         21   -1    0    0  501  502 -0.00000000000E+00 -0.00000000000E+00 -0.22316975345E+03  0.22316975345E+03  0.00000000000E+00 0. -1.
         25    1    1    2    0    0  0.12531521188E+03  0.64214374572E+01 -0.46870378258E+02  0.18321290769E+03  0.12500000000E+03 0.  0.
         25    1    1    2    0    0 -0.44212437094E+02 -0.15273767538E+03  0.12016752009E+03  0.23526319296E+03  0.12500000000E+03 0.  0.
         25    1    1    2    0    0 -0.81102774787E+02  0.14631623793E+03  0.16497362708E+03  0.26613417516E+03  0.12500000000E+03 0.  0.
</event>
<event>
 5    0  0.5619558E-005  0.2247444E+03  0.7546771E-02  0.1130395E+00
         21   -1    0    0  502  501  0.00000000000E+00  0.00000000000E+00  0.12878531270E+03  0.12878531270E+03  0.00000000000E+00 0.  1.
         21   -1    0    0  501  502 -0.00000000000E+00 -0.00000000000E+00 -0.39220348485E+03  0.39220348485E+03  0.00000000000E+00 0.  1.
         25    1    1    2    0    0 -0.19084735250E+02 -0.29860747437E+01 -0.52691526853E+02  0.13702022027E+03  0.12500000000E+03 0.  0.
         25    1    1    2    0    0 -0.22316500520E+02 -0.91716253063E+02 -0.12570260663E+03  0.20083834939E+03  0.12500000000E+03 0.  0.
         25    1    1    2    0    0  0.41401235771E+02  0.94702327807E+02 -0.85024038678E+02  0.18313022789E+03  0.12500000000E+03 0.  0.
</event>
<event>
 5    0  0.5619558E-005  0.3385720E+03  0.7546771E-02  0.1067406E+00
         21   -1    0    0  502  501  0.00000000000E+00  0.00000000000E+00  0.74966620225E+03  0.74966620225E+03  0.00000000000E+00 0.  1.
         21   -1    0    0  501  502 -0.00000000000E+00 -0.00000000000E+00 -0.15290941613E+03  0.15290941613E+03  0.00000000000E+00 0.  1.
         25    1    1    2    0    0 -0.11681129865E+03 -0.17450005889E+03  0.10054882257E+03  0.26425407427E+03  0.12500000000E+03 0.  0.
         25    1    1    2    0    0  0.18949214715E+02 -0.40758995337E+02  0.14161301158E+03  0.19416388307E+03  0.12500000000E+03 0.  0.
         25    1    1    2    0    0  0.97862083932E+02  0.21525905423E+03  0.35459495196E+03  0.44415766104E+03  0.12500000000E+03 0.  0.
</event>
<event>
 5    0  0.5619558E-005  0.3734487E+03  0.7546771E-02  0.1053382E+00
         21   -1    0    0  502  501  0.00000000000E+00  0.00000000000E+00  0.20746937088E+03  0.20746937088E+03  0.00000000000E+00 0. -1.
         21   -1    0    0  501  502 -0.00000000000E+00 -0.00000000000E+00 -0.67221470601E+03  0.67221470601E+03  0.00000000000E+00 0. -1.
         25    1    1    2    0    0  0.10958380039E+03  0.37237793998E+02 -0.22476931865E+03  0.28203104300E+03  0.12500000000E+03 0.  0.
         25    1    1    2    0    0  0.11529301874E+03  0.76814143097E+02 -0.25481832243E+03  0.31583266170E+03  0.12500000000E+03 0.  0.
         25    1    1    2    0    0 -0.22487681913E+03 -0.11405193710E+03  0.14842305942E+02  0.28182037219E+03  0.12500000000E+03 0.  0.
</event>
<event>
 5    0  0.5619558E-005  0.4911586E+03  0.7546771E-02  0.1016113E+00
         21   -1    0    0  502  501  0.00000000000E+00  0.00000000000E+00  0.41023937522E+03  0.41023937522E+03  0.00000000000E+00 0. -1.
         21   -1    0    0  501  502 -0.00000000000E+00 -0.00000000000E+00 -0.58803902783E+03  0.58803902783E+03  0.00000000000E+00 0. -1.
         25    1    1    2    0    0 -0.80586230670E+02  0.19054433801E+03  0.24548467119E+03  0.34451271255E+03  0.12500000000E+03 0.  0.
         25    1    1    2    0    0  0.19686090996E+02 -0.20136665754E+03 -0.45257313442E+03  0.51125679941E+03  0.12500000000E+03 0.  0.
         25    1    1    2    0    0  0.60900139673E+02  0.10822319529E+02  0.29288810625E+02  0.14250889109E+03  0.12500000000E+03 0.  0.
</event>
<event>
 5    0  0.5619558E-005  0.4126828E+03  0.7546771E-02  0.1039474E+00
         21   -1    0    0  502  501  0.00000000000E+00  0.00000000000E+00  0.30137763221E+03  0.30137763221E+03  0.00000000000E+00 0.  1.
         21   -1    0    0  501  502 -0.00000000000E+00 -0.00000000000E+00 -0.56509541871E+03  0.56509541871E+03  0.00000000000E+00 0.  1.
         25    1    1    2    0    0  0.26939458961E+03  0.39300607537E+02 -0.85910962843E+02  0.31164671698E+03  0.12500000000E+03 0.  0.
         25    1    1    2    0    0 -0.34147866674E+03  0.31146539846E+02 -0.12123509846E+03  0.38457864720E+03  0.12500000000E+03 0.  0.
         25    1    1    2    0    0  0.72084077129E+02 -0.70447147383E+02 -0.56571725193E+02  0.17024768674E+03  0.12500000000E+03 0.  0.
</event>
<event>
 5    0  0.5619558E-005  0.4996640E+03  0.7546771E-02  0.1013867E+00
         21   -1    0    0  502  501  0.00000000000E+00  0.00000000000E+00  0.37707909531E+03  0.37707909531E+03  0.00000000000E+00 0. -1.
         21   -1    0    0  501  502 -0.00000000000E+00 -0.00000000000E+00 -0.66210004048E+03  0.66210004048E+03  0.00000000000E+00 0. -1.
         25    1    1    2    0    0 -0.11053134516E+03  0.11082978238E+03 -0.57128546957E+03  0.60538624586E+03  0.12500000000E+03 0.  0.
         25    1    1    2    0    0  0.67922751470E-01  0.97771302808E+00  0.10448531253E+03  0.16292065882E+03  0.12500000000E+03 0.  0.
         25    1    1    2    0    0  0.11046342241E+03 -0.11180749540E+03  0.18177921187E+03  0.27087223111E+03  0.12500000000E+03 0.  0.
</event>
<event>
 5    0  0.5619558E-005  0.2052912E+03  0.7546771E-02  0.1145350E+00
         21   -1    0    0  502  501  0.00000000000E+00  0.00000000000E+00  0.59574102604E+03  0.59574102604E+03  0.00000000000E+00 0.  1.
         21   -1    0    0  501  502 -0.00000000000E+00 -0.00000000000E+00 -0.70742929202E+02  0.70742929202E+02  0.00000000000E+00 0.  1.
         25    1    1    2    0    0 -0.62762581441E+02 -0.19621233912E+02  0.18397910789E+03  0.23194276576E+03  0.12500000000E+03 0.  0.
         25    1    1    2    0    0  0.16624365771E+02 -0.16927166829E+02  0.12677737204E+03  0.17961180522E+03  0.12500000000E+03 0.  0.
         25    1    1    2    0    0  0.46138215670E+02  0.36548400742E+02  0.21424161691E+03  0.25492938425E+03  0.12500000000E+03 0.  0.
</event>
<event>
 5    0  0.5619558E-005  0.3834776E+03  0.7546771E-02  0.1049656E+00
         21   -1    0    0  502  501  0.00000000000E+00  0.00000000000E+00  0.49484190122E+03  0.49484190122E+03  0.00000000000E+00 0. -1.
         21   -1    0    0  501  502 -0.00000000000E+00 -0.00000000000E+00 -0.29717583171E+03  0.29717583171E+03  0.00000000000E+00 0. -1.
         25    1    1    2    0    0 -0.68918507008E+02 -0.75335821893E+02  0.26910203223E+03  0.31379316503E+03  0.12500000000E+03 0.  0.
         25    1    1    2    0    0  0.82319030744E+02 -0.14791017201E+03  0.61813503620E+01  0.21051615354E+03  0.12500000000E+03 0.  0.
         25    1    1    2    0    0 -0.13400523736E+02  0.22324599391E+03 -0.77617313086E+02  0.26770841437E+03  0.12500000000E+03 0.  0.
</event>
<event>
 5    0  0.5619558E-005  0.3014523E+03  0.7546771E-02  0.1084517E+00
         21   -1    0    0  502  501  0.00000000000E+00  0.00000000000E+00  0.30952979137E+03  0.30952979137E+03  0.00000000000E+00 0.  1.
         21   -1    0    0  501  502 -0.00000000000E+00 -0.00000000000E+00 -0.29358565394E+03  0.29358565394E+03  0.00000000000E+00 0.  1.
         25    1    1    2    0    0  0.44456421987E+02 -0.15777530429E+02 -0.28001610377E+02  0.13650785364E+03  0.12500000000E+03 0.  0.
         25    1    1    2    0    0  0.14241848590E+03  0.61512081369E+02  0.11036586667E+03  0.22775510050E+03  0.12500000000E+03 0.  0.
         25    1    1    2    0    0 -0.18687490788E+03 -0.45734550941E+02 -0.66420118866E+02  0.23885249117E+03  0.12500000000E+03 0.  0.
</event>
<event>
 5    0  0.5619558E-005  0.2914297E+03  0.7546771E-02  0.1089605E+00
         21   -1    0    0  502  501  0.00000000000E+00  0.00000000000E+00  0.10226947693E+03  0.10226947693E+03  0.00000000000E+00 0. -1.
         21   -1    0    0  501  502 -0.00000000000E+00 -0.00000000000E+00 -0.83046560555E+03  0.83046560555E+03  0.00000000000E+00 0. -1.
         25    1    1    2    0    0 -0.26347297934E+02  0.15167240905E+03 -0.27040525322E+03  0.33532476906E+03  0.12500000000E+03 0.  0.
         25    1    1    2    0    0 -0.95675906786E+02 -0.37294475998E+02 -0.27907356611E+03  0.32257063161E+03  0.12500000000E+03 0.  0.
         25    1    1    2    0    0  0.12202320472E+03 -0.11437793305E+03 -0.17871730929E+03  0.27483968181E+03  0.12500000000E+03 0.  0.
</event>
<event>
 5    0  0.5619558E-005  0.2299190E+03  0.7546771E-02  0.1126697E+00
         21   -1    0    0  502  501  0.00000000000E+00  0.00000000000E+00  0.23019732275E+03  0.23019732275E+03  0.00000000000E+00 0.  1.
         21   -1    0    0  501  502 -0.00000000000E+00 -0.00000000000E+00 -0.22964099940E+03  0.22964099940E+03  0.00000000000E+00 0.  1.
         25    1    1    2    0    0  0.18664811515E+02  0.13253680281E+02  0.39283024434E+02  0.13301199660E+03  0.12500000000E+03 0.  0.
         25    1    1    2    0    0 -0.60409529654E+02 -0.41966986344E+02  0.62758925977E+02  0.15803234481E+03  0.12500000000E+03 0.  0.
         25    1    1    2    0    0  0.41744718139E+02  0.28713306063E+02 -0.10148562706E+03  0.16879398075E+03  0.12500000000E+03 0.  0.
</event>
<event>
 5    0  0.5619558E-005  0.4449034E+03  0.7546771E-02  0.1029253E+00
         21   -1    0    0  502  501  0.00000000000E+00  0.00000000000E+00  0.40669057679E+03  0.40669057679E+03  0.00000000000E+00 0. -1.
         21   -1    0    0  501  502 -0.00000000000E+00 -0.00000000000E+00 -0.48670670242E+03  0.48670670242E+03  0.00000000000E+00 0. -1.
         25    1    1    2    0    0  0.95797695626E+02  0.33368243252E+02  0.14069938801E+02  0.16159703377E+03  0.12500000000E+03 0.  0.
         25    1    1    2    0    0  0.12411463840E+03  0.25145452034E+03 -0.15840930459E+03  0.34547406132E+03  0.12500000000E+03 0.  0.
         25    1    1    2    0    0 -0.21991233402E+03 -0.28482276359E+03  0.64323240163E+02  0.38632618413E+03  0.12500000000E+03 0.  0.
</event>
<event>
 5    0  0.5619558E-005  0.3158218E+03  0.7546771E-02  0.1077588E+00
         21   -1    0    0  502  501  0.00000000000E+00  0.00000000000E+00  0.70164334042E+03  0.70164334042E+03  0.00000000000E+00 0.  1.
         21   -1    0    0  501  502 -0.00000000000E+00 -0.00000000000E+00 -0.14215683078E+03  0.14215683078E+03  0.00000000000E+00 0.  1.
         25    1    1    2    0    0  0.99936755967E+02 -0.44392565892E+02  0.67033664216E+02  0.17909932227E+03  0.12500000000E+03 0.  0.
         25    1    1    2    0    0  0.66512216642E+02  0.15565252959E+03  0.23107537774E+03  0.31252586313E+03  0.12500000000E+03 0.  0.
         25    1    1    2    0    0 -0.16644897261E+03 -0.11125996370E+03  0.26137746769E+03  0.35217498580E+03  0.12500000000E+03 0.  0.
</event>
<event>
 5    0  0.5619558E-005  0.3283384E+03  0.7546771E-02  0.1071874E+00
         21   -1    0    0  502  501  0.00000000000E+00  0.00000000000E+00  0.58041508887E+02  0.58041508887E+02  0.00000000000E+00 0. -1.
         21   -1    0    0  501  502 -0.00000000000E+00 -0.00000000000E+00 -0.18573971269E+04  0.18573971269E+04  0.00000000000E+00 0. -1.
         25    1    1    2    0    0  0.47218607543E+02  0.22481412518E+02 -0.47111543525E+03  0.49021399831E+03  0.12500000000E+03 0.  0.
         25    1    1    2    0    0  0.90734341048E+02 -0.20354705228E+03 -0.60359530181E+03  0.65545130368E+03  0.12500000000E+03 0.  0.
         25    1    1    2    0    0 -0.13795294859E+03  0.18106563976E+03 -0.72464488096E+03  0.76977333380E+03  0.12500000000E+03 0.  0.
</event>
<event>
 5    0  0.5619558E-005  0.2890214E+03  0.7546771E-02  0.1090861E+00
         21   -1    0    0  502  501  0.00000000000E+00  0.00000000000E+00  0.16795351817E+03  0.16795351817E+03  0.00000000000E+00 0. -1.
         21   -1    0    0  501  502 -0.00000000000E+00 -0.00000000000E+00 -0.49735996202E+03  0.49735996202E+03  0.00000000000E+00 0. -1.
         25    1    1    2    0    0 -0.31657843159E+02  0.17433396564E+03 -0.99675145924E+02  0.23865180771E+03  0.12500000000E+03 0.  0.
         25    1    1    2    0    0  0.29382278119E+02 -0.17401418413E+03 -0.20744257884E+03  0.29966928115E+03  0.12500000000E+03 0.  0.
         25    1    1    2    0    0  0.22755650404E+01 -0.31978150995E+00 -0.22288719083E+02  0.12699239133E+03  0.12500000000E+03 0.  0.
</event>
<event>
 5    0  0.5619558E-005  0.3255480E+03  0.7546771E-02  0.1073124E+00
         21   -1    0    0  502  501  0.00000000000E+00  0.00000000000E+00  0.14850512475E+03  0.14850512475E+03  0.00000000000E+00 0. -1.
         21   -1    0    0  501  502 -0.00000000000E+00 -0.00000000000E+00 -0.71365529301E+03  0.71365529301E+03  0.00000000000E+00 0. -1.
         25    1    1    2    0    0 -0.84214745508E+02 -0.12674934877E+03 -0.19446757776E+03  0.27676733834E+03  0.12500000000E+03 0.  0.
         25    1    1    2    0    0  0.75022920084E+02 -0.11047478476E+03 -0.17659308483E+03  0.25425033769E+03  0.12500000000E+03 0.  0.
         25    1    1    2    0    0  0.91918254241E+01  0.23722413353E+03 -0.19408950567E+03  0.33114274172E+03  0.12500000000E+03 0.  0.
</event>
<event>
 5    0  0.5619558E-005  0.3934059E+03  0.7546771E-02  0.1046087E+00
         21   -1    0    0  502  501  0.00000000000E+00  0.00000000000E+00  0.46038034687E+03  0.46038034687E+03  0.00000000000E+00 0. -1.
         21   -1    0    0  501  502 -0.00000000000E+00 -0.00000000000E+00 -0.33617470584E+03  0.33617470584E+03  0.00000000000E+00 0. -1.
         25    1    1    2    0    0  0.15303584862E+03 -0.74793364759E+02  0.14675772627E+03  0.25724861243E+03  0.12500000000E+03 0.  0.
         25    1    1    2    0    0  0.24442068746E+01  0.22534491480E+03 -0.10184698568E+03  0.27709946457E+03  0.12500000000E+03 0.  0.
         25    1    1    2    0    0 -0.15548005549E+03 -0.15055155004E+03  0.79294900441E+02  0.26220697571E+03  0.12500000000E+03 0.  0.
</event>
<event>
 5    0  0.5619558E-005  0.2792322E+03  0.7546771E-02  0.1096109E+00
         21   -1    0    0  502  501  0.00000000000E+00  0.00000000000E+00  0.55827806201E+02  0.55827806201E+02  0.00000000000E+00 0. -1.
         21   -1    0    0  501  502 -0.00000000000E+00 -0.00000000000E+00 -0.13966271693E+04  0.13966271693E+04  0.00000000000E+00 0. -1.
         25    1    1    2    0    0 -0.73666776321E+02 -0.11134468414E+03 -0.65459218132E+03  0.67966194278E+03  0.12500000000E+03 0.  0.
         25    1    1    2    0    0  0.49198849487E+02  0.98485824588E+02 -0.58886150570E+03  0.61196638579E+03  0.12500000000E+03 0.  0.
         25    1    1    2    0    0  0.24467926834E+02  0.12858859552E+02 -0.97345676074E+02  0.16082664693E+03  0.12500000000E+03 0.  0.
</event>
<event>
 5    0  0.5619558E-005  0.5435726E+03  0.7546771E-02  0.1002993E+00
         21   -1    0    0  502  501  0.00000000000E+00  0.00000000000E+00  0.14821892753E+04  0.14821892753E+04  0.00000000000E+00 0. -1.
         21   -1    0    0  501  502 -0.00000000000E+00 -0.00000000000E+00 -0.19934778904E+03  0.19934778904E+03  0.00000000000E+00 0. -1.
         25    1    1    2    0    0 -0.19962166143E+03 -0.41283521623E+03  0.72522205853E+03  0.86709501075E+03  0.12500000000E+03 0.  0.
         25    1    1    2    0    0  0.18367277635E+03  0.40462293739E+03  0.38822724417E+03  0.60315901995E+03  0.12500000000E+03 0.  0.
         25    1    1    2    0    0  0.15948885082E+02  0.82122788466E+01  0.16939218359E+03  0.21128303368E+03  0.12500000000E+03 0.  0.
</event>
<event>
 5    0  0.5619558E-005  0.1911028E+03  0.7546771E-02  0.1157470E+00
         21   -1    0    0  502  501  0.00000000000E+00  0.00000000000E+00  0.94695726442E+02  0.94695726442E+02  0.00000000000E+00 0.  1.
         21   -1    0    0  501  502 -0.00000000000E+00 -0.00000000000E+00 -0.38565913002E+03  0.38565913002E+03  0.00000000000E+00 0.  1.
         25    1    1    2    0    0  0.13487339065E+02 -0.24025761271E+02 -0.94037476402E+02  0.15883070386E+03  0.12500000000E+03 0.  0.
         25    1    1    2    0    0  0.38202796142E+01  0.46947158649E+01 -0.11404093867E+03  0.16931323216E+03  0.12500000000E+03 0.  0.
         25    1    1    2    0    0 -0.17307618679E+02  0.19331045406E+02 -0.82884988506E+02  0.15221092044E+03  0.12500000000E+03 0.  0.
</event>
<event>
 5    0  0.5619558E-005  0.2765453E+03  0.7546771E-02  0.1097591E+00
         21   -1    0    0  502  501  0.00000000000E+00  0.00000000000E+00  0.54652560539E+02  0.54652560539E+02  0.00000000000E+00 0.  1.
         21   -1    0    0  501  502 -0.00000000000E+00 -0.00000000000E+00 -0.13993359890E+04  0.13993359890E+04  0.00000000000E+00 0.  1.
         25    1    1    2    0    0 -0.69360778171E+02  0.12502605507E+02 -0.68038761953E+03  0.69535569711E+03  0.12500000000E+03 0.  0.
         25    1    1    2    0    0  0.74038583398E+02 -0.75772502283E+02 -0.56118335961E+03  0.58461521280E+03  0.12500000000E+03 0.  0.
         25    1    1    2    0    0 -0.46778052273E+01  0.63269896776E+02 -0.10311244934E+03  0.17401763965E+03  0.12500000000E+03 0.  0.
</event>
<event>
 5    0  0.5619558E-005  0.4581283E+03  0.7546771E-02  0.1025325E+00
         21   -1    0    0  502  501  0.00000000000E+00  0.00000000000E+00  0.14532995014E+04  0.14532995014E+04  0.00000000000E+00 0. -1.
         21   -1    0    0  501  502 -0.00000000000E+00 -0.00000000000E+00 -0.14441723771E+03  0.14441723771E+03  0.00000000000E+00 0. -1.
         25    1    1    2    0    0  0.14382671278E+03  0.62519732041E+02  0.61181024789E+03  0.64384130003E+03  0.12500000000E+03 0.  0.
         25    1    1    2    0    0 -0.14570462715E+03  0.18706023472E+03  0.60202253342E+03  0.65899734486E+03  0.12500000000E+03 0.  0.
         25    1    1    2    0    0  0.18779143720E+01 -0.24957996676E+03  0.95049482423E+02  0.29487809427E+03  0.12500000000E+03 0.  0.
</event>
<event>
 5    0  0.5619558E-005  0.2177881E+03  0.7546771E-02  0.1135543E+00
         21   -1    0    0  502  501  0.00000000000E+00  0.00000000000E+00  0.18554124370E+03  0.18554124370E+03  0.00000000000E+00 0. -1.
         21   -1    0    0  501  502 -0.00000000000E+00 -0.00000000000E+00 -0.25563941115E+03  0.25563941115E+03  0.00000000000E+00 0. -1.
         25    1    1    2    0    0 -0.53873926999E+00 -0.29915619502E+02  0.71514564556E+02  0.14708693849E+03  0.12500000000E+03 0.  0.
         25    1    1    2    0    0  0.18296848535E+02  0.18753375174E+01 -0.51367127748E+02  0.13638868491E+03  0.12500000000E+03 0.  0.
         25    1    1    2    0    0 -0.17758109265E+02  0.28040281984E+02 -0.90245604264E+02  0.15770503146E+03  0.12500000000E+03 0.  0.
</event>
<event>
 5    0  0.5619558E-005  0.3355808E+03  0.7546771E-02  0.1068694E+00
         21   -1    0    0  502  501  0.00000000000E+00  0.00000000000E+00  0.14485304813E+03  0.14485304813E+03  0.00000000000E+00 0. -1.
         21   -1    0    0  501  502 -0.00000000000E+00 -0.00000000000E+00 -0.77743967100E+03  0.77743967100E+03  0.00000000000E+00 0. -1.
         25    1    1    2    0    0  0.66745608994E+02  0.20076360313E+03 -0.23480129539E+03  0.33987887398E+03  0.12500000000E+03 0.  0.
         25    1    1    2    0    0  0.55420040217E+02 -0.19418686000E+03 -0.15658752371E+03  0.28447244161E+03  0.12500000000E+03 0.  0.
         25    1    1    2    0    0 -0.12216564921E+03 -0.65767431376E+01 -0.24119780378E+03  0.29794140354E+03  0.12500000000E+03 0.  0.
</event>
<event>
 5    0  0.5619558E-005  0.2775556E+03  0.7546771E-02  0.1097032E+00
         21   -1    0    0  502  501  0.00000000000E+00  0.00000000000E+00  0.85960806512E+02  0.85960806512E+02  0.00000000000E+00 0.  1.
         21   -1    0    0  501  502 -0.00000000000E+00 -0.00000000000E+00 -0.89618909483E+03  0.89618909483E+03  0.00000000000E+00 0.  1.
         25    1    1    2    0    0 -0.97105707833E+02 -0.14068605256E+02 -0.36446277510E+03  0.39759974671E+03  0.12500000000E+03 0.  0.
         25    1    1    2    0    0  0.85839398069E+02 -0.70675222433E+02 -0.73634160847E+02  0.18278506222E+03  0.12500000000E+03 0.  0.
         25    1    1    2    0    0  0.11266309765E+02  0.84743827689E+02 -0.37213135237E+03  0.40176509241E+03  0.12500000000E+03 0.  0.
</event>
<event>
 5    0  0.5619558E-005  0.3657074E+03  0.7546771E-02  0.1056347E+00
         21   -1    0    0  502  501  0.00000000000E+00  0.00000000000E+00  0.14212515802E+03  0.14212515802E+03  0.00000000000E+00 0. -1.
         21   -1    0    0  501  502 -0.00000000000E+00 -0.00000000000E+00 -0.94101476667E+03  0.94101476667E+03  0.00000000000E+00 0. -1.
         25    1    1    2    0    0  0.45986136534E+00 -0.13572585349E+03 -0.24489075334E+03  0.30662387358E+03  0.12500000000E+03 0.  0.
         25    1    1    2    0    0  0.31391617390E+02  0.18443995310E+03 -0.21017305787E+02  0.22598729407E+03  0.12500000000E+03 0.  0.
         25    1    1    2    0    0 -0.31851478756E+02 -0.48714099606E+02 -0.53298154952E+03  0.55052875704E+03  0.12500000000E+03 0.  0.
</event>
<event>
 5    0  0.5619558E-005  0.3466172E+03  0.7546771E-02  0.1064012E+00
         21   -1    0    0  502  501  0.00000000000E+00  0.00000000000E+00  0.13224714844E+04  0.13224714844E+04  0.00000000000E+00 0. -1.
         21   -1    0    0  501  502 -0.00000000000E+00 -0.00000000000E+00 -0.90847668503E+02  0.90847668503E+02  0.00000000000E+00 0. -1.
         25    1    1    2    0    0 -0.48131805623E+02 -0.75369891070E+02  0.97686003773E+02  0.18211218116E+03  0.12500000000E+03 0.  0.
         25    1    1    2    0    0  0.99233089460E+02 -0.21823725153E+02  0.11292050466E+03  0.19672193928E+03  0.12500000000E+03 0.  0.
         25    1    1    2    0    0 -0.51101283836E+02  0.97193616223E+02  0.10210173075E+04  0.10344850324E+04  0.12500000000E+03 0.  0.
</event>
<event>
 5    0  0.5619558E-005  0.2800837E+03  0.7546771E-02  0.1095643E+00
         21   -1    0    0  502  501  0.00000000000E+00  0.00000000000E+00  0.21732557154E+04  0.21732557154E+04  0.00000000000E+00 0.  1.
         21   -1    0    0  501  502 -0.00000000000E+00 -0.00000000000E+00 -0.36096485681E+02  0.36096485681E+02  0.00000000000E+00 0.  1.
         25    1    1    2    0    0 -0.48434728757E+02 -0.12209633272E+03  0.34190172321E+03  0.38700804352E+03  0.12500000000E+03 0.  0.
         25    1    1    2    0    0 -0.14731474153E+02  0.94509865932E+02  0.67943163994E+03  0.69742489520E+03  0.12500000000E+03 0.  0.
         25    1    1    2    0    0  0.63166202910E+02  0.27586466786E+02  0.11158258665E+04  0.11249192623E+04  0.12500000000E+03 0.  0.
</event>
<event>
 5    0  0.5619558E-005  0.3033402E+03  0.7546771E-02  0.1083583E+00
         21   -1    0    0  502  501  0.00000000000E+00  0.00000000000E+00  0.27228638274E+02  0.27228638274E+02  0.00000000000E+00 0. -1.
         21   -1    0    0  501  502 -0.00000000000E+00 -0.00000000000E+00 -0.33793574801E+04  0.33793574801E+04  0.00000000000E+00 0. -1.
         25    1    1    2    0    0 -0.13846325428E+03  0.95624481309E+02 -0.11668767056E+04  0.11855557179E+04  0.12500000000E+03 0.  0.
         25    1    1    2    0    0  0.15037392185E+03 -0.48115382237E+02 -0.18335517187E+04  0.18445770007E+04  0.12500000000E+03 0.  0.
         25    1    1    2    0    0 -0.11910667577E+02 -0.47509099072E+02 -0.35170041750E+03  0.37645339973E+03  0.12500000000E+03 0.  0.
</event>
<event>
 5    0  0.5619558E-005  0.3532210E+03  0.7546771E-02  0.1061301E+00
         21   -1    0    0  502  501  0.00000000000E+00  0.00000000000E+00  0.64035152081E+03  0.64035152081E+03  0.00000000000E+00 0.  1.
         21   -1    0    0  501  502 -0.00000000000E+00 -0.00000000000E+00 -0.19483839606E+03  0.19483839606E+03  0.00000000000E+00 0.  1.
         25    1    1    2    0    0 -0.28682615401E+01  0.85864510612E+02  0.39423347909E+02  0.15671675554E+03  0.12500000000E+03 0.  0.
         25    1    1    2    0    0 -0.85440338128E+02  0.91465798125E+02  0.40748781943E+03  0.44422670630E+03  0.12500000000E+03 0.  0.
         25    1    1    2    0    0  0.88308599668E+02 -0.17733030874E+03 -0.13980425921E+01  0.23424645503E+03  0.12500000000E+03 0.  0.
</event>
<event>
 5    0  0.5619558E-005  0.3781722E+03  0.7546771E-02  0.1051611E+00
         21   -1    0    0  502  501  0.00000000000E+00  0.00000000000E+00  0.25619898614E+03  0.25619898614E+03  0.00000000000E+00 0.  1.
         21   -1    0    0  501  502 -0.00000000000E+00 -0.00000000000E+00 -0.55821530606E+03  0.55821530606E+03  0.00000000000E+00 0.  1.
         25    1    1    2    0    0 -0.64172581186E+02 -0.60689698215E+02 -0.52253300469E+01  0.15314589031E+03  0.12500000000E+03 0.  0.
         25    1    1    2    0    0 -0.88707369817E+02 -0.14587761886E+03 -0.30983492575E+03  0.37519589331E+03  0.12500000000E+03 0.  0.
         25    1    1    2    0    0  0.15287995100E+03  0.20656731707E+03  0.13043935884E+02  0.28607250858E+03  0.12500000000E+03 0.  0.
</event>
<event>
 5    0  0.5619558E-005  0.2862809E+03  0.7546771E-02  0.1092307E+00
         21   -1    0    0  502  501  0.00000000000E+00  0.00000000000E+00  0.31442320041E+03  0.31442320041E+03  0.00000000000E+00 0. -1.
         21   -1    0    0  501  502 -0.00000000000E+00 -0.00000000000E+00 -0.26065742672E+03  0.26065742672E+03  0.00000000000E+00 0. -1.
         25    1    1    2    0    0  0.11323671435E+02  0.14683037778E+03  0.39150218651E+02  0.19709166647E+03  0.12500000000E+03 0.  0.
         25    1    1    2    0    0  0.20567812856E+02  0.52002803274E+02  0.31010091197E+02  0.14040638244E+03  0.12500000000E+03 0.  0.
         25    1    1    2    0    0 -0.31891484291E+02 -0.19883318105E+03 -0.16394536154E+02  0.23758257822E+03  0.12500000000E+03 0.  0.
</event>
<event>
 5    0  0.6507409E-005  0.3809699E+03  0.7546771E-02  0.1050576E+00
         21   -1    0    0  502  501  0.00000000000E+00  0.00000000000E+00  0.30994640087E+03  0.30994640087E+03  0.00000000000E+00 0. -1.
         21   -1    0    0  501  502 -0.00000000000E+00 -0.00000000000E+00 -0.46826818794E+03  0.46826818794E+03  0.00000000000E+00 0. -1.
         25    1    1    2    0    0 -0.15331643696E+03  0.18601438333E+03 -0.14593797901E+03  0.30826964555E+03  0.12500000000E+03 0.  0.
         25    1    1    2    0    0  0.11114366050E+03 -0.94895727370E+02 -0.16139472156E+03  0.25106048771E+03  0.12500000000E+03 0.  0.
         25    1    1    2    0    0  0.42172776461E+02 -0.91118655963E+02  0.14901091349E+03  0.21888445555E+03  0.12500000000E+03 0.  0.
</event>
<event>
 5    0  0.5619558E-005  0.5179719E+03  0.7546771E-02  0.1009192E+00
         21   -1    0    0  502  501  0.00000000000E+00  0.00000000000E+00  0.19068700728E+03  0.19068700728E+03  0.00000000000E+00 0. -1.
         21   -1    0    0  501  502 -0.00000000000E+00 -0.00000000000E+00 -0.14069907961E+04  0.14069907961E+04  0.00000000000E+00 0. -1.
         25    1    1    2    0    0 -0.22367260131E+02  0.10057092487E+03 -0.29140047651E+03  0.33339772489E+03  0.12500000000E+03 0.  0.
         25    1    1    2    0    0 -0.19506523771E+03  0.29272937331E+03 -0.27214713318E+03  0.46198484289E+03  0.12500000000E+03 0.  0.
         25    1    1    2    0    0  0.21743249784E+03 -0.39330029818E+03 -0.65275617914E+03  0.80229523560E+03  0.12500000000E+03 0.  0.
</event>
<event>
 5    0  0.5619558E-005  0.2476185E+03  0.7546771E-02  0.1114819E+00
         21   -1    0    0  502  501  0.00000000000E+00  0.00000000000E+00  0.20920336518E+03  0.20920336518E+03  0.00000000000E+00 0.  1.
         21   -1    0    0  501  502 -0.00000000000E+00 -0.00000000000E+00 -0.29308769566E+03  0.29308769566E+03  0.00000000000E+00 0.  1.
         25    1    1    2    0    0  0.13631386352E+03  0.50022784600E+02  0.54875466015E+01  0.19167384155E+03  0.12500000000E+03 0.  0.
         25    1    1    2    0    0 -0.97260055088E+02 -0.51389407976E+02 -0.48968709378E+02  0.17356072155E+03  0.12500000000E+03 0.  0.
         25    1    1    2    0    0 -0.39053808433E+02  0.13666233764E+01 -0.40403167698E+02  0.13705649774E+03  0.12500000000E+03 0.  0.
</event>
<event>
 5    0  0.5619558E-005  0.4337646E+03  0.7546771E-02  0.1032677E+00
         21   -1    0    0  502  501  0.00000000000E+00  0.00000000000E+00  0.55385118110E+03  0.55385118110E+03  0.00000000000E+00 0.  1.
         21   -1    0    0  501  502 -0.00000000000E+00 -0.00000000000E+00 -0.33971524738E+03  0.33971524738E+03  0.00000000000E+00 0.  1.
         25    1    1    2    0    0  0.96612082724E+02 -0.65095268050E+02 -0.18594981719E+03  0.25253439956E+03  0.12500000000E+03 0.  0.
         25    1    1    2    0    0 -0.97467842035E+02  0.16625948291E+03  0.42027899734E+03  0.47895890377E+03  0.12500000000E+03 0.  0.
         25    1    1    2    0    0  0.85575931058E+00 -0.10116421486E+03 -0.20193246438E+02  0.16207312514E+03  0.12500000000E+03 0.  0.
</event>
<event>
 5    0  0.5619558E-005  0.2694222E+03  0.7546771E-02  0.1101611E+00
         21   -1    0    0  502  501  0.00000000000E+00  0.00000000000E+00  0.62646633357E+02  0.62646633357E+02  0.00000000000E+00 0. -1.
         21   -1    0    0  501  502 -0.00000000000E+00 -0.00000000000E+00 -0.11586950394E+04  0.11586950394E+04  0.00000000000E+00 0. -1.
         25    1    1    2    0    0  0.12532252833E+03  0.40085389263E+02 -0.29963532058E+03  0.35031257454E+03  0.12500000000E+03 0.  0.
         25    1    1    2    0    0  0.48870510644E+01 -0.91961842214E+02 -0.46328552537E+03  0.48860960051E+03  0.12500000000E+03 0.  0.
         25    1    1    2    0    0 -0.13020957940E+03  0.51876452951E+02 -0.33312756011E+03  0.38241949773E+03  0.12500000000E+03 0.  0.
</event>
<event>
 5    0  0.5619558E-005  0.2921196E+03  0.7546771E-02  0.1089248E+00
         21   -1    0    0  502  501  0.00000000000E+00  0.00000000000E+00  0.19782642561E+03  0.19782642561E+03  0.00000000000E+00 0. -1.
         21   -1    0    0  501  502 -0.00000000000E+00 -0.00000000000E+00 -0.43135714724E+03  0.43135714724E+03  0.00000000000E+00 0. -1.
         25    1    1    2    0    0 -0.30093423778E+02  0.12261014626E+03 -0.20436013429E+03  0.27078945069E+03  0.12500000000E+03 0.  0.
         25    1    1    2    0    0  0.37869195003E+01 -0.51743974863E+01  0.84447235776E+02  0.15098824715E+03  0.12500000000E+03 0.  0.
         25    1    1    2    0    0  0.26306504277E+02 -0.11743574877E+03 -0.11361782312E+03  0.20740587500E+03  0.12500000000E+03 0.  0.
</event>
<event>
 5    0  0.5619558E-005  0.1109163E+04  0.7546771E-02  0.9196307E-01
         21   -1    0    0  502  501  0.00000000000E+00  0.00000000000E+00  0.81238740029E+03  0.81238740029E+03  0.00000000000E+00 0.  1.
         21   -1    0    0  501  502 -0.00000000000E+00 -0.00000000000E+00 -0.15143548920E+04  0.15143548920E+04  0.00000000000E+00 0.  1.
         25    1    1    2    0    0  0.72092263782E+02  0.70036875338E+02 -0.76894915011E+03  0.78550000245E+03  0.12500000000E+03 0.  0.
         25    1    1    2    0    0  0.33622305262E+03 -0.70716611751E+02  0.69295394947E+03  0.78349024013E+03  0.12500000000E+03 0.  0.
         25    1    1    2    0    0 -0.40831531640E+03  0.67973641260E+00 -0.62597229106E+03  0.75775204970E+03  0.12500000000E+03 0.  0.
</event>
<event>
 5    0  0.5619558E-005  0.2582662E+03  0.7546771E-02  0.1108189E+00
         21   -1    0    0  502  501  0.00000000000E+00  0.00000000000E+00  0.57387234830E+02  0.57387234830E+02  0.00000000000E+00 0.  1.
         21   -1    0    0  501  502 -0.00000000000E+00 -0.00000000000E+00 -0.11623042932E+04  0.11623042932E+04  0.00000000000E+00 0.  1.
         25    1    1    2    0    0  0.37782150540E+02  0.11301189913E+03 -0.40136549618E+03  0.43694214922E+03  0.12500000000E+03 0.  0.
         25    1    1    2    0    0 -0.50816949905E+02 -0.15910401125E+03 -0.45105822927E+03  0.49696576842E+03  0.12500000000E+03 0.  0.
         25    1    1    2    0    0  0.13034799366E+02  0.46092112119E+02 -0.25249333295E+03  0.28578361041E+03  0.12500000000E+03 0.  0.
</event>
<event>
 5    0  0.5619558E-005  0.3056929E+03  0.7546771E-02  0.1082429E+00
         21   -1    0    0  502  501  0.00000000000E+00  0.00000000000E+00  0.65132213386E+03  0.65132213386E+03  0.00000000000E+00 0. -1.
         21   -1    0    0  501  502 -0.00000000000E+00 -0.00000000000E+00 -0.14347450927E+03  0.14347450927E+03  0.00000000000E+00 0. -1.
         25    1    1    2    0    0  0.43796843719E+02 -0.16095831245E+01  0.17399611268E+03  0.21867876327E+03  0.12500000000E+03 0.  0.
         25    1    1    2    0    0 -0.46209495551E+01  0.11031154847E+03  0.36661785328E+03  0.40276996070E+03  0.12500000000E+03 0.  0.
         25    1    1    2    0    0 -0.39175894164E+02 -0.10870196534E+03 -0.32766341358E+02  0.17334791917E+03  0.12500000000E+03 0.  0.
</event>
<event>
 5    0  0.5619558E-005  0.3228183E+03  0.7546771E-02  0.1074360E+00
         21   -1    0    0  502  501  0.00000000000E+00  0.00000000000E+00  0.67173134440E+03  0.67173134440E+03  0.00000000000E+00 0. -1.
         21   -1    0    0  501  502 -0.00000000000E+00 -0.00000000000E+00 -0.15513886901E+03  0.15513886901E+03  0.00000000000E+00 0. -1.
         25    1    1    2    0    0 -0.84450585917E+02 -0.45583080839E+02  0.93499803225E+02  0.18324009366E+03  0.12500000000E+03 0.  0.
         25    1    1    2    0    0  0.65116503937E+02 -0.93326370927E+02 -0.12245825756E+02  0.16948430855E+03  0.12500000000E+03 0.  0.
         25    1    1    2    0    0  0.19334081980E+02  0.13890945177E+03  0.43533849792E+03  0.47414581121E+03  0.12500000000E+03 0.  0.
</event>
<event>
 5    0  0.5619558E-005  0.3184353E+03  0.7546771E-02  0.1076372E+00
         21   -1    0    0  502  501  0.00000000000E+00  0.00000000000E+00  0.29360404614E+02  0.29360404614E+02  0.00000000000E+00 0. -1.
         21   -1    0    0  501  502 -0.00000000000E+00 -0.00000000000E+00 -0.34536661123E+04  0.34536661123E+04  0.00000000000E+00 0. -1.
         25    1    1    2    0    0  0.60344424636E+02 -0.55052691146E+02 -0.63220196392E+03  0.64959723797E+03  0.12500000000E+03 0.  0.
         25    1    1    2    0    0  0.60929530355E+02 -0.13557537431E+03 -0.17077106822E+04  0.17187186692E+04  0.12500000000E+03 0.  0.
         25    1    1    2    0    0 -0.12127395499E+03  0.19062806545E+03 -0.10843930616E+04  0.11147106098E+04  0.12500000000E+03 0.  0.
</event>
<event>
 5    0  0.5619558E-005  0.2728690E+03  0.7546771E-02  0.1099649E+00
         21   -1    0    0  502  501  0.00000000000E+00  0.00000000000E+00  0.77926569498E+03  0.77926569498E+03  0.00000000000E+00 0.  1.
         21   -1    0    0  501  502 -0.00000000000E+00 -0.00000000000E+00 -0.95548294419E+02  0.95548294419E+02  0.00000000000E+00 0.  1.
         25    1    1    2    0    0 -0.78901144704E+02 -0.73006691546E+02  0.18561558365E+03  0.24826097667E+03  0.12500000000E+03 0.  0.
         25    1    1    2    0    0  0.41862006337E+02  0.16186642668E+03  0.36343018546E+03  0.41911772495E+03  0.12500000000E+03 0.  0.
         25    1    1    2    0    0  0.37039138367E+02 -0.88859735129E+02  0.13467163145E+03  0.20743528778E+03  0.12500000000E+03 0.  0.
</event>
<event>
 5    0  0.5619558E-005  0.2405813E+03  0.7546771E-02  0.1119406E+00
         21   -1    0    0  502  501  0.00000000000E+00  0.00000000000E+00  0.45573338455E+03  0.45573338455E+03  0.00000000000E+00 0.  1.
         21   -1    0    0  501  502 -0.00000000000E+00 -0.00000000000E+00 -0.12700272660E+03  0.12700272660E+03  0.00000000000E+00 0.  1.
         25    1    1    2    0    0 -0.49989309224E+02  0.89101401465E+02  0.18911263282E+03  0.24864950970E+03  0.12500000000E+03 0.  0.
         25    1    1    2    0    0  0.12426285342E+02 -0.90388650899E+01  0.12948510155E+03  0.18063085332E+03  0.12500000000E+03 0.  0.
         25    1    1    2    0    0  0.37563023882E+02 -0.80062536375E+02  0.10132923585E+02  0.15345574813E+03  0.12500000000E+03 0.  0.
</event>
<event>
 5    0  0.5619558E-005  0.3894604E+03  0.7546771E-02  0.1047492E+00
         21   -1    0    0  502  501  0.00000000000E+00  0.00000000000E+00  0.10770071269E+04  0.10770071269E+04  0.00000000000E+00 0.  1.
         21   -1    0    0  501  502 -0.00000000000E+00 -0.00000000000E+00 -0.14083415999E+03  0.14083415999E+03  0.00000000000E+00 0.  1.
         25    1    1    2    0    0 -0.65032512805E+02 -0.32407852760E+02  0.52486978219E+02  0.15381605743E+03  0.12500000000E+03 0.  0.
         25    1    1    2    0    0  0.14242361503E+03  0.20250656969E+03  0.19357730949E+03  0.33821675244E+03  0.12500000000E+03 0.  0.
         25    1    1    2    0    0 -0.77391102222E+02 -0.17009871693E+03  0.69010867918E+03  0.72580847700E+03  0.12500000000E+03 0.  0.
</event>
<event>
 5    0  0.5619558E-005  0.3408001E+03  0.7546771E-02  0.1066456E+00
         21   -1    0    0  502  501  0.00000000000E+00  0.00000000000E+00  0.32298291205E+03  0.32298291205E+03  0.00000000000E+00 0.  1.
         21   -1    0    0  501  502 -0.00000000000E+00 -0.00000000000E+00 -0.35960013952E+03  0.35960013952E+03  0.00000000000E+00 0.  1.
         25    1    1    2    0    0 -0.24957214250E+03 -0.59352378671E+02 -0.64132422574E+02  0.29248406245E+03  0.12500000000E+03 0.  0.
         25    1    1    2    0    0  0.88402188772E+02  0.92465214011E+02 -0.13754655803E+02  0.17938493063E+03  0.12500000000E+03 0.  0.
         25    1    1    2    0    0  0.16116995373E+03 -0.33112835340E+02  0.41269850910E+02  0.21071405848E+03  0.12500000000E+03 0.  0.
</event>
<event>
 5    0  0.5619558E-005  0.3279332E+03  0.7546771E-02  0.1072055E+00
         21   -1    0    0  502  501  0.00000000000E+00  0.00000000000E+00  0.40291473237E+03  0.40291473237E+03  0.00000000000E+00 0. -1.
         21   -1    0    0  501  502 -0.00000000000E+00 -0.00000000000E+00 -0.26690564459E+03  0.26690564459E+03  0.00000000000E+00 0. -1.
         25    1    1    2    0    0 -0.17684675453E+03 -0.84211185222E+02 -0.99817509942E+02  0.25289292911E+03  0.12500000000E+03 0.  0.
         25    1    1    2    0    0  0.15445200092E+03  0.77118414595E+02  0.11837388700E+03  0.24380329691E+03  0.12500000000E+03 0.  0.
         25    1    1    2    0    0  0.22394753606E+02  0.70927706274E+01  0.11745271071E+03  0.17312415094E+03  0.12500000000E+03 0.  0.
</event>
<event>
 5    0  0.5619558E-005  0.3129677E+03  0.7546771E-02  0.1078932E+00
         21   -1    0    0  502  501  0.00000000000E+00  0.00000000000E+00  0.92743820670E+03  0.92743820670E+03  0.00000000000E+00 0. -1.
         21   -1    0    0  501  502 -0.00000000000E+00 -0.00000000000E+00 -0.10561222167E+03  0.10561222167E+03  0.00000000000E+00 0. -1.
         25    1    1    2    0    0  0.88047834110E+02  0.59841284967E+02  0.42235326416E+03  0.45314531910E+03  0.12500000000E+03 0.  0.
         25    1    1    2    0    0  0.68819033423E+02 -0.83297447330E+02  0.43853832466E+02  0.17094643230E+03  0.12500000000E+03 0.  0.
         25    1    1    2    0    0 -0.15686686753E+03  0.23456162363E+02  0.35561888841E+03  0.40895867698E+03  0.12500000000E+03 0.  0.
</event>
<event>
 5    0  0.5619558E-005  0.2583459E+03  0.7546771E-02  0.1108141E+00
         21   -1    0    0  502  501  0.00000000000E+00  0.00000000000E+00  0.37785949230E+03  0.37785949230E+03  0.00000000000E+00 0.  1.
         21   -1    0    0  501  502 -0.00000000000E+00 -0.00000000000E+00 -0.17663338517E+03  0.17663338517E+03  0.00000000000E+00 0.  1.
         25    1    1    2    0    0  0.52086217993E+02 -0.73908813752E+02  0.42000338411E+02  0.15988907180E+03  0.12500000000E+03 0.  0.
         25    1    1    2    0    0  0.44345303180E+02 -0.19686782008E+02 -0.22917121009E+02  0.13603040004E+03  0.12500000000E+03 0.  0.
         25    1    1    2    0    0 -0.96431521173E+02  0.93595595761E+02  0.18214288973E+03  0.25857340563E+03  0.12500000000E+03 0.  0.
</event>
<event>
 5    0  0.5619558E-005  0.2439732E+03  0.7546771E-02  0.1117174E+00
         21   -1    0    0  502  501  0.00000000000E+00  0.00000000000E+00  0.28030676026E+03  0.28030676026E+03  0.00000000000E+00 0.  1.
         21   -1    0    0  501  502 -0.00000000000E+00 -0.00000000000E+00 -0.21234928109E+03  0.21234928109E+03  0.00000000000E+00 0.  1.
         25    1    1    2    0    0  0.21320689985E+02  0.66544080404E+01 -0.72417096964E+02  0.14617827780E+03  0.12500000000E+03 0.  0.
         25    1    1    2    0    0 -0.48814569411E+01 -0.67232798556E+02 -0.84110260331E+01  0.14226673252E+03  0.12500000000E+03 0.  0.
         25    1    1    2    0    0 -0.16439233044E+02  0.60578390516E+02  0.14878560216E+03  0.20421103102E+03  0.12500000000E+03 0.  0.
</event>
<event>
 5    0  0.5619558E-005  0.2068723E+03  0.7546771E-02  0.1144067E+00
         21   -1    0    0  502  501  0.00000000000E+00  0.00000000000E+00  0.28633059028E+03  0.28633059028E+03  0.00000000000E+00 0.  1.
         21   -1    0    0  501  502 -0.00000000000E+00 -0.00000000000E+00 -0.14946409879E+03  0.14946409879E+03  0.00000000000E+00 0.  1.
         25    1    1    2    0    0  0.40243601085E+02  0.15593354657E+02 -0.95835765746E+01  0.13258787681E+03  0.12500000000E+03 0.  0.
         25    1    1    2    0    0 -0.32699804403E+02 -0.35575723222E+02  0.46885924428E+02  0.14197957318E+03  0.12500000000E+03 0.  0.
         25    1    1    2    0    0 -0.75437966824E+01  0.19982368565E+02  0.99564143643E+02  0.16122723908E+03  0.12500000000E+03 0.  0.
</event>
<event>
 5    0  0.5619558E-005  0.4030071E+03  0.7546771E-02  0.1042743E+00
         21   -1    0    0  502  501  0.00000000000E+00  0.00000000000E+00  0.36749137317E+03  0.36749137317E+03  0.00000000000E+00 0.  1.
         21   -1    0    0  501  502 -0.00000000000E+00 -0.00000000000E+00 -0.44195530540E+03  0.44195530540E+03  0.00000000000E+00 0.  1.
         25    1    1    2    0    0  0.33517658100E+02  0.76465612549E+01  0.15754319152E+03  0.20402637206E+03  0.12500000000E+03 0.  0.
         25    1    1    2    0    0  0.99390366300E+02 -0.16272475394E+02 -0.35199972822E+03  0.38687471750E+03  0.12500000000E+03 0.  0.
         25    1    1    2    0    0 -0.13290802440E+03  0.86259141394E+01  0.11999260448E+03  0.21854558901E+03  0.12500000000E+03 0.  0.
</event>
<event>
 5    0  0.5619558E-005  0.3389171E+03  0.7546771E-02  0.1067258E+00
         21   -1    0    0  502  501  0.00000000000E+00  0.00000000000E+00  0.11068678481E+03  0.11068678481E+03  0.00000000000E+00 0. -1.
         21   -1    0    0  501  502 -0.00000000000E+00 -0.00000000000E+00 -0.10377462970E+04  0.10377462970E+04  0.00000000000E+00 0. -1.
         25    1    1    2    0    0  0.79866746166E+02 -0.46908198920E+02  0.25398578598E+02  0.15763617625E+03  0.12500000000E+03 0.  0.
         25    1    1    2    0    0 -0.18409411259E+02  0.39571650665E+02 -0.50764999885E+03  0.52463162628E+03  0.12500000000E+03 0.  0.
         25    1    1    2    0    0 -0.61457334907E+02  0.73365482543E+01 -0.44480809189E+03  0.46616527924E+03  0.12500000000E+03 0.  0.
</event>
<event>
 5    0  0.5619558E-005  0.6164423E+03  0.7546771E-02  0.9871869E-01
         21   -1    0    0  502  501  0.00000000000E+00  0.00000000000E+00  0.60159646998E+03  0.60159646998E+03  0.00000000000E+00 0.  1.
         21   -1    0    0  501  502 -0.00000000000E+00 -0.00000000000E+00 -0.63165452785E+03  0.63165452785E+03  0.00000000000E+00 0.  1.
         25    1    1    2    0    0 -0.10008089305E+03  0.52253068094E+02 -0.15717174558E+03  0.23037909169E+03  0.12500000000E+03 0.  0.
         25    1    1    2    0    0 -0.30922447434E+02 -0.36979846942E+03 -0.26032041630E+03  0.47021146826E+03  0.12500000000E+03 0.  0.
         25    1    1    2    0    0  0.13100334049E+03  0.31754540132E+03  0.38743410402E+03  0.53266043787E+03  0.12500000000E+03 0.  0.
</event>
<event>
 5    0  0.6271938E-005  0.2881903E+03  0.7546771E-02  0.1091298E+00
         21   -1    0    0  502  501  0.00000000000E+00  0.00000000000E+00  0.44794457749E+03  0.44794457749E+03  0.00000000000E+00 0.  1.
         21   -1    0    0  501  502 -0.00000000000E+00 -0.00000000000E+00 -0.18541053396E+03  0.18541053396E+03  0.00000000000E+00 0.  1.
         25    1    1    2    0    0 -0.63728977746E+02  0.12947586299E+02 -0.49477625815E+02  0.14933873594E+03  0.12500000000E+03 0.  0.
         25    1    1    2    0    0 -0.40208045515E+02 -0.10818245360E+03  0.88780739438E+02  0.19190401217E+03  0.12500000000E+03 0.  0.
         25    1    1    2    0    0  0.10393702326E+03  0.95234867300E+02  0.22323092990E+03  0.29211236335E+03  0.12500000000E+03 0.  0.
</event>
<event>
 5    0  0.5619558E-005  0.2807779E+03  0.7546771E-02  0.1095265E+00
         21   -1    0    0  502  501  0.00000000000E+00  0.00000000000E+00  0.10519781276E+03  0.10519781276E+03  0.00000000000E+00 0.  1.
         21   -1    0    0  501  502 -0.00000000000E+00 -0.00000000000E+00 -0.74940949671E+03  0.74940949671E+03  0.00000000000E+00 0.  1.
         25    1    1    2    0    0 -0.10284023673E+03 -0.35498082427E+02 -0.15847695473E+03  0.22929494832E+03  0.12500000000E+03 0.  0.
         25    1    1    2    0    0 -0.69969998154E+02 -0.36387712563E+02 -0.29636345260E+03  0.33117391550E+03  0.12500000000E+03 0.  0.
         25    1    1    2    0    0  0.17281023488E+03  0.71885794990E+02 -0.18937127662E+03  0.29413844565E+03  0.12500000000E+03 0.  0.
</event>
<event>
 5    0  0.5619558E-005  0.4224883E+03  0.7546771E-02  0.1036259E+00
         21   -1    0    0  502  501  0.00000000000E+00  0.00000000000E+00  0.15439388369E+03  0.15439388369E+03  0.00000000000E+00 0. -1.
         21   -1    0    0  501  502 -0.00000000000E+00 -0.00000000000E+00 -0.11561103089E+04  0.11561103089E+04  0.00000000000E+00 0. -1.
         25    1    1    2    0    0  0.82993892030E+02 -0.45818744296E+02 -0.52934627328E+02  0.16557299965E+03  0.12500000000E+03 0.  0.
         25    1    1    2    0    0  0.92661477305E+02 -0.13005752165E+03 -0.80809717392E+03  0.83315493806E+03  0.12500000000E+03 0.  0.
         25    1    1    2    0    0 -0.17565536934E+03  0.17587626594E+03 -0.14068462399E+03  0.31177625491E+03  0.12500000000E+03 0.  0.
</event>
<event>
 5    0  0.5619558E-005  0.2827732E+03  0.7546771E-02  0.1094184E+00
         21   -1    0    0  502  501  0.00000000000E+00  0.00000000000E+00  0.16507972233E+03  0.16507972233E+03  0.00000000000E+00 0. -1.
         21   -1    0    0  501  502 -0.00000000000E+00 -0.00000000000E+00 -0.48437632943E+03  0.48437632943E+03  0.00000000000E+00 0. -1.
         25    1    1    2    0    0 -0.12563684887E+02 -0.75331658902E+02 -0.51870052814E+02  0.15539693494E+03  0.12500000000E+03 0.  0.
         25    1    1    2    0    0 -0.64330130360E+02  0.15203991436E+03 -0.37080941142E+02  0.21036752940E+03  0.12500000000E+03 0.  0.
         25    1    1    2    0    0  0.76893815247E+02 -0.76708255453E+02 -0.23034561315E+03  0.28369158742E+03  0.12500000000E+03 0.  0.
</event>
<event>
 5    0  0.5619558E-005  0.2353333E+03  0.7546771E-02  0.1122941E+00
         21   -1    0    0  502  501  0.00000000000E+00  0.00000000000E+00  0.94235475585E+02  0.94235475585E+02  0.00000000000E+00 0. -1.
         21   -1    0    0  501  502 -0.00000000000E+00 -0.00000000000E+00 -0.58769524246E+03  0.58769524246E+03  0.00000000000E+00 0. -1.
         25    1    1    2    0    0 -0.29400424845E+01 -0.46404283526E+02 -0.34318511464E+03  0.36818884324E+03  0.12500000000E+03 0.  0.
         25    1    1    2    0    0 -0.39106278003E+01  0.71070108974E+02 -0.53005157240E+02  0.15329970676E+03  0.12500000000E+03 0.  0.
         25    1    1    2    0    0  0.68506702848E+01 -0.24665825448E+02 -0.97269494997E+02  0.16044216804E+03  0.12500000000E+03 0.  0.
</event>
<event>
 5    0  0.5619558E-005  0.2444413E+03  0.7546771E-02  0.1116869E+00
         21   -1    0    0  502  501  0.00000000000E+00  0.00000000000E+00  0.47977783003E+02  0.47977783003E+02  0.00000000000E+00 0. -1.
         21   -1    0    0  501  502 -0.00000000000E+00 -0.00000000000E+00 -0.12453999138E+04  0.12453999138E+04  0.00000000000E+00 0. -1.
         25    1    1    2    0    0  0.22928570515E+02 -0.35165189986E+02 -0.20210133815E+03  0.24131361506E+03  0.12500000000E+03 0.  0.
         25    1    1    2    0    0  0.17647440029E+02  0.10478162469E+03 -0.72702586080E+03  0.74530679809E+03  0.12500000000E+03 0.  0.
         25    1    1    2    0    0 -0.40576010544E+02 -0.69616434705E+02 -0.26829493181E+03  0.30675728361E+03  0.12500000000E+03 0.  0.
</event>
<event>
 5    0  0.5619558E-005  0.5602091E+03  0.7546771E-02  0.9991582E-01
         21   -1    0    0  502  501  0.00000000000E+00  0.00000000000E+00  0.13415538530E+03  0.13415538530E+03  0.00000000000E+00 0.  1.
         21   -1    0    0  501  502 -0.00000000000E+00 -0.00000000000E+00 -0.23393336393E+04  0.23393336393E+04  0.00000000000E+00 0.  1.
         25    1    1    2    0    0 -0.48461065115E+02  0.26284782745E+03 -0.24278872704E+03  0.38211100639E+03  0.12500000000E+03 0.  0.
         25    1    1    2    0    0  0.63260444630E+00 -0.12284821446E+03 -0.18674912601E+04  0.18756973878E+04  0.12500000000E+03 0.  0.
         25    1    1    2    0    0  0.47828460669E+02 -0.13999961298E+03 -0.94898266846E+02  0.21568063042E+03  0.12500000000E+03 0.  0.
</event>
<event>
 5    0  0.5619558E-005  0.2963638E+03  0.7546771E-02  0.1087073E+00
         21   -1    0    0  502  501  0.00000000000E+00  0.00000000000E+00  0.23170047641E+02  0.23170047641E+02  0.00000000000E+00 0.  1.
         21   -1    0    0  501  502 -0.00000000000E+00 -0.00000000000E+00 -0.37907352451E+04  0.37907352451E+04  0.00000000000E+00 0.  1.
         25    1    1    2    0    0  0.36240947345E+02  0.18269270018E+03 -0.15467326069E+04  0.15629129171E+04  0.12500000000E+03 0.  0.
         25    1    1    2    0    0 -0.76937535365E+02 -0.14479258885E+03 -0.17013059522E+04  0.17137535474E+04  0.12500000000E+03 0.  0.
         25    1    1    2    0    0  0.40696588020E+02 -0.37900111322E+02 -0.51952663836E+03  0.53723882835E+03  0.12500000000E+03 0.  0.
</event>
<event>
 5    0  0.5619558E-005  0.2971217E+03  0.7546771E-02  0.1086688E+00
         21   -1    0    0  502  501  0.00000000000E+00  0.00000000000E+00  0.50248364519E+02  0.50248364519E+02  0.00000000000E+00 0. -1.
         21   -1    0    0  501  502 -0.00000000000E+00 -0.00000000000E+00 -0.17568992391E+04  0.17568992391E+04  0.00000000000E+00 0. -1.
         25    1    1    2    0    0  0.10477287248E+03 -0.30314848059E+02 -0.54467804779E+03  0.56938170024E+03  0.12500000000E+03 0.  0.
         25    1    1    2    0    0 -0.82122206649E+02  0.10247200698E+02 -0.13185095073E+03  0.19964652553E+03  0.12500000000E+03 0.  0.
         25    1    1    2    0    0 -0.22650665830E+02  0.20067647361E+02 -0.10301218760E+04  0.10381193778E+04  0.12500000000E+03 0.  0.
</event>
<event>
 5    0  0.5619558E-005  0.3488558E+03  0.7546771E-02  0.1063086E+00
         21   -1    0    0  502  501  0.00000000000E+00  0.00000000000E+00  0.30278256380E+03  0.30278256380E+03  0.00000000000E+00 0. -1.
         21   -1    0    0  501  502 -0.00000000000E+00 -0.00000000000E+00 -0.40193977818E+03  0.40193977818E+03  0.00000000000E+00 0. -1.
         25    1    1    2    0    0 -0.20290323091E+02 -0.12792486946E+03 -0.51182651653E+02  0.18713934185E+03  0.12500000000E+03 0.  0.
         25    1    1    2    0    0  0.88680031282E+02 -0.12395674375E+03  0.64060068192E+02  0.20726339427E+03  0.12500000000E+03 0.  0.
         25    1    1    2    0    0 -0.68389708191E+02  0.25188161321E+03 -0.11203463092E+03  0.31031960586E+03  0.12500000000E+03 0.  0.
</event>
<event>
 5    0  0.5619558E-005  0.3078042E+03  0.7546771E-02  0.1081403E+00
         21   -1    0    0  502  501  0.00000000000E+00  0.00000000000E+00  0.66898208736E+03  0.66898208736E+03  0.00000000000E+00 0.  1.
         21   -1    0    0  501  502 -0.00000000000E+00 -0.00000000000E+00 -0.14162323219E+03  0.14162323219E+03  0.00000000000E+00 0.  1.
         25    1    1    2    0    0  0.11271332535E+03  0.41031178624E+02  0.46970593196E+00  0.17324281213E+03  0.12500000000E+03 0.  0.
         25    1    1    2    0    0 -0.84256765218E+02 -0.13270920503E+03  0.30549722200E+03  0.36560154299E+03  0.12500000000E+03 0.  0.
         25    1    1    2    0    0 -0.28456560135E+02  0.91678026402E+02  0.22139192724E+03  0.27176096443E+03  0.12500000000E+03 0.  0.
</event>
<event>
 5    0  0.5619558E-005  0.3085492E+03  0.7546771E-02  0.1081043E+00
         21   -1    0    0  502  501  0.00000000000E+00  0.00000000000E+00  0.12650645847E+04  0.12650645847E+04  0.00000000000E+00 0.  1.
         21   -1    0    0  501  502 -0.00000000000E+00 -0.00000000000E+00 -0.75255133029E+02  0.75255133029E+02  0.00000000000E+00 0.  1.
         25    1    1    2    0    0 -0.16481604190E+02  0.10489687374E+02  0.65808557117E+03  0.67013677395E+03  0.12500000000E+03 0.  0.
         25    1    1    2    0    0 -0.36781340786E+02 -0.50455185884E+02  0.50764084570E+03  0.52651953528E+03  0.12500000000E+03 0.  0.
         25    1    1    2    0    0  0.53262944976E+02  0.39965498510E+02  0.24083034816E+02  0.14366340851E+03  0.12500000000E+03 0.  0.
</event>
<event>
 5    0  0.5619558E-005  0.4685728E+03  0.7546771E-02  0.1022324E+00
         21   -1    0    0  502  501  0.00000000000E+00  0.00000000000E+00  0.38602698512E+03  0.38602698512E+03  0.00000000000E+00 0.  1.
         21   -1    0    0  501  502 -0.00000000000E+00 -0.00000000000E+00 -0.56876979717E+03  0.56876979717E+03  0.00000000000E+00 0.  1.
         25    1    1    2    0    0 -0.24153241463E+03  0.21090189448E+03  0.10725792223E+02  0.34432188288E+03  0.12500000000E+03 0.  0.
         25    1    1    2    0    0  0.27466310470E+03 -0.11850547268E+03 -0.28099916121E+03  0.42903251245E+03  0.12500000000E+03 0.  0.
         25    1    1    2    0    0 -0.33130690077E+02 -0.92396421799E+02  0.87530556932E+02  0.18144238695E+03  0.12500000000E+03 0.  0.
</event>
<event>
 5    0  0.5619558E-005  0.2264428E+03  0.7546771E-02  0.1129169E+00
         21   -1    0    0  502  501  0.00000000000E+00  0.00000000000E+00  0.10182316256E+04  0.10182316256E+04  0.00000000000E+00 0.  1.
         21   -1    0    0  501  502 -0.00000000000E+00 -0.00000000000E+00 -0.50358242714E+02  0.50358242714E+02  0.00000000000E+00 0.  1.
         25    1    1    2    0    0 -0.34572200789E+02 -0.78971315136E+02  0.36250635342E+03  0.39302361500E+03  0.12500000000E+03 0.  0.
         25    1    1    2    0    0  0.46829607356E+02 -0.21322622081E+02  0.22270820104E+03  0.26052180168E+03  0.12500000000E+03 0.  0.
         25    1    1    2    0    0 -0.12257406567E+02  0.10029393722E+03  0.38265882839E+03  0.41504445160E+03  0.12500000000E+03 0.  0.
</event>
<event>
 5    0  0.5619558E-005  0.2748077E+03  0.7546771E-02  0.1098559E+00
         21   -1    0    0  502  501  0.00000000000E+00  0.00000000000E+00  0.44286422744E+02  0.44286422744E+02  0.00000000000E+00 0.  1.
         21   -1    0    0  501  502 -0.00000000000E+00 -0.00000000000E+00 -0.17052460593E+04  0.17052460593E+04  0.00000000000E+00 0.  1.
         25    1    1    2    0    0 -0.28721014850E+02 -0.11723111151E+03 -0.75359945267E+03  0.77337259148E+03  0.12500000000E+03 0.  0.
         25    1    1    2    0    0 -0.39773471084E+02  0.16019026677E+03 -0.59835647792E+03  0.63316532220E+03  0.12500000000E+03 0.  0.
         25    1    1    2    0    0  0.68494485934E+02 -0.42959155264E+02 -0.30900370602E+03  0.34299456841E+03  0.12500000000E+03 0.  0.
</event>
<event>
 5    0  0.5619558E-005  0.4226681E+03  0.7546771E-02  0.1036201E+00
         21   -1    0    0  502  501  0.00000000000E+00  0.00000000000E+00  0.18442422304E+03  0.18442422304E+03  0.00000000000E+00 0.  1.
         21   -1    0    0  501  502 -0.00000000000E+00 -0.00000000000E+00 -0.96868144805E+03  0.96868144805E+03  0.00000000000E+00 0.  1.
         25    1    1    2    0    0  0.47079895741E+02  0.77132503113E+02 -0.12422328737E+03  0.19804637019E+03  0.12500000000E+03 0.  0.
         25    1    1    2    0    0  0.27989275400E+02 -0.30560695342E+03 -0.58746284214E+03  0.67447505544E+03  0.12500000000E+03 0.  0.
         25    1    1    2    0    0 -0.75069171141E+02  0.22847445031E+03 -0.72571095495E+02  0.28058424546E+03  0.12500000000E+03 0.  0.
</event>
<event>
 5    0  0.5619558E-005  0.4680545E+03  0.7546771E-02  0.1022471E+00
         21   -1    0    0  502  501  0.00000000000E+00  0.00000000000E+00  0.87479848530E+03  0.87479848530E+03  0.00000000000E+00 0.  1.
         21   -1    0    0  501  502 -0.00000000000E+00 -0.00000000000E+00 -0.25042908974E+03  0.25042908974E+03  0.00000000000E+00 0.  1.
         25    1    1    2    0    0  0.13908070247E+03 -0.13535131407E+03  0.43398890881E+03  0.49156362049E+03  0.12500000000E+03 0.  0.
         25    1    1    2    0    0  0.17906765608E+03  0.49385902237E+02  0.16905669780E+03  0.28055188445E+03  0.12500000000E+03 0.  0.
         25    1    1    2    0    0 -0.31814835855E+03  0.85965411834E+02  0.21323788940E+02  0.35311207011E+03  0.12500000000E+03 0.  0.
</event>
<event>
 5    0  0.5619558E-005  0.3033239E+03  0.7546771E-02  0.1083591E+00
         21   -1    0    0  502  501  0.00000000000E+00  0.00000000000E+00  0.11092740564E+04  0.11092740564E+04  0.00000000000E+00 0. -1.
         21   -1    0    0  501  502 -0.00000000000E+00 -0.00000000000E+00 -0.82941974800E+02  0.82941974800E+02  0.00000000000E+00 0.  1.
         25    1    1    2    0    0 -0.11035541320E+03 -0.12688879890E+03  0.18676455173E+03  0.28068680462E+03  0.12500000000E+03 0.  0.
         25    1    1    2    0    0  0.90690359227E+02  0.15239927734E+03  0.42267621623E+03  0.47511100256E+03  0.12500000000E+03 0.  0.
         25    1    1    2    0    0  0.19665053976E+02 -0.25510478440E+02  0.41689131361E+03  0.43641822398E+03  0.12500000000E+03 0.  0.
</event>
<event>
 5    0  0.5619558E-005  0.3491663E+03  0.7546771E-02  0.1062958E+00
         21   -1    0    0  502  501  0.00000000000E+00  0.00000000000E+00  0.69037025382E+03  0.69037025382E+03  0.00000000000E+00 0.  1.
         21   -1    0    0  501  502 -0.00000000000E+00 -0.00000000000E+00 -0.17659671533E+03  0.17659671533E+03  0.00000000000E+00 0.  1.
         25    1    1    2    0    0 -0.10436782171E+02 -0.12305453312E+03  0.10126838619E+02  0.17600823107E+03  0.12500000000E+03 0.  0.
         25    1    1    2    0    0 -0.17794914723E+03  0.80193287004E+02  0.32724354261E+03  0.40101146924E+03  0.12500000000E+03 0.  0.
         25    1    1    2    0    0  0.18838592940E+03  0.42861246120E+02  0.17640315726E+03  0.28994726884E+03  0.12500000000E+03 0.  0.
</event>
<event>
 5    0  0.5619558E-005  0.4021583E+03  0.7546771E-02  0.1043035E+00
         21   -1    0    0  502  501  0.00000000000E+00  0.00000000000E+00  0.77642652550E+02  0.77642652550E+02  0.00000000000E+00 0. -1.
         21   -1    0    0  501  502 -0.00000000000E+00 -0.00000000000E+00 -0.20830211670E+04  0.20830211670E+04  0.00000000000E+00 0. -1.
         25    1    1    2    0    0 -0.16126365217E+03 -0.20350151792E+03 -0.43156822336E+03  0.51893637829E+03  0.12500000000E+03 0.  0.
         25    1    1    2    0    0  0.98777619730E+01  0.10055862006E+03 -0.23512748849E+03  0.28481492603E+03  0.12500000000E+03 0.  0.
         25    1    1    2    0    0  0.15138589019E+03  0.10294289787E+03 -0.13386828027E+04  0.13569125153E+04  0.12500000000E+03 0.  0.
</event>
<event>
 5    0  0.5619558E-005  0.2953971E+03  0.7546771E-02  0.1087564E+00
         21   -1    0    0  502  501  0.00000000000E+00  0.00000000000E+00  0.52545145249E+03  0.52545145249E+03  0.00000000000E+00 0. -1.
         21   -1    0    0  501  502 -0.00000000000E+00 -0.00000000000E+00 -0.16606561534E+03  0.16606561534E+03  0.00000000000E+00 0. -1.
         25    1    1    2    0    0 -0.90902771982E+01  0.13169518910E+03  0.10821195609E+03  0.21156815311E+03  0.12500000000E+03 0.  0.
         25    1    1    2    0    0  0.13342679980E+03  0.73362587115E+01  0.92673269967E+02  0.20510940145E+03  0.12500000000E+03 0.  0.
         25    1    1    2    0    0 -0.12433652260E+03 -0.13903144781E+03  0.15850061110E+03  0.27483951327E+03  0.12500000000E+03 0.  0.
</event>
<event>
 5    0  0.5619558E-005  0.2222166E+03  0.7546771E-02  0.1132241E+00
         21   -1    0    0  502  501  0.00000000000E+00  0.00000000000E+00  0.81571122335E+02  0.81571122335E+02  0.00000000000E+00 0. -1.
         21   -1    0    0  501  502 -0.00000000000E+00 -0.00000000000E+00 -0.60536381865E+03  0.60536381865E+03  0.00000000000E+00 0. -1.
         25    1    1    2    0    0 -0.32722994239E+02 -0.42697131914E+02 -0.28575600047E+03  0.31650486762E+03  0.12500000000E+03 0.  0.
         25    1    1    2    0    0  0.36449491858E+02  0.49600052856E+02 -0.19148512743E+03  0.23681276301E+03  0.12500000000E+03 0.  0.
         25    1    1    2    0    0 -0.37264976183E+01 -0.69029209415E+01 -0.46551568418E+02  0.13361731035E+03  0.12500000000E+03 0.  0.
</event>
<event>
 5    0  0.5619558E-005  0.3228198E+03  0.7546771E-02  0.1074359E+00
         21   -1    0    0  502  501  0.00000000000E+00  0.00000000000E+00  0.45841558194E+03  0.45841558194E+03  0.00000000000E+00 0.  1.
         21   -1    0    0  501  502 -0.00000000000E+00 -0.00000000000E+00 -0.22733221675E+03  0.22733221675E+03  0.00000000000E+00 0.  1.
         25    1    1    2    0    0  0.24038589399E+01 -0.22302156976E+03  0.58297597747E+02  0.26223655165E+03  0.12500000000E+03 0.  0.
         25    1    1    2    0    0  0.23340973927E+02 -0.12633440006E+01  0.74444076141E+02  0.14735439449E+03  0.12500000000E+03 0.  0.
         25    1    1    2    0    0 -0.25744832867E+02  0.22428491376E+03  0.98341691306E+02  0.27615685255E+03  0.12500000000E+03 0.  0.
</event>
<event>
 5    0  0.5619558E-005  0.2445316E+03  0.7546771E-02  0.1116810E+00
         21   -1    0    0  502  501  0.00000000000E+00  0.00000000000E+00  0.14014126003E+03  0.14014126003E+03  0.00000000000E+00 0. -1.
         21   -1    0    0  501  502 -0.00000000000E+00 -0.00000000000E+00 -0.42668172530E+03  0.42668172530E+03  0.00000000000E+00 0. -1.
         25    1    1    2    0    0  0.62875176945E+02 -0.71924396634E+01  0.30187831147E+02  0.14332244839E+03  0.12500000000E+03 0.  0.
         25    1    1    2    0    0 -0.43082130309E+02 -0.17333970075E+02 -0.84426611319E+02  0.15782708630E+03  0.12500000000E+03 0.  0.
         25    1    1    2    0    0 -0.19793046636E+02  0.24526409738E+02 -0.23230168510E+03  0.26567345063E+03  0.12500000000E+03 0.  0.
</event>
<event>
 5    0  0.5619558E-005  0.2598278E+03  0.7546771E-02  0.1107247E+00
         21   -1    0    0  502  501  0.00000000000E+00  0.00000000000E+00  0.82152125220E+02  0.82152125220E+02  0.00000000000E+00 0.  1.
         21   -1    0    0  501  502 -0.00000000000E+00 -0.00000000000E+00 -0.82177413900E+03  0.82177413900E+03  0.00000000000E+00 0.  1.
         25    1    1    2    0    0  0.12949463262E+03 -0.17647249243E+02 -0.47276539592E+03  0.50617428309E+03  0.12500000000E+03 0.  0.
         25    1    1    2    0    0 -0.10803816187E+03  0.28199598676E+02 -0.14728099553E+03  0.22312362813E+03  0.12500000000E+03 0.  0.
         25    1    1    2    0    0 -0.21456470749E+02 -0.10552349433E+02 -0.11957562233E+03  0.17462835300E+03  0.12500000000E+03 0.  0.
</event>
<event>
 5    0  0.5619558E-005  0.2250937E+03  0.7546771E-02  0.1130141E+00
         21   -1    0    0  502  501  0.00000000000E+00  0.00000000000E+00  0.37613076455E+03  0.37613076455E+03  0.00000000000E+00 0.  1.
         21   -1    0    0  501  502 -0.00000000000E+00 -0.00000000000E+00 -0.13470626478E+03  0.13470626478E+03  0.00000000000E+00 0.  1.
         25    1    1    2    0    0  0.79805523731E+02 -0.37722520029E+02  0.54545895531E+02  0.16245665531E+03  0.12500000000E+03 0.  0.
         25    1    1    2    0    0 -0.53589690665E+02 -0.32459851214E+02  0.13309360793E+03  0.19303990613E+03  0.12500000000E+03 0.  0.
         25    1    1    2    0    0 -0.26215833065E+02  0.70182371242E+02  0.53784996316E+02  0.15534046789E+03  0.12500000000E+03 0.  0.
</event>
<event>
 5    0  0.5619558E-005  0.2904753E+03  0.7546771E-02  0.1090101E+00
         21   -1    0    0  502  501  0.00000000000E+00  0.00000000000E+00  0.19819152415E+03  0.19819152415E+03  0.00000000000E+00 0.  1.
         21   -1    0    0  501  502 -0.00000000000E+00 -0.00000000000E+00 -0.42572917123E+03  0.42572917123E+03  0.00000000000E+00 0.  1.
         25    1    1    2    0    0  0.63776055876E+01  0.80147677797E+02 -0.23959225622E+00  0.14862496935E+03  0.12500000000E+03 0.  0.
         25    1    1    2    0    0 -0.10204014276E+03  0.57108757793E+02 -0.20224325531E+03  0.26495459095E+03  0.12500000000E+03 0.  0.
         25    1    1    2    0    0  0.95662537169E+02 -0.13725643559E+03 -0.25054799524E+02  0.21034113508E+03  0.12500000000E+03 0.  0.
</event>
<event>
 5    0  0.5619558E-005  0.3826216E+03  0.7546771E-02  0.1049969E+00
         21   -1    0    0  502  501  0.00000000000E+00  0.00000000000E+00  0.61615673692E+03  0.61615673692E+03  0.00000000000E+00 0.  1.
         21   -1    0    0  501  502 -0.00000000000E+00 -0.00000000000E+00 -0.23760072537E+03  0.23760072537E+03  0.00000000000E+00 0.  1.
         25    1    1    2    0    0 -0.10674543078E+03 -0.50857624207E+02 -0.88771176829E+00  0.17206647833E+03  0.12500000000E+03 0.  0.
         25    1    1    2    0    0 -0.48157888356E+02  0.18990019266E+03  0.14060956420E+01  0.23239673510E+03  0.12500000000E+03 0.  0.
         25    1    1    2    0    0  0.15490331913E+03 -0.13904256845E+03  0.37803762768E+03  0.44929424886E+03  0.12500000000E+03 0.  0.
</event>
<event>
 5    0  0.5619558E-005  0.3872286E+03  0.7546771E-02  0.1048294E+00
         21   -1    0    0  502  501  0.00000000000E+00  0.00000000000E+00  0.28458186918E+04  0.28458186918E+04  0.00000000000E+00 0.  1.
         21   -1    0    0  501  502 -0.00000000000E+00 -0.00000000000E+00 -0.52689938028E+02  0.52689938028E+02  0.00000000000E+00 0.  1.
         25    1    1    2    0    0  0.31001821222E+02  0.19642178051E+02  0.50158030034E+03  0.51822266041E+03  0.12500000000E+03 0.  0.
         25    1    1    2    0    0  0.42205310596E+02 -0.10666055723E+03  0.13416362500E+03  0.21629295177E+03  0.12500000000E+03 0.  0.
         25    1    1    2    0    0 -0.73207131818E+02  0.87018379183E+02  0.21573848284E+04  0.21639930176E+04  0.12500000000E+03 0.  0.
</event>
<event>
 5    0  0.5619558E-005  0.2759903E+03  0.7546771E-02  0.1097899E+00
         21   -1    0    0  502  501  0.00000000000E+00  0.00000000000E+00  0.10758516673E+04  0.10758516673E+04  0.00000000000E+00 0.  1.
         21   -1    0    0  501  502 -0.00000000000E+00 -0.00000000000E+00 -0.70800338790E+02  0.70800338790E+02  0.00000000000E+00 0.  1.
         25    1    1    2    0    0  0.12263582980E+03 -0.10020612541E+03  0.24347246283E+03  0.31620350168E+03  0.12500000000E+03 0.  0.
         25    1    1    2    0    0 -0.62754053572E+02 -0.20296981429E+01  0.20772173292E+03  0.25043064757E+03  0.12500000000E+03 0.  0.
         25    1    1    2    0    0 -0.59881776224E+02  0.10223582356E+03  0.55385713281E+03  0.58001785688E+03  0.12500000000E+03 0.  0.
</event>
<event>
 5    0  0.5619558E-005  0.3220939E+03  0.7546771E-02  0.1074690E+00
         21   -1    0    0  502  501  0.00000000000E+00  0.00000000000E+00  0.74219775255E+03  0.74219775255E+03  0.00000000000E+00 0. -1.
         21   -1    0    0  501  502 -0.00000000000E+00 -0.00000000000E+00 -0.13978010798E+03  0.13978010798E+03  0.00000000000E+00 0. -1.
         25    1    1    2    0    0  0.29710581114E+02 -0.41772011994E+02  0.17167859569E+03  0.21846317730E+03  0.12500000000E+03 0.  0.
         25    1    1    2    0    0 -0.10571553530E+03  0.12172634287E+03  0.45155864614E+03  0.49550306543E+03  0.12500000000E+03 0.  0.
         25    1    1    2    0    0  0.76004954186E+02 -0.79954330873E+02 -0.20819597259E+02  0.16801161780E+03  0.12500000000E+03 0.  0.
</event>
<event>
 5    0  0.5619558E-005  0.2857387E+03  0.7546771E-02  0.1092595E+00
         21   -1    0    0  502  501  0.00000000000E+00  0.00000000000E+00  0.63638808083E+02  0.63638808083E+02  0.00000000000E+00 0. -1.
         21   -1    0    0  501  502 -0.00000000000E+00 -0.00000000000E+00 -0.12829689605E+04  0.12829689605E+04  0.00000000000E+00 0. -1.
         25    1    1    2    0    0 -0.59347006622E+02 -0.76112514880E+02 -0.30794957099E+03  0.34608253407E+03  0.12500000000E+03 0.  0.
         25    1    1    2    0    0 -0.11195224320E+03 -0.15352450706E+02 -0.26407806695E+03  0.31325904288E+03  0.12500000000E+03 0.  0.
         25    1    1    2    0    0  0.17129924982E+03  0.91464965586E+02 -0.64730251450E+03  0.68726619166E+03  0.12500000000E+03 0.  0.
</event>
<event>
 5    0  0.5619558E-005  0.3137052E+03  0.7546771E-02  0.1078583E+00
         21   -1    0    0  502  501  0.00000000000E+00  0.00000000000E+00  0.54713995767E+03  0.54713995767E+03  0.00000000000E+00 0. -1.
         21   -1    0    0  501  502 -0.00000000000E+00 -0.00000000000E+00 -0.17986428672E+03  0.17986428672E+03  0.00000000000E+00 0. -1.
         25    1    1    2    0    0  0.93397833458E+02  0.11190613932E+03 -0.63023183352E+01  0.19212198866E+03  0.12500000000E+03 0.  0.
         25    1    1    2    0    0 -0.29761748595E+01  0.18635133053E+02  0.20514258714E+02  0.12807013942E+03  0.12500000000E+03 0.  0.
         25    1    1    2    0    0 -0.90421658598E+02 -0.13054127237E+03  0.35306373057E+03  0.40681211631E+03  0.12500000000E+03 0.  0.
</event>
<event>
 5    0  0.5619558E-005  0.3338647E+03  0.7546771E-02  0.1069440E+00
         21   -1    0    0  502  501  0.00000000000E+00  0.00000000000E+00  0.92604848499E+02  0.92604848499E+02  0.00000000000E+00 0.  1.
         21   -1    0    0  501  502 -0.00000000000E+00 -0.00000000000E+00 -0.12036697864E+04  0.12036697864E+04  0.00000000000E+00 0.  1.
         25    1    1    2    0    0 -0.10435328668E+03  0.61051017115E+02 -0.17821651347E+03  0.24900393733E+03  0.12500000000E+03 0.  0.
         25    1    1    2    0    0  0.19731199879E+03 -0.16557753270E+02 -0.81218508727E+03  0.84526670350E+03  0.12500000000E+03 0.  0.
         25    1    1    2    0    0 -0.92958712105E+02 -0.44493263844E+02 -0.12066333715E+03  0.20200399406E+03  0.12500000000E+03 0.  0.
</event>
<event>
 5    0  0.5619558E-005  0.4273702E+03  0.7546771E-02  0.1034694E+00
         21   -1    0    0  502  501  0.00000000000E+00  0.00000000000E+00  0.79508031945E+03  0.79508031945E+03  0.00000000000E+00 0. -1.
         21   -1    0    0  501  502 -0.00000000000E+00 -0.00000000000E+00 -0.22971931707E+03  0.22971931707E+03  0.00000000000E+00 0. -1.
         25    1    1    2    0    0 -0.10336816172E+03  0.36396975896E+02  0.13214686795E+03  0.21236174660E+03  0.12500000000E+03 0.  0.
         25    1    1    2    0    0 -0.12134166574E+03  0.52799901280E+02 -0.10440631981E+03  0.20985068272E+03  0.12500000000E+03 0.  0.
         25    1    1    2    0    0  0.22470982746E+03 -0.89196877176E+02  0.53762045424E+03  0.60258720719E+03  0.12500000000E+03 0.  0.
</event>
<event>
 5    0  0.5619558E-005  0.2201246E+03  0.7546771E-02  0.1133790E+00
         21   -1    0    0  502  501  0.00000000000E+00  0.00000000000E+00  0.12056979190E+03  0.12056979190E+03  0.00000000000E+00 0. -1.
         21   -1    0    0  501  502 -0.00000000000E+00 -0.00000000000E+00 -0.40188207274E+03  0.40188207274E+03  0.00000000000E+00 0. -1.
         25    1    1    2    0    0  0.49236229591E+02  0.77661786393E+02 -0.11402124484E+03  0.19256532306E+03  0.12500000000E+03 0.  0.
         25    1    1    2    0    0 -0.10897284224E+02  0.10706854197E+02 -0.84767416874E+02  0.15180218211E+03  0.12500000000E+03 0.  0.
         25    1    1    2    0    0 -0.38338945367E+02 -0.88368640589E+02 -0.82523619126E+02  0.17808435946E+03  0.12500000000E+03 0.  0.
</event>
<event>
 5    0  0.5619558E-005  0.3807496E+03  0.7546771E-02  0.1050657E+00
         21   -1    0    0  502  501  0.00000000000E+00  0.00000000000E+00  0.53501019156E+03  0.53501019156E+03  0.00000000000E+00 0.  1.
         21   -1    0    0  501  502 -0.00000000000E+00 -0.00000000000E+00 -0.27096722283E+03  0.27096722283E+03  0.00000000000E+00 0.  1.
         25    1    1    2    0    0  0.24095554915E+03 -0.45219688805E+02  0.64926375964E+02  0.28274517010E+03  0.12500000000E+03 0.  0.
         25    1    1    2    0    0 -0.23830967457E+03 -0.37391095005E+02 -0.28982070151E+01  0.27170387296E+03  0.12500000000E+03 0.  0.
         25    1    1    2    0    0 -0.26458745761E+01  0.82610783811E+02  0.20201479978E+03  0.25152837133E+03  0.12500000000E+03 0.  0.
</event>
<event>
 5    0  0.5619558E-005  0.2124071E+03  0.7546771E-02  0.1139674E+00
         21   -1    0    0  502  501  0.00000000000E+00  0.00000000000E+00  0.86067755971E+02  0.86067755971E+02  0.00000000000E+00 0.  1.
         21   -1    0    0  501  502 -0.00000000000E+00 -0.00000000000E+00 -0.52420085374E+03  0.52420085374E+03  0.00000000000E+00 0.  1.
         25    1    1    2    0    0  0.58945181790E+02  0.61501139530E+02 -0.20759379017E+03  0.25686009098E+03  0.12500000000E+03 0.  0.
         25    1    1    2    0    0 -0.43105294012E+02 -0.47506208200E+02 -0.13284144362E+03  0.19335654975E+03  0.12500000000E+03 0.  0.
         25    1    1    2    0    0 -0.15839887778E+02 -0.13994931330E+02 -0.97697863970E+02  0.16005196897E+03  0.12500000000E+03 0.  0.
</event>
<event>
 5    0  0.5619558E-005  0.2963753E+03  0.7546771E-02  0.1087067E+00
         21   -1    0    0  502  501  0.00000000000E+00  0.00000000000E+00  0.14827244676E+04  0.14827244676E+04  0.00000000000E+00 0.  1.
         21   -1    0    0  501  502 -0.00000000000E+00 -0.00000000000E+00 -0.59241144813E+02  0.59241144813E+02  0.00000000000E+00 0.  1.
         25    1    1    2    0    0 -0.13116119270E+03  0.95540659658E+01  0.75911265056E+03  0.78049442976E+03  0.12500000000E+03 0.  0.
         25    1    1    2    0    0 -0.10167800321E+02  0.60736052319E+02  0.43244269011E+03  0.45433900608E+03  0.12500000000E+03 0.  0.
         25    1    1    2    0    0  0.14132899302E+03 -0.70290118285E+02  0.23192798211E+03  0.30713217657E+03  0.12500000000E+03 0.  0.
</event>
<event>
 5    0  0.5619558E-005  0.3054865E+03  0.7546771E-02  0.1082530E+00
         21   -1    0    0  502  501  0.00000000000E+00  0.00000000000E+00  0.82694993675E+03  0.82694993675E+03  0.00000000000E+00 0.  1.
         21   -1    0    0  501  502 -0.00000000000E+00 -0.00000000000E+00 -0.11285086029E+03  0.11285086029E+03  0.00000000000E+00 0.  1.
         25    1    1    2    0    0  0.22956943639E+02  0.22354592728E+02  0.57184366182E+02  0.14114460958E+03  0.12500000000E+03 0.  0.
         25    1    1    2    0    0 -0.24663560399E+02  0.11284627980E+03  0.70871220631E+02  0.18436459527E+03  0.12500000000E+03 0.  0.
         25    1    1    2    0    0  0.17066167602E+01 -0.13520087253E+03  0.58604348965E+03  0.61429159219E+03  0.12500000000E+03 0.  0.
</event>
<event>
 5    0  0.5834933E-005  0.3178204E+03  0.7546771E-02  0.1076657E+00
         21   -1    0    0  502  501  0.00000000000E+00  0.00000000000E+00  0.32007434675E+03  0.32007434675E+03  0.00000000000E+00 0. -1.
         21   -1    0    0  501  502 -0.00000000000E+00 -0.00000000000E+00 -0.31558236289E+03  0.31558236289E+03  0.00000000000E+00 0. -1.
         25    1    1    2    0    0  0.11122075663E+03 -0.41377963308E+02  0.22369238107E+02  0.17380326627E+03  0.12500000000E+03 0.  0.
         25    1    1    2    0    0 -0.79396488666E+02  0.10236524971E+03 -0.17399196564E+03  0.25036104103E+03  0.12500000000E+03 0.  0.
         25    1    1    2    0    0 -0.31824267968E+02 -0.60987286401E+02  0.15611471139E+03  0.21149240234E+03  0.12500000000E+03 0.  0.
</event>
<event>
 5    0  0.5619558E-005  0.4141697E+03  0.7546771E-02  0.1038981E+00
         21   -1    0    0  502  501  0.00000000000E+00  0.00000000000E+00  0.21954991072E+04  0.21954991072E+04  0.00000000000E+00 0. -1.
         21   -1    0    0  501  502 -0.00000000000E+00 -0.00000000000E+00 -0.78131000803E+02  0.78131000803E+02  0.00000000000E+00 0. -1.
         25    1    1    2    0    0 -0.20744285808E+03  0.38658771407E+02  0.23414666567E+03  0.33908214495E+03  0.12500000000E+03 0.  0.
         25    1    1    2    0    0  0.25720627646E+03 -0.60062992664E+02  0.10351343256E+04  0.10755885383E+04  0.12500000000E+03 0.  0.
         25    1    1    2    0    0 -0.49763418376E+02  0.21404221257E+02  0.84808711512E+03  0.85895942473E+03  0.12500000000E+03 0.  0.
</event>
<event>
 5    0  0.5619558E-005  0.2322308E+03  0.7546771E-02  0.1125079E+00
         21   -1    0    0  502  501  0.00000000000E+00  0.00000000000E+00  0.61562885190E+03  0.61562885190E+03  0.00000000000E+00 0. -1.
         21   -1    0    0  501  502 -0.00000000000E+00 -0.00000000000E+00 -0.87603373351E+02  0.87603373351E+02  0.00000000000E+00 0. -1.
         25    1    1    2    0    0 -0.97338986377E+02 -0.16034943152E+01  0.99940476234E+02  0.18732471341E+03  0.12500000000E+03 0.  0.
         25    1    1    2    0    0  0.53494269003E+02 -0.15661033976E+02  0.12783012003E+03  0.18727638503E+03  0.12500000000E+03 0.  0.
         25    1    1    2    0    0  0.43844717374E+02  0.17264528291E+02  0.30025488228E+03  0.32863112682E+03  0.12500000000E+03 0.  0.
</event>
<event>
 5    0  0.5619558E-005  0.4011768E+03  0.7546771E-02  0.1043373E+00
         21   -1    0    0  502  501  0.00000000000E+00  0.00000000000E+00  0.53676712722E+03  0.53676712722E+03  0.00000000000E+00 0.  1.
         21   -1    0    0  501  502 -0.00000000000E+00 -0.00000000000E+00 -0.29983731720E+03  0.29983731720E+03  0.00000000000E+00 0.  1.
         25    1    1    2    0    0 -0.15214950736E+03 -0.13221846308E+03  0.19212160471E+03  0.30523254342E+03  0.12500000000E+03 0.  0.
         25    1    1    2    0    0  0.87342207270E+02  0.25295472515E+03  0.13543776304E+03  0.32493559640E+03  0.12500000000E+03 0.  0.
         25    1    1    2    0    0  0.64807300090E+02 -0.12073626207E+03 -0.90629557729E+02  0.20643630460E+03  0.12500000000E+03 0.  0.
</event>
<event>
 5    0  0.5619558E-005  0.3605304E+03  0.7546771E-02  0.1058374E+00
         21   -1    0    0  502  501  0.00000000000E+00  0.00000000000E+00  0.14685996087E+03  0.14685996087E+03  0.00000000000E+00 0. -1.
         21   -1    0    0  501  502 -0.00000000000E+00 -0.00000000000E+00 -0.88507548963E+03  0.88507548963E+03  0.00000000000E+00 0. -1.
         25    1    1    2    0    0 -0.12619687786E+03  0.19457726503E+03 -0.46484833427E+03  0.53431726336E+03  0.12500000000E+03 0.  0.
         25    1    1    2    0    0  0.13912297646E+03 -0.11380763474E+03 -0.43096376587E+02  0.22313600780E+03  0.12500000000E+03 0.  0.
         25    1    1    2    0    0 -0.12926098603E+02 -0.80769630291E+02 -0.23027081790E+03  0.27448217934E+03  0.12500000000E+03 0.  0.
</event>
<event>
 5    0  0.5619558E-005  0.2612342E+03  0.7546771E-02  0.1106404E+00
         21   -1    0    0  502  501  0.00000000000E+00  0.00000000000E+00  0.16491825055E+03  0.16491825055E+03  0.00000000000E+00 0.  1.
         21   -1    0    0  501  502 -0.00000000000E+00 -0.00000000000E+00 -0.41380072626E+03  0.41380072626E+03  0.00000000000E+00 0.  1.
         25    1    1    2    0    0  0.29099232290E+02  0.15985758340E+02 -0.33222726979E+02  0.13353298985E+03  0.12500000000E+03 0.  0.
         25    1    1    2    0    0 -0.32316106608E+02  0.99999353821E+02  0.84909063811E+01  0.16352766433E+03  0.12500000000E+03 0.  0.
         25    1    1    2    0    0  0.32168743182E+01 -0.11598511216E+03 -0.22415065511E+03  0.28165832263E+03  0.12500000000E+03 0.  0.
</event>
<event>
 5    0  0.5619558E-005  0.3947833E+03  0.7546771E-02  0.1045601E+00
         21   -1    0    0  502  501  0.00000000000E+00  0.00000000000E+00  0.23816731874E+03  0.23816731874E+03  0.00000000000E+00 0. -1.
         21   -1    0    0  501  502 -0.00000000000E+00 -0.00000000000E+00 -0.65438809345E+03  0.65438809345E+03  0.00000000000E+00 0. -1.
         25    1    1    2    0    0 -0.10127663687E+03  0.18114570281E+03 -0.15350570997E+02  0.24275782758E+03  0.12500000000E+03 0.  0.
         25    1    1    2    0    0 -0.98035182183E+02  0.32211302723E+02 -0.35963107907E+02  0.16603255735E+03  0.12500000000E+03 0.  0.
         25    1    1    2    0    0  0.19931181906E+03 -0.21335700553E+03 -0.36490709581E+03  0.48376502725E+03  0.12500000000E+03 0.  0.
</event>
<event>
 5    0  0.5619558E-005  0.2181328E+03  0.7546771E-02  0.1135283E+00
         21   -1    0    0  502  501  0.00000000000E+00  0.00000000000E+00  0.48800159813E+03  0.48800159813E+03  0.00000000000E+00 0. -1.
         21   -1    0    0  501  502 -0.00000000000E+00 -0.00000000000E+00 -0.97503650135E+02  0.97503650135E+02  0.00000000000E+00 0. -1.
         25    1    1    2    0    0  0.50316833025E+01  0.53174963448E+02  0.35878214552E+02  0.14058855165E+03  0.12500000000E+03 0.  0.
         25    1    1    2    0    0  0.37129008072E+01 -0.38839296295E+02  0.11564760049E+03  0.17470444776E+03  0.12500000000E+03 0.  0.
         25    1    1    2    0    0 -0.87445841098E+01 -0.14335667153E+02  0.23897213295E+03  0.27021224885E+03  0.12500000000E+03 0.  0.
</event>
<event>
 5    0  0.5663846E-005  0.2856872E+03  0.7546771E-02  0.1092623E+00
         21   -1    0    0  502  501  0.00000000000E+00  0.00000000000E+00  0.50887995286E+03  0.50887995286E+03  0.00000000000E+00 0.  1.
         21   -1    0    0  501  502 -0.00000000000E+00 -0.00000000000E+00 -0.16038591728E+03  0.16038591728E+03  0.00000000000E+00 0.  1.
         25    1    1    2    0    0  0.17572754603E+03 -0.15546300982E+02  0.14912141281E+03  0.26264815565E+03  0.12500000000E+03 0.  0.
         25    1    1    2    0    0 -0.10527543470E+03 -0.58194314424E+02  0.36310128677E+02  0.17723690594E+03  0.12500000000E+03 0.  0.
         25    1    1    2    0    0 -0.70452111324E+02  0.73740615406E+02  0.16306249410E+03  0.22938080855E+03  0.12500000000E+03 0.  0.
</event>
<event>
 5    0  0.5619558E-005  0.2542800E+03  0.7546771E-02  0.1110629E+00
         21   -1    0    0  502  501  0.00000000000E+00  0.00000000000E+00  0.32570734546E+03  0.32570734546E+03  0.00000000000E+00 0.  1.
         21   -1    0    0  501  502 -0.00000000000E+00 -0.00000000000E+00 -0.19851656702E+03  0.19851656702E+03  0.00000000000E+00 0.  1.
         25    1    1    2    0    0  0.12909167841E+03 -0.33109586543E+02  0.10033217761E+03  0.20845251743E+03  0.12500000000E+03 0.  0.
         25    1    1    2    0    0 -0.11860606789E+03 -0.27068307997E+02  0.19899945463E+01  0.17443925222E+03  0.12500000000E+03 0.  0.
         25    1    1    2    0    0 -0.10485610527E+02  0.60177894540E+02  0.24868606277E+02  0.14133214283E+03  0.12500000000E+03 0.  0.
</event>
<event>
 5    0  0.5619558E-005  0.2965232E+03  0.7546771E-02  0.1086992E+00
         21   -1    0    0  502  501  0.00000000000E+00  0.00000000000E+00  0.17185918324E+03  0.17185918324E+03  0.00000000000E+00 0. -1.
         21   -1    0    0  501  502 -0.00000000000E+00 -0.00000000000E+00 -0.51161652049E+03  0.51161652049E+03  0.00000000000E+00 0. -1.
         25    1    1    2    0    0 -0.61815544445E+02  0.34622603101E+01 -0.72012980628E+01  0.13967822835E+03  0.12500000000E+03 0.  0.
         25    1    1    2    0    0  0.17637613500E+03 -0.33468025491E+02 -0.29550848590E+03  0.36766685323E+03  0.12500000000E+03 0.  0.
         25    1    1    2    0    0 -0.11456059055E+03  0.30005765181E+02 -0.37047553284E+02  0.17613062214E+03  0.12500000000E+03 0.  0.
</event>
<event>
 5    0  0.5619558E-005  0.2857621E+03  0.7546771E-02  0.1092583E+00
         21   -1    0    0  502  501  0.00000000000E+00  0.00000000000E+00  0.49910487585E+03  0.49910487585E+03  0.00000000000E+00 0.  1.
         21   -1    0    0  501  502 -0.00000000000E+00 -0.00000000000E+00 -0.16361290286E+03  0.16361290286E+03  0.00000000000E+00 0.  1.
         25    1    1    2    0    0 -0.10202490098E+03 -0.49567218824E+02  0.18785930281E+03  0.25255119730E+03  0.12500000000E+03 0.  0.
         25    1    1    2    0    0 -0.13300270199E+02  0.89021026716E+02  0.17534270577E+03  0.23339174118E+03  0.12500000000E+03 0.  0.
         25    1    1    2    0    0  0.11532517118E+03 -0.39453807893E+02 -0.27710035602E+02  0.17677484023E+03  0.12500000000E+03 0.  0.
</event>
<event>
 5    0  0.5619558E-005  0.2708068E+03  0.7546771E-02  0.1100819E+00
         21   -1    0    0  502  501  0.00000000000E+00  0.00000000000E+00  0.44201487922E+02  0.44201487922E+02  0.00000000000E+00 0. -1.
         21   -1    0    0  501  502 -0.00000000000E+00 -0.00000000000E+00 -0.16591368105E+04  0.16591368105E+04  0.00000000000E+00 0. -1.
         25    1    1    2    0    0 -0.50565987683E+01  0.14401605574E+03 -0.74265040172E+03  0.76675994462E+03  0.12500000000E+03 0.  0.
         25    1    1    2    0    0  0.47295447902E+02 -0.65304775245E+01 -0.50968257537E+03  0.52695429989E+03  0.12500000000E+03 0.  0.
         25    1    1    2    0    0 -0.42238849133E+02 -0.13748557822E+03 -0.36260234550E+03  0.40962405393E+03  0.12500000000E+03 0.  0.
</event>
<event>
 5    0  0.5619558E-005  0.5136242E+03  0.7546771E-02  0.1010283E+00
         21   -1    0    0  502  501  0.00000000000E+00  0.00000000000E+00  0.44144879807E+03  0.44144879807E+03  0.00000000000E+00 0.  1.
         21   -1    0    0  501  502 -0.00000000000E+00 -0.00000000000E+00 -0.59760001861E+03  0.59760001861E+03  0.00000000000E+00 0.  1.
         25    1    1    2    0    0  0.30855412816E+03 -0.98941479278E+02  0.22404384066E+03  0.41329857109E+03  0.12500000000E+03 0.  0.
         25    1    1    2    0    0 -0.10343369822E+03  0.78725917758E+02 -0.57576426829E+01  0.18042851910E+03  0.12500000000E+03 0.  0.
         25    1    1    2    0    0 -0.20512042994E+03  0.20215561520E+02 -0.37443741851E+03  0.44532172650E+03  0.12500000000E+03 0.  0.
</event>
<event>
 5    0  0.6258249E-005  0.2964005E+03  0.7546771E-02  0.1087054E+00
         21   -1    0    0  502  501  0.00000000000E+00  0.00000000000E+00  0.65164677461E+03  0.65164677461E+03  0.00000000000E+00 0.  1.
         21   -1    0    0  501  502 -0.00000000000E+00 -0.00000000000E+00 -0.13481729105E+03  0.13481729105E+03  0.00000000000E+00 0.  1.
         25    1    1    2    0    0 -0.18100844759E+03 -0.10997844535E+03  0.26845355779E+03  0.36407640576E+03  0.12500000000E+03 0.  0.
         25    1    1    2    0    0  0.10334457795E+03  0.34643788837E+02  0.72481386690E+02  0.18099404773E+03  0.12500000000E+03 0.  0.
         25    1    1    2    0    0  0.77663869635E+02  0.75334656514E+02  0.17589453908E+03  0.24139361217E+03  0.12500000000E+03 0.  0.
</event>
<event>
 5    0  0.5619558E-005  0.2523562E+03  0.7546771E-02  0.1111825E+00
         21   -1    0    0  502  501  0.00000000000E+00  0.00000000000E+00  0.17806103804E+04  0.17806103804E+04  0.00000000000E+00 0.  1.
         21   -1    0    0  501  502 -0.00000000000E+00 -0.00000000000E+00 -0.35765065861E+02  0.35765065861E+02  0.00000000000E+00 0.  1.
         25    1    1    2    0    0 -0.18733341518E+01  0.24041737028E+02  0.80834308878E+03  0.81830621633E+03  0.12500000000E+03 0.  0.
         25    1    1    2    0    0 -0.48575007070E+02  0.86273394789E+02  0.57643501148E+03  0.59808440242E+03  0.12500000000E+03 0.  0.
         25    1    1    2    0    0  0.50448341222E+02 -0.11031513182E+03  0.36006721425E+03  0.39998482749E+03  0.12500000000E+03 0.  0.
</event>
<event>
 5    0  0.5619558E-005  0.2976202E+03  0.7546771E-02  0.1086436E+00
         21   -1    0    0  502  501  0.00000000000E+00  0.00000000000E+00  0.13115815314E+04  0.13115815314E+04  0.00000000000E+00 0.  1.
         21   -1    0    0  501  502 -0.00000000000E+00 -0.00000000000E+00 -0.67535095710E+02  0.67535095710E+02  0.00000000000E+00 0.  1.
         25    1    1    2    0    0 -0.29629488929E+02  0.11778506320E+03  0.26774163795E+03  0.31947114489E+03  0.12500000000E+03 0.  0.
         25    1    1    2    0    0  0.60148654808E+02 -0.16538162504E+03  0.30012138153E+03  0.36968471193E+03  0.12500000000E+03 0.  0.
         25    1    1    2    0    0 -0.30519165880E+02  0.47596561841E+02  0.67618341620E+03  0.68996077028E+03  0.12500000000E+03 0.  0.
</event>
<event>
 5    0  0.5619558E-005  0.3011442E+03  0.7546771E-02  0.1084670E+00
         21   -1    0    0  502  501  0.00000000000E+00  0.00000000000E+00  0.10323114241E+04  0.10323114241E+04  0.00000000000E+00 0.  1.
         21   -1    0    0  501  502 -0.00000000000E+00 -0.00000000000E+00 -0.87849294659E+02  0.87849294659E+02  0.00000000000E+00 0.  1.
         25    1    1    2    0    0  0.95839396851E+02 -0.69167413984E+02  0.30461706451E+03  0.34983692935E+03  0.12500000000E+03 0.  0.
         25    1    1    2    0    0 -0.15380130479E+03  0.24688530009E+02  0.12524853510E+03  0.23574681422E+03  0.12500000000E+03 0.  0.
         25    1    1    2    0    0  0.57961907940E+02  0.44478883975E+02  0.51459652986E+03  0.53457697522E+03  0.12500000000E+03 0.  0.
</event>
<event>
 5    0  0.5619558E-005  0.4410166E+03  0.7546771E-02  0.1030435E+00
         21   -1    0    0  502  501  0.00000000000E+00  0.00000000000E+00  0.55402792658E+03  0.55402792658E+03  0.00000000000E+00 0.  1.
         21   -1    0    0  501  502 -0.00000000000E+00 -0.00000000000E+00 -0.35105747200E+03  0.35105747200E+03  0.00000000000E+00 0.  1.
         25    1    1    2    0    0  0.87003226240E+02 -0.12242066842E+03  0.25598230317E+03  0.32203776326E+03  0.12500000000E+03 0.  0.
         25    1    1    2    0    0  0.20481149629E+03  0.56313744606E+02 -0.76134611929E+02  0.25795438740E+03  0.12500000000E+03 0.  0.
         25    1    1    2    0    0 -0.29181472253E+03  0.66106923812E+02  0.23122763348E+02  0.32509324792E+03  0.12500000000E+03 0.  0.
</event>
<event>
 5    0  0.5619558E-005  0.2739244E+03  0.7546771E-02  0.1099054E+00
         21   -1    0    0  502  501  0.00000000000E+00  0.00000000000E+00  0.12276001749E+03  0.12276001749E+03  0.00000000000E+00 0.  1.
         21   -1    0    0  501  502 -0.00000000000E+00 -0.00000000000E+00 -0.61122977290E+03  0.61122977290E+03  0.00000000000E+00 0.  1.
         25    1    1    2    0    0 -0.10125671992E+03  0.97386683378E+02 -0.24476471994E+03  0.30866139628E+03  0.12500000000E+03 0.  0.
         25    1    1    2    0    0  0.12348048649E+03 -0.78955471362E+02 -0.22415955409E+03  0.29555693646E+03  0.12500000000E+03 0.  0.
         25    1    1    2    0    0 -0.22223766570E+02 -0.18431212017E+02 -0.19545481376E+02  0.12977145764E+03  0.12500000000E+03 0.  0.
</event>
<event>
 5    0  0.5619558E-005  0.4009368E+03  0.7546771E-02  0.1043456E+00
         21   -1    0    0  502  501  0.00000000000E+00  0.00000000000E+00  0.15295496269E+04  0.15295496269E+04  0.00000000000E+00 0.  1.
         21   -1    0    0  501  502 -0.00000000000E+00 -0.00000000000E+00 -0.10509650111E+03  0.10509650111E+03  0.00000000000E+00 0.  1.
         25    1    1    2    0    0 -0.28154883435E+02  0.18233266805E+03  0.29974435948E+03  0.37350981291E+03  0.12500000000E+03 0.  0.
         25    1    1    2    0    0 -0.86393184603E+02 -0.14707922069E+03  0.12315332835E+03  0.24471988433E+03  0.12500000000E+03 0.  0.
         25    1    1    2    0    0  0.11454806804E+03 -0.35253447359E+02  0.10015554380E+04  0.10164164308E+04  0.12500000000E+03 0.  0.
</event>
<event>
 5    0  0.5619558E-005  0.4599111E+03  0.7546771E-02  0.1024807E+00
         21   -1    0    0  502  501  0.00000000000E+00  0.00000000000E+00  0.48726167030E+03  0.48726167030E+03  0.00000000000E+00 0.  1.
         21   -1    0    0  501  502 -0.00000000000E+00 -0.00000000000E+00 -0.43409583562E+03  0.43409583562E+03  0.00000000000E+00 0.  1.
         25    1    1    2    0    0  0.87206869759E+02  0.14257818126E+03 -0.74233670826E+02  0.22151571905E+03  0.12500000000E+03 0.  0.
         25    1    1    2    0    0 -0.24130713262E+03 -0.27503080107E+03 -0.66610564882E+02  0.39234301465E+03  0.12500000000E+03 0.  0.
         25    1    1    2    0    0  0.15410026286E+03  0.13245261981E+03  0.19401007039E+03  0.30749877222E+03  0.12500000000E+03 0.  0.
</event>
<event>
 5    0  0.5619558E-005  0.2436393E+03  0.7546771E-02  0.1117392E+00
         21   -1    0    0  502  501  0.00000000000E+00  0.00000000000E+00  0.65261756476E+03  0.65261756476E+03  0.00000000000E+00 0. -1.
         21   -1    0    0  501  502 -0.00000000000E+00 -0.00000000000E+00 -0.90956960185E+02  0.90956960185E+02  0.00000000000E+00 0. -1.
         25    1    1    2    0    0 -0.13517521173E+02 -0.62344724636E+01  0.21674327906E+03  0.25064764320E+03  0.12500000000E+03 0.  0.
         25    1    1    2    0    0  0.13196167488E+01 -0.38310302615E+02  0.33463667913E+03  0.35927166280E+03  0.12500000000E+03 0.  0.
         25    1    1    2    0    0  0.12197904425E+02  0.44544775079E+02  0.10280646385E+02  0.13365521894E+03  0.12500000000E+03 0.  0.
</event>
<event>
 5    0  0.5619558E-005  0.3942762E+03  0.7546771E-02  0.1045780E+00
         21   -1    0    0  502  501  0.00000000000E+00  0.00000000000E+00  0.12881699941E+03  0.12881699941E+03  0.00000000000E+00 0.  1.
         21   -1    0    0  501  502 -0.00000000000E+00 -0.00000000000E+00 -0.12067797936E+04  0.12067797936E+04  0.00000000000E+00 0.  1.
         25    1    1    2    0    0  0.15648153682E+03  0.14674827175E+03 -0.13944557594E+03  0.28476586045E+03  0.12500000000E+03 0.  0.
         25    1    1    2    0    0 -0.10664362098E+03  0.38862718518E+02 -0.69969091724E+03  0.71977465394E+03  0.12500000000E+03 0.  0.
         25    1    1    2    0    0 -0.49837915840E+02 -0.18561099027E+03 -0.23882630098E+03  0.33105627860E+03  0.12500000000E+03 0.  0.
</event>
<event>
 5    0  0.5619558E-005  0.3720617E+03  0.7546771E-02  0.1053907E+00
         21   -1    0    0  502  501  0.00000000000E+00  0.00000000000E+00  0.11145927636E+03  0.11145927636E+03  0.00000000000E+00 0. -1.
         21   -1    0    0  501  502 -0.00000000000E+00 -0.00000000000E+00 -0.12419777679E+04  0.12419777679E+04  0.00000000000E+00 0. -1.
         25    1    1    2    0    0 -0.25455794570E+03  0.10418363655E+03 -0.57801327505E+03  0.65221033722E+03  0.12500000000E+03 0.  0.
         25    1    1    2    0    0  0.14107913496E+03 -0.16562214133E+03 -0.29560911594E+03  0.38774187993E+03  0.12500000000E+03 0.  0.
         25    1    1    2    0    0  0.11347881074E+03  0.61438504787E+02 -0.25689610058E+03  0.31348482715E+03  0.12500000000E+03 0.  0.
</event>
<event>
 5    0  0.5619558E-005  0.2861459E+03  0.7546771E-02  0.1092379E+00
         21   -1    0    0  502  501  0.00000000000E+00  0.00000000000E+00  0.80855425727E+02  0.80855425727E+02  0.00000000000E+00 0.  1.
         21   -1    0    0  501  502 -0.00000000000E+00 -0.00000000000E+00 -0.10126653541E+04  0.10126653541E+04  0.00000000000E+00 0.  1.
         25    1    1    2    0    0 -0.13542806261E+02 -0.10719841607E+03 -0.23914512304E+03  0.29067214845E+03  0.12500000000E+03 0.  0.
         25    1    1    2    0    0 -0.11951836462E+03  0.10834416797E+03 -0.24172544772E+03  0.31635311013E+03  0.12500000000E+03 0.  0.
         25    1    1    2    0    0  0.13306117088E+03 -0.11457518933E+01 -0.45093935758E+03  0.48649552121E+03  0.12500000000E+03 0.  0.
</event>
<event>
 5    0  0.5619558E-005  0.2884006E+03  0.7546771E-02  0.1091187E+00
         21   -1    0    0  502  501  0.00000000000E+00  0.00000000000E+00  0.11336172334E+04  0.11336172334E+04  0.00000000000E+00 0. -1.
         21   -1    0    0  501  502 -0.00000000000E+00 -0.00000000000E+00 -0.73371260127E+02  0.73371260127E+02  0.00000000000E+00 0. -1.
         25    1    1    2    0    0 -0.29995447843E+02 -0.50942053880E+02  0.94352826582E+02  0.16739855325E+03  0.12500000000E+03 0.  0.
         25    1    1    2    0    0  0.17025115299E+02 -0.64382257326E+02  0.15096566276E+03  0.20700377036E+03  0.12500000000E+03 0.  0.
         25    1    1    2    0    0  0.12970332544E+02  0.11532431121E+03  0.81492748394E+03  0.83258616994E+03  0.12500000000E+03 0.  0.
</event>
<event>
 5    0  0.5619558E-005  0.3608464E+03  0.7546771E-02  0.1058249E+00
         21   -1    0    0  502  501  0.00000000000E+00  0.00000000000E+00  0.25943376038E+03  0.25943376038E+03  0.00000000000E+00 0. -1.
         21   -1    0    0  501  502 -0.00000000000E+00 -0.00000000000E+00 -0.50190127714E+03  0.50190127714E+03  0.00000000000E+00 0. -1.
         25    1    1    2    0    0  0.17860726295E+03 -0.15365496041E+03 -0.22514344123E+03  0.34903433981E+03  0.12500000000E+03 0.  0.
         25    1    1    2    0    0 -0.14884767756E+03  0.45444634530E+01 -0.73101562239E+02  0.20771403820E+03  0.12500000000E+03 0.  0.
         25    1    1    2    0    0 -0.29759585390E+02  0.14911049696E+03  0.55777486714E+02  0.20458665951E+03  0.12500000000E+03 0.  0.
</event>
<event>
 5    0  0.5619558E-005  0.2543189E+03  0.7546771E-02  0.1110605E+00
         21   -1    0    0  502  501  0.00000000000E+00  0.00000000000E+00  0.64323389537E+03  0.64323389537E+03  0.00000000000E+00 0. -1.
         21   -1    0    0  501  502 -0.00000000000E+00 -0.00000000000E+00 -0.10055142231E+03  0.10055142231E+03  0.00000000000E+00 0. -1.
         25    1    1    2    0    0  0.83243925536E+02 -0.65569510333E+00  0.75571017652E+02  0.16812483393E+03  0.12500000000E+03 0.  0.
         25    1    1    2    0    0 -0.82094809336E+02 -0.58649230251E+02  0.11562636537E+03  0.19792358702E+03  0.12500000000E+03 0.  0.
         25    1    1    2    0    0 -0.11491162003E+01  0.59304925354E+02  0.35148509003E+03  0.37773689673E+03  0.12500000000E+03 0.  0.
</event>
<event>
 5    0  0.5619558E-005  0.5284751E+03  0.7546771E-02  0.1006603E+00
         21   -1    0    0  502  501  0.00000000000E+00  0.00000000000E+00  0.96265723082E+03  0.96265723082E+03  0.00000000000E+00 0.  1.
         21   -1    0    0  501  502 -0.00000000000E+00 -0.00000000000E+00 -0.29011975937E+03  0.29011975937E+03  0.00000000000E+00 0.  1.
         25    1    1    2    0    0  0.95674535264E+02  0.13728002258E+03  0.47156952968E+03  0.51575405245E+03  0.12500000000E+03 0.  0.
         25    1    1    2    0    0 -0.37885368382E+02 -0.39191675454E+03  0.68839151978E+02  0.41880529184E+03  0.12500000000E+03 0.  0.
         25    1    1    2    0    0 -0.57789166882E+02  0.25463673196E+03  0.13212878979E+03  0.31821764590E+03  0.12500000000E+03 0.  0.
</event>
<event>
 5    0  0.5619558E-005  0.3142202E+03  0.7546771E-02  0.1078340E+00
         21   -1    0    0  502  501  0.00000000000E+00  0.00000000000E+00  0.74787521931E+02  0.74787521931E+02  0.00000000000E+00 0. -1.
         21   -1    0    0  501  502 -0.00000000000E+00 -0.00000000000E+00 -0.13201983256E+04  0.13201983256E+04  0.00000000000E+00 0. -1.
         25    1    1    2    0    0 -0.14453839877E+03 -0.29339033714E+02 -0.83526996180E+03  0.85735234105E+03  0.12500000000E+03 0.  0.
         25    1    1    2    0    0  0.10152854020E+03  0.57289842871E+02 -0.96868567965E+02  0.19646549323E+03  0.12500000000E+03 0.  0.
         25    1    1    2    0    0  0.43009858576E+02 -0.27950809157E+02 -0.31327227391E+03  0.34116801325E+03  0.12500000000E+03 0.  0.
</event>
<event>
 5    0  0.5619558E-005  0.3765280E+03  0.7546771E-02  0.1052225E+00
         21   -1    0    0  502  501  0.00000000000E+00  0.00000000000E+00  0.68608470430E+03  0.68608470430E+03  0.00000000000E+00 0.  1.
         21   -1    0    0  501  502 -0.00000000000E+00 -0.00000000000E+00 -0.20664117832E+03  0.20664117832E+03  0.00000000000E+00 0.  1.
         25    1    1    2    0    0 -0.96955635097E+02 -0.16018877765E+02  0.24360300991E+02  0.16085839700E+03  0.12500000000E+03 0.  0.
         25    1    1    2    0    0  0.16801869950E+03 -0.13883931415E+03  0.24784752576E+02  0.25247954867E+03  0.12500000000E+03 0.  0.
         25    1    1    2    0    0 -0.71063064401E+02  0.15485819192E+03  0.43029847242E+03  0.47938793695E+03  0.12500000000E+03 0.  0.
</event>
<event>
 5    0  0.5619558E-005  0.2464884E+03  0.7546771E-02  0.1115544E+00
         21   -1    0    0  502  501  0.00000000000E+00  0.00000000000E+00  0.10326830680E+04  0.10326830680E+04  0.00000000000E+00 0. -1.
         21   -1    0    0  501  502 -0.00000000000E+00 -0.00000000000E+00 -0.58833648596E+02  0.58833648596E+02  0.00000000000E+00 0. -1.
         25    1    1    2    0    0 -0.30413274403E+02 -0.32770520487E+02  0.98670193963E+02  0.16540762210E+03  0.12500000000E+03 0.  0.
         25    1    1    2    0    0  0.63676022144E+02  0.70323507947E+02  0.34371064020E+03  0.37783863719E+03  0.12500000000E+03 0.  0.
         25    1    1    2    0    0 -0.33262747741E+02 -0.37552987460E+02  0.53146858521E+03  0.54827045728E+03  0.12500000000E+03 0.  0.
</event>
<event>
 5    0  0.5619558E-005  0.3295721E+03  0.7546771E-02  0.1071326E+00
         21   -1    0    0  502  501  0.00000000000E+00  0.00000000000E+00  0.29320669880E+03  0.29320669880E+03  0.00000000000E+00 0. -1.
         21   -1    0    0  501  502 -0.00000000000E+00 -0.00000000000E+00 -0.37044776077E+03  0.37044776077E+03  0.00000000000E+00 0. -1.
         25    1    1    2    0    0 -0.63930789699E+02  0.13783409746E+03 -0.10285464359E+03  0.22201230146E+03  0.12500000000E+03 0.  0.
         25    1    1    2    0    0 -0.11150263234E+03 -0.86190802588E+02  0.93026160265E+02  0.21009654439E+03  0.12500000000E+03 0.  0.
         25    1    1    2    0    0  0.17543342204E+03 -0.51643294868E+02 -0.67412578640E+02  0.23154561372E+03  0.12500000000E+03 0.  0.
</event>
<event>
 5    0  0.5619558E-005  0.2568438E+03  0.7546771E-02  0.1109054E+00
         21   -1    0    0  502  501  0.00000000000E+00  0.00000000000E+00  0.47868694479E+03  0.47868694479E+03  0.00000000000E+00 0. -1.
         21   -1    0    0  501  502 -0.00000000000E+00 -0.00000000000E+00 -0.13781189334E+03  0.13781189334E+03  0.00000000000E+00 0. -1.
         25    1    1    2    0    0 -0.40194475083E+02  0.13010964369E+03  0.22367425812E+03  0.29017113736E+03  0.12500000000E+03 0.  0.
         25    1    1    2    0    0 -0.31238025973E+02 -0.82152703855E+02  0.58589507857E+02  0.16365393808E+03  0.12500000000E+03 0.  0.
         25    1    1    2    0    0  0.71432501056E+02 -0.47956939836E+02  0.58611285472E+02  0.16267376270E+03  0.12500000000E+03 0.  0.
</event>
<event>
 5    0  0.5619558E-005  0.3667273E+03  0.7546771E-02  0.1055951E+00
         21   -1    0    0  502  501  0.00000000000E+00  0.00000000000E+00  0.13065201398E+03  0.13065201398E+03  0.00000000000E+00 0.  1.
         21   -1    0    0  501  502 -0.00000000000E+00 -0.00000000000E+00 -0.10293671477E+04  0.10293671477E+04  0.00000000000E+00 0.  1.
         25    1    1    2    0    0 -0.13893450099E+03  0.83141083883E+02 -0.38141505804E+03  0.43280212788E+03  0.12500000000E+03 0.  0.
         25    1    1    2    0    0  0.24936162508E+03  0.66801831982E+02 -0.29308270896E+03  0.41008069829E+03  0.12500000000E+03 0.  0.
         25    1    1    2    0    0 -0.11042712409E+03 -0.14994291587E+03 -0.22421736669E+03  0.31713633547E+03  0.12500000000E+03 0.  0.
</event>
<event>
 5    0  0.5619558E-005  0.2949415E+03  0.7546771E-02  0.1087797E+00
         21   -1    0    0  502  501  0.00000000000E+00  0.00000000000E+00  0.30894531434E+03  0.30894531434E+03  0.00000000000E+00 0.  1.
         21   -1    0    0  501  502 -0.00000000000E+00 -0.00000000000E+00 -0.28157238247E+03  0.28157238247E+03  0.00000000000E+00 0.  1.
         25    1    1    2    0    0  0.39476270004E+01  0.16094273960E+03 -0.13106613241E+03  0.24232515399E+03  0.12500000000E+03 0.  0.
         25    1    1    2    0    0 -0.50857755597E+01 -0.31492942682E+02  0.51822754503E+02  0.13902614300E+03  0.12500000000E+03 0.  0.
         25    1    1    2    0    0  0.11381485593E+01 -0.12944979692E+03  0.10661630978E+03  0.20916639983E+03  0.12500000000E+03 0.  0.
</event>
<event>
 5    0  0.5619558E-005  0.3995372E+03  0.7546771E-02  0.1043940E+00
         21   -1    0    0  502  501  0.00000000000E+00  0.00000000000E+00  0.49934562744E+03  0.49934562744E+03  0.00000000000E+00 0. -1.
         21   -1    0    0  501  502 -0.00000000000E+00 -0.00000000000E+00 -0.31967825800E+03  0.31967825800E+03  0.00000000000E+00 0. -1.
         25    1    1    2    0    0 -0.74516892339E+02 -0.81289132096E+01 -0.17073350522E+03  0.22448558145E+03  0.12500000000E+03 0.  0.
         25    1    1    2    0    0 -0.88668449020E+02  0.14235428269E+02 -0.34871681224E+02  0.15781563744E+03  0.12500000000E+03 0.  0.
         25    1    1    2    0    0  0.16318534136E+03 -0.61065150594E+01  0.38527255589E+03  0.43672266655E+03  0.12500000000E+03 0.  0.
</event>
<event>
 5    0  0.5619558E-005  0.7521194E+03  0.7546771E-02  0.9632031E-01
         21   -1    0    0  502  501  0.00000000000E+00  0.00000000000E+00  0.45449502637E+03  0.45449502637E+03  0.00000000000E+00 0. -1.
         21   -1    0    0  501  502 -0.00000000000E+00 -0.00000000000E+00 -0.12446420386E+04  0.12446420386E+04  0.00000000000E+00 0. -1.
         25    1    1    2    0    0 -0.32117539129E+03  0.56613483868E+03 -0.65488399982E+03  0.93175122257E+03  0.12500000000E+03 0.  0.
         25    1    1    2    0    0  0.55031665628E+02 -0.14221420026E+03 -0.15544133823E+03  0.25107841924E+03  0.12500000000E+03 0.  0.
         25    1    1    2    0    0  0.26614372567E+03 -0.42392063842E+03  0.20178325810E+02  0.51630742317E+03  0.12500000000E+03 0.  0.
</event>
<event>
 5    0  0.5619558E-005  0.2346763E+03  0.7546771E-02  0.1123391E+00
         21   -1    0    0  502  501  0.00000000000E+00  0.00000000000E+00  0.69492338176E+03  0.69492338176E+03  0.00000000000E+00 0. -1.
         21   -1    0    0  501  502 -0.00000000000E+00 -0.00000000000E+00 -0.79250446390E+02  0.79250446390E+02  0.00000000000E+00 0. -1.
         25    1    1    2    0    0  0.23198116302E+01  0.11422989600E+02  0.25611035336E+03  0.28522513795E+03  0.12500000000E+03 0.  0.
         25    1    1    2    0    0 -0.11791522595E+02  0.99938438968E+02  0.20972842648E+03  0.26407904965E+03  0.12500000000E+03 0.  0.
         25    1    1    2    0    0  0.94717109653E+01 -0.11136142857E+03  0.14983415553E+03  0.22486964056E+03  0.12500000000E+03 0.  0.
</event>
<event>
 5    0  0.5677406E-005  0.3161382E+03  0.7546771E-02  0.1077440E+00
         21   -1    0    0  502  501  0.00000000000E+00  0.00000000000E+00  0.38241625822E+03  0.38241625822E+03  0.00000000000E+00 0.  1.
         21   -1    0    0  501  502 -0.00000000000E+00 -0.00000000000E+00 -0.26134700910E+03  0.26134700910E+03  0.00000000000E+00 0.  1.
         25    1    1    2    0    0 -0.13474649873E+03  0.14915443377E+03  0.10860607624E+03  0.26043030513E+03  0.12500000000E+03 0.  0.
         25    1    1    2    0    0  0.35375197237E+02 -0.95515534029E+02 -0.91484388909E+02  0.18538882176E+03  0.12500000000E+03 0.  0.
         25    1    1    2    0    0  0.99371301493E+02 -0.53638899744E+02  0.10394756179E+03  0.19794414043E+03  0.12500000000E+03 0.  0.
</event>
<event>
 5    0  0.5619558E-005  0.3886288E+03  0.7546771E-02  0.1047790E+00
         21   -1    0    0  502  501  0.00000000000E+00  0.00000000000E+00  0.13111997935E+03  0.13111997935E+03  0.00000000000E+00 0.  1.
         21   -1    0    0  501  502 -0.00000000000E+00 -0.00000000000E+00 -0.11518637516E+04  0.11518637516E+04  0.00000000000E+00 0.  1.
         25    1    1    2    0    0  0.48117689804E+02  0.48070697686E+02 -0.34891585014E+03  0.37682008243E+03  0.12500000000E+03 0.  0.
         25    1    1    2    0    0 -0.14736434337E+03 -0.65692205079E+02  0.11303963444E+02  0.20441256100E+03  0.12500000000E+03 0.  0.
         25    1    1    2    0    0  0.99246653561E+02  0.17621507393E+02 -0.68313188558E+03  0.70175108754E+03  0.12500000000E+03 0.  0.
</event>
<event>
 5    0  0.6028291E-005  0.3022312E+03  0.7546771E-02  0.1084131E+00
         21   -1    0    0  502  501  0.00000000000E+00  0.00000000000E+00  0.40137099908E+03  0.40137099908E+03  0.00000000000E+00 0. -1.
         21   -1    0    0  501  502 -0.00000000000E+00 -0.00000000000E+00 -0.22757921743E+03  0.22757921743E+03  0.00000000000E+00 0. -1.
         25    1    1    2    0    0 -0.14800287021E+03  0.96515808725E+02 -0.24272883363E+02  0.21779422350E+03  0.12500000000E+03 0.  0.
         25    1    1    2    0    0  0.27249406825E+02 -0.75429851758E+01  0.17151821881E+03  0.21410961254E+03  0.12500000000E+03 0.  0.
         25    1    1    2    0    0  0.12075346339E+03 -0.88972823549E+02  0.26546446207E+02  0.19704638047E+03  0.12500000000E+03 0.  0.
</event>
<event>
 5    0  0.5619558E-005  0.6337962E+03  0.7546771E-02  0.9837669E-01
         21   -1    0    0  502  501  0.00000000000E+00  0.00000000000E+00  0.19300889736E+04  0.19300889736E+04  0.00000000000E+00 0. -1.
         21   -1    0    0  501  502 -0.00000000000E+00 -0.00000000000E+00 -0.20812390063E+03  0.20812390063E+03  0.00000000000E+00 0. -1.
         25    1    1    2    0    0 -0.10873626926E+03  0.12833702835E+03  0.37831402977E+03  0.43248176172E+03  0.12500000000E+03 0.  0.
         25    1    1    2    0    0  0.31654400023E+03 -0.82414303769E+02  0.10919434666E+02  0.35033763086E+03  0.12500000000E+03 0.  0.
         25    1    1    2    0    0 -0.20780773097E+03 -0.45922724584E+02  0.13327316085E+04  0.13553934816E+04  0.12500000000E+03 0.  0.
</event>
<event>
 5    0  0.5619558E-005  0.2752223E+03  0.7546771E-02  0.1098327E+00
         21   -1    0    0  502  501  0.00000000000E+00  0.00000000000E+00  0.47897365833E+02  0.47897365833E+02  0.00000000000E+00 0. -1.
         21   -1    0    0  501  502 -0.00000000000E+00 -0.00000000000E+00 -0.15814500008E+04  0.15814500008E+04  0.00000000000E+00 0. -1.
         25    1    1    2    0    0  0.13530901190E+03  0.76486327268E+02 -0.67818385211E+03  0.70690665878E+03  0.12500000000E+03 0.  0.
         25    1    1    2    0    0 -0.55234939572E+02  0.89609917882E+01 -0.18284701256E+03  0.22844961791E+03  0.12500000000E+03 0.  0.
         25    1    1    2    0    0 -0.80074072325E+02 -0.85447319056E+02 -0.67252177029E+03  0.69399108993E+03  0.12500000000E+03 0.  0.
</event>
<event>
 5    0  0.5619558E-005  0.2511508E+03  0.7546771E-02  0.1112580E+00
         21   -1    0    0  502  501  0.00000000000E+00  0.00000000000E+00  0.12757416545E+04  0.12757416545E+04  0.00000000000E+00 0. -1.
         21   -1    0    0  501  502 -0.00000000000E+00 -0.00000000000E+00 -0.49443181219E+02  0.49443181219E+02  0.00000000000E+00 0. -1.
         25    1    1    2    0    0 -0.23478616300E+02 -0.55762180388E+02  0.20522848874E+03  0.24779910972E+03  0.12500000000E+03 0.  0.
         25    1    1    2    0    0  0.11885435380E+03  0.69331480437E+02  0.54273344084E+03  0.57368789372E+03  0.12500000000E+03 0.  0.
         25    1    1    2    0    0 -0.95375737501E+02 -0.13569300049E+02  0.47833654375E+03  0.50369783233E+03  0.12500000000E+03 0.  0.
</event>
<event>
 5    0  0.5619558E-005  0.2720092E+03  0.7546771E-02  0.1100135E+00
         21   -1    0    0  502  501  0.00000000000E+00  0.00000000000E+00  0.66978544954E+02  0.66978544954E+02  0.00000000000E+00 0. -1.
         21   -1    0    0  501  502 -0.00000000000E+00 -0.00000000000E+00 -0.11046672914E+04  0.11046672914E+04  0.00000000000E+00 0. -1.
         25    1    1    2    0    0  0.12389962528E+03  0.33178841876E+02 -0.51489383549E+03  0.54515375310E+03  0.12500000000E+03 0.  0.
         25    1    1    2    0    0 -0.16867817318E+03 -0.22684552350E+02 -0.29875533064E+03  0.36585060149E+03  0.12500000000E+03 0.  0.
         25    1    1    2    0    0  0.44778547909E+02 -0.10494289526E+02 -0.22403958028E+03  0.26064148172E+03  0.12500000000E+03 0.  0.
</event>
<event>
 5    0  0.5619558E-005  0.3026840E+03  0.7546771E-02  0.1083907E+00
         21   -1    0    0  502  501  0.00000000000E+00  0.00000000000E+00  0.12040214448E+04  0.12040214448E+04  0.00000000000E+00 0.  1.
         21   -1    0    0  501  502 -0.00000000000E+00 -0.00000000000E+00 -0.76093010827E+02  0.76093010827E+02  0.00000000000E+00 0.  1.
         25    1    1    2    0    0 -0.94217204213E+02 -0.63745823881E+02  0.32632074665E+03  0.36749236907E+03  0.12500000000E+03 0.  0.
         25    1    1    2    0    0 -0.11236818311E+02  0.18724624175E+03  0.34472807974E+03  0.41188574884E+03  0.12500000000E+03 0.  0.
         25    1    1    2    0    0  0.10545402252E+03 -0.12350041787E+03  0.45687960757E+03  0.50073633770E+03  0.12500000000E+03 0.  0.
</event>
<event>
 5    0  0.5619558E-005  0.2588851E+03  0.7546771E-02  0.1107815E+00
         21   -1    0    0  502  501  0.00000000000E+00  0.00000000000E+00  0.27969430883E+03  0.27969430883E+03  0.00000000000E+00 0. -1.
         21   -1    0    0  501  502 -0.00000000000E+00 -0.00000000000E+00 -0.23962402361E+03  0.23962402361E+03  0.00000000000E+00 0. -1.
         25    1    1    2    0    0 -0.16268286900E+02 -0.14916864363E+03  0.40516027765E+02  0.19945548352E+03  0.12500000000E+03 0.  0.
         25    1    1    2    0    0 -0.55854562090E+02  0.58531561947E+02  0.91271528818E+01  0.14917768188E+03  0.12500000000E+03 0.  0.
         25    1    1    2    0    0  0.72122848990E+02  0.90637081681E+02 -0.95728954242E+01  0.17068516704E+03  0.12500000000E+03 0.  0.
</event>
<event>
 5    0  0.5619558E-005  0.3037364E+03  0.7546771E-02  0.1083388E+00
         21   -1    0    0  502  501  0.00000000000E+00  0.00000000000E+00  0.67902146553E+03  0.67902146553E+03  0.00000000000E+00 0.  1.
         21   -1    0    0  501  502 -0.00000000000E+00 -0.00000000000E+00 -0.13586579520E+03  0.13586579520E+03  0.00000000000E+00 0.  1.
         25    1    1    2    0    0 -0.16272762037E+03  0.13608136833E+02  0.70531965290E+02  0.21740565298E+03  0.12500000000E+03 0.  0.
         25    1    1    2    0    0  0.49769609362E+01  0.21583813593E+02  0.67568392737E+02  0.14380931419E+03  0.12500000000E+03 0.  0.
         25    1    1    2    0    0  0.15775065943E+03 -0.35191950426E+02  0.40505531230E+03  0.45367229357E+03  0.12500000000E+03 0.  0.
</event>
<event>
 5    0  0.5619558E-005  0.4441490E+03  0.7546771E-02  0.1029481E+00
         21   -1    0    0  502  501  0.00000000000E+00  0.00000000000E+00  0.10284826095E+04  0.10284826095E+04  0.00000000000E+00 0.  1.
         21   -1    0    0  501  502 -0.00000000000E+00 -0.00000000000E+00 -0.19180525331E+03  0.19180525331E+03  0.00000000000E+00 0.  1.
         25    1    1    2    0    0 -0.26567361849E+02  0.74305541010E+02  0.19319461517E+02  0.14908178874E+03  0.12500000000E+03 0.  0.
         25    1    1    2    0    0 -0.16700050676E+03  0.21964819568E+03  0.25418746858E+03  0.39543743918E+03  0.12500000000E+03 0.  0.
         25    1    1    2    0    0  0.19356786861E+03 -0.29395373669E+03  0.56317042614E+03  0.67576863493E+03  0.12500000000E+03 0.  0.
</event>
<event>
 5    0  0.5619558E-005  0.3332749E+03  0.7546771E-02  0.1069697E+00
         21   -1    0    0  502  501  0.00000000000E+00  0.00000000000E+00  0.36260912711E+03  0.36260912711E+03  0.00000000000E+00 0. -1.
         21   -1    0    0  501  502 -0.00000000000E+00 -0.00000000000E+00 -0.30631368183E+03  0.30631368183E+03  0.00000000000E+00 0. -1.
         25    1    1    2    0    0 -0.19562455518E+02  0.20876658834E+03  0.25371454048E+02  0.24542797061E+03  0.12500000000E+03 0.  0.
         25    1    1    2    0    0  0.13207088225E+03 -0.16707012776E+03  0.39179957331E+02  0.25003042732E+03  0.12500000000E+03 0.  0.
         25    1    1    2    0    0 -0.11250842674E+03 -0.41696460589E+02 -0.82559661034E+01  0.17346441101E+03  0.12500000000E+03 0.  0.
</event>
<event>
 5    0  0.5619558E-005  0.2982322E+03  0.7546771E-02  0.1086128E+00
         21   -1    0    0  502  501  0.00000000000E+00  0.00000000000E+00  0.18947351332E+03  0.18947351332E+03  0.00000000000E+00 0. -1.
         21   -1    0    0  501  502 -0.00000000000E+00 -0.00000000000E+00 -0.46941884698E+03  0.46941884698E+03  0.00000000000E+00 0. -1.
         25    1    1    2    0    0 -0.41701864871E+02  0.11671106845E+03 -0.21042959775E+03  0.27434674162E+03  0.12500000000E+03 0.  0.
         25    1    1    2    0    0 -0.72790549687E+00  0.51223377355E+02 -0.10094630792E+03  0.16864021263E+03  0.12500000000E+03 0.  0.
         25    1    1    2    0    0  0.42429770368E+02 -0.16793444580E+03  0.31430572019E+02  0.21590540604E+03  0.12500000000E+03 0.  0.
</event>
<event>
 5    0  0.5619558E-005  0.4147155E+03  0.7546771E-02  0.1038800E+00
         21   -1    0    0  502  501  0.00000000000E+00  0.00000000000E+00  0.18004019315E+03  0.18004019315E+03  0.00000000000E+00 0. -1.
         21   -1    0    0  501  502 -0.00000000000E+00 -0.00000000000E+00 -0.95528069949E+03  0.95528069949E+03  0.00000000000E+00 0. -1.
         25    1    1    2    0    0 -0.25268305697E+02 -0.21237711928E+02 -0.12398948658E+03  0.17913101480E+03  0.12500000000E+03 0.  0.
         25    1    1    2    0    0  0.27810104157E+03 -0.15011373917E+03 -0.46901315981E+03  0.57920002424E+03  0.12500000000E+03 0.  0.
         25    1    1    2    0    0 -0.25283273587E+03  0.17135145110E+03 -0.18223785995E+03  0.37698985360E+03  0.12500000000E+03 0.  0.
</event>
<event>
 5    0  0.5619558E-005  0.3855903E+03  0.7546771E-02  0.1048887E+00
         21   -1    0    0  502  501  0.00000000000E+00  0.00000000000E+00  0.97609648570E+03  0.97609648570E+03  0.00000000000E+00 0. -1.
         21   -1    0    0  501  502 -0.00000000000E+00 -0.00000000000E+00 -0.15232089777E+03  0.15232089777E+03  0.00000000000E+00 0. -1.
         25    1    1    2    0    0  0.99522953343E+02  0.12552719374E+03  0.42476770813E+03  0.47086569262E+03  0.12500000000E+03 0.  0.
         25    1    1    2    0    0  0.10592377042E+03  0.55106308959E+02  0.20468092856E+02  0.17407036868E+03  0.12500000000E+03 0.  0.
         25    1    1    2    0    0 -0.20544672376E+03 -0.18063350270E+03  0.37853978694E+03  0.48348132218E+03  0.12500000000E+03 0.  0.
</event>
<event>
 5    0  0.5619558E-005  0.2417219E+03  0.7546771E-02  0.1118651E+00
         21   -1    0    0  502  501  0.00000000000E+00  0.00000000000E+00  0.23988425409E+02  0.23988425409E+02  0.00000000000E+00 0.  1.
         21   -1    0    0  501  502 -0.00000000000E+00 -0.00000000000E+00 -0.24357359601E+04  0.24357359601E+04  0.00000000000E+00 0.  1.
         25    1    1    2    0    0  0.10592673657E+03 -0.31938304264E+02 -0.70734736411E+03  0.72677769800E+03  0.12500000000E+03 0.  0.
         25    1    1    2    0    0 -0.72558209577E+00  0.40800479671E+02 -0.48083174028E+03  0.49848707915E+03  0.12500000000E+03 0.  0.
         25    1    1    2    0    0 -0.10520115448E+03 -0.88621754067E+01 -0.12235684303E+04  0.12344596083E+04  0.12500000000E+03 0.  0.
</event>
<event>
 5    0  0.5619558E-005  0.4600585E+03  0.7546771E-02  0.1024764E+00
         21   -1    0    0  502  501  0.00000000000E+00  0.00000000000E+00  0.20055696581E+04  0.20055696581E+04  0.00000000000E+00 0.  1.
         21   -1    0    0  501  502 -0.00000000000E+00 -0.00000000000E+00 -0.10553303223E+03  0.10553303223E+03  0.00000000000E+00 0.  1.
         25    1    1    2    0    0 -0.19561008078E+03 -0.47513012101E+02  0.69307374037E+03  0.73245955493E+03  0.12500000000E+03 0.  0.
         25    1    1    2    0    0  0.12177894549E+03 -0.10476883839E+03  0.59520737984E+02  0.21207154291E+03  0.12500000000E+03 0.  0.
         25    1    1    2    0    0  0.73831135292E+02  0.15228185049E+03  0.11474421475E+04  0.11665715925E+04  0.12500000000E+03 0.  0.
</event>
<event>
 5    0  0.5619558E-005  0.2322182E+03  0.7546771E-02  0.1125088E+00
         21   -1    0    0  502  501  0.00000000000E+00  0.00000000000E+00  0.16664399642E+03  0.16664399642E+03  0.00000000000E+00 0. -1.
         21   -1    0    0  501  502 -0.00000000000E+00 -0.00000000000E+00 -0.32359574894E+03  0.32359574894E+03  0.00000000000E+00 0. -1.
         25    1    1    2    0    0 -0.78522611439E+02 -0.58882058261E+02 -0.15217674026E+03  0.22003558250E+03  0.12500000000E+03 0.  0.
         25    1    1    2    0    0  0.28446048506E+02  0.34516576606E+02  0.63139906272E+01  0.13291139234E+03  0.12500000000E+03 0.  0.
         25    1    1    2    0    0  0.50076562933E+02  0.24365481655E+02 -0.11089002881E+02  0.13729277052E+03  0.12500000000E+03 0.  0.
</event>
<event>
 5    0  0.5619558E-005  0.4096742E+03  0.7546771E-02  0.1040480E+00
         21   -1    0    0  502  501  0.00000000000E+00  0.00000000000E+00  0.16542444055E+03  0.16542444055E+03  0.00000000000E+00 0. -1.
         21   -1    0    0  501  502 -0.00000000000E+00 -0.00000000000E+00 -0.10145593825E+04  0.10145593825E+04  0.00000000000E+00 0. -1.
         25    1    1    2    0    0  0.14254554095E+03 -0.14523046048E+03 -0.59149290952E+03  0.63788712161E+03  0.12500000000E+03 0.  0.
         25    1    1    2    0    0  0.49493482299E+02 -0.60584257305E+02 -0.11653954666E+02  0.14792184316E+03  0.12500000000E+03 0.  0.
         25    1    1    2    0    0 -0.19203902325E+03  0.20581471778E+03 -0.24598807779E+03  0.39417485830E+03  0.12500000000E+03 0.  0.
</event>
<event>
 5    0  0.5619558E-005  0.2685907E+03  0.7546771E-02  0.1102089E+00
         21   -1    0    0  502  501  0.00000000000E+00  0.00000000000E+00  0.12111997351E+03  0.12111997351E+03  0.00000000000E+00 0. -1.
         21   -1    0    0  501  502 -0.00000000000E+00 -0.00000000000E+00 -0.59561586330E+03  0.59561586330E+03  0.00000000000E+00 0. -1.
         25    1    1    2    0    0  0.14473196800E+03  0.98161875134E+02 -0.26446768201E+03  0.34080969927E+03  0.12500000000E+03 0.  0.
         25    1    1    2    0    0 -0.86203625169E+02 -0.46333096430E+02 -0.73332866859E+02  0.17487289721E+03  0.12500000000E+03 0.  0.
         25    1    1    2    0    0 -0.58528342827E+02 -0.51828778704E+02 -0.13669534093E+03  0.20105324033E+03  0.12500000000E+03 0.  0.
</event>
<event>
 5    0  0.5619558E-005  0.3895292E+03  0.7546771E-02  0.1047467E+00
         21   -1    0    0  502  501  0.00000000000E+00  0.00000000000E+00  0.59873443374E+03  0.59873443374E+03  0.00000000000E+00 0.  1.
         21   -1    0    0  501  502 -0.00000000000E+00 -0.00000000000E+00 -0.25342293108E+03  0.25342293108E+03  0.00000000000E+00 0.  1.
         25    1    1    2    0    0  0.14502987170E+03  0.59495420752E+02  0.25729055495E+02  0.20213943967E+03  0.12500000000E+03 0.  0.
         25    1    1    2    0    0 -0.18768203059E+03  0.79975475102E+02  0.37965630058E+03  0.44875887489E+03  0.12500000000E+03 0.  0.
         25    1    1    2    0    0  0.42652158894E+02 -0.13947089585E+03 -0.60073853411E+02  0.20125905026E+03  0.12500000000E+03 0.  0.
</event>
<event>
 5    0  0.5619558E-005  0.3998032E+03  0.7546771E-02  0.1043848E+00
         21   -1    0    0  502  501  0.00000000000E+00  0.00000000000E+00  0.13476608820E+03  0.13476608820E+03  0.00000000000E+00 0.  1.
         21   -1    0    0  501  502 -0.00000000000E+00 -0.00000000000E+00 -0.11860745366E+04  0.11860745366E+04  0.00000000000E+00 0.  1.
         25    1    1    2    0    0  0.80770376990E+02 -0.17596226909E+02 -0.24338608821E+03  0.28582384249E+03  0.12500000000E+03 0.  0.
         25    1    1    2    0    0  0.24185318280E+03  0.56201814088E+02 -0.49098542540E+03  0.56421918958E+03  0.12500000000E+03 0.  0.
         25    1    1    2    0    0 -0.32262355979E+03 -0.38605587179E+02 -0.31693693481E+03  0.47079759275E+03  0.12500000000E+03 0.  0.
</event>
<event>
 5    0  0.5619558E-005  0.4217534E+03  0.7546771E-02  0.1036497E+00
         21   -1    0    0  502  501  0.00000000000E+00  0.00000000000E+00  0.24407660134E+03  0.24407660134E+03  0.00000000000E+00 0. -1.
         21   -1    0    0  501  502 -0.00000000000E+00 -0.00000000000E+00 -0.72877088140E+03  0.72877088140E+03  0.00000000000E+00 0. -1.
         25    1    1    2    0    0  0.21752324711E+03  0.19788741702E+03 -0.18635047015E+03  0.36990173097E+03  0.12500000000E+03 0.  0.
         25    1    1    2    0    0 -0.26678796850E+03 -0.65056797463E+02 -0.28253579422E+03  0.41335176551E+03  0.12500000000E+03 0.  0.
         25    1    1    2    0    0  0.49264721392E+02 -0.13283061956E+03 -0.15808015698E+02  0.18959398626E+03  0.12500000000E+03 0.  0.
</event>
<event>
 5    0  0.5619558E-005  0.3107880E+03  0.7546771E-02  0.1079969E+00
         21   -1    0    0  502  501  0.00000000000E+00  0.00000000000E+00  0.81025545568E+02  0.81025545568E+02  0.00000000000E+00 0.  1.
         21   -1    0    0  501  502 -0.00000000000E+00 -0.00000000000E+00 -0.11920831127E+04  0.11920831127E+04  0.00000000000E+00 0.  1.
         25    1    1    2    0    0  0.87768678404E+01  0.93698126030E+02 -0.36457074305E+03  0.39672811713E+03  0.12500000000E+03 0.  0.
         25    1    1    2    0    0  0.95336904993E+02 -0.65359977650E+02 -0.67552526102E+03  0.69664943150E+03  0.12500000000E+03 0.  0.
         25    1    1    2    0    0 -0.10411377283E+03 -0.28338148380E+02 -0.70961563090E+02  0.17973110967E+03  0.12500000000E+03 0.  0.
</event>
<event>
 5    0  0.5619558E-005  0.2629673E+03  0.7546771E-02  0.1105373E+00
         21   -1    0    0  502  501  0.00000000000E+00  0.00000000000E+00  0.25224625841E+03  0.25224625841E+03  0.00000000000E+00 0.  1.
         21   -1    0    0  501  502 -0.00000000000E+00 -0.00000000000E+00 -0.27414393548E+03  0.27414393548E+03  0.00000000000E+00 0.  1.
         25    1    1    2    0    0 -0.15340675681E+02 -0.46089450991E+02 -0.15490319190E+03  0.20488917171E+03  0.12500000000E+03 0.  0.
         25    1    1    2    0    0 -0.32582929242E+02  0.48878022895E+02  0.12674053181E+03  0.18745364975E+03  0.12500000000E+03 0.  0.
         25    1    1    2    0    0  0.47923604923E+02 -0.27885719049E+01  0.62649830182E+01  0.13404737243E+03  0.12500000000E+03 0.  0.
</event>
<event>
 5    0  0.5619558E-005  0.2861903E+03  0.7546771E-02  0.1092355E+00
         21   -1    0    0  502  501  0.00000000000E+00  0.00000000000E+00  0.49465177605E+03  0.49465177605E+03  0.00000000000E+00 0.  1.
         21   -1    0    0  501  502 -0.00000000000E+00 -0.00000000000E+00 -0.16558087275E+03  0.16558087275E+03  0.00000000000E+00 0.  1.
         25    1    1    2    0    0 -0.63520177663E+02  0.74511136983E+02  0.48622615532E+02  0.16605987247E+03  0.12500000000E+03 0.  0.
         25    1    1    2    0    0  0.51979237043E+02 -0.17809032514E+03  0.83729554729E+02  0.23885904490E+03  0.12500000000E+03 0.  0.
         25    1    1    2    0    0  0.11540940620E+02  0.10357918816E+03  0.19671873303E+03  0.25531373143E+03  0.12500000000E+03 0.  0.
</event>
<event>
 5    0  0.5619558E-005  0.2997240E+03  0.7546771E-02  0.1085379E+00
         21   -1    0    0  502  501  0.00000000000E+00  0.00000000000E+00  0.92818102772E+03  0.92818102772E+03  0.00000000000E+00 0.  1.
         21   -1    0    0  501  502 -0.00000000000E+00 -0.00000000000E+00 -0.96785526160E+02  0.96785526160E+02  0.00000000000E+00 0.  1.
         25    1    1    2    0    0 -0.55901440958E+02 -0.50766517785E+02  0.24882139865E+03  0.28851221613E+03  0.12500000000E+03 0.  0.
         25    1    1    2    0    0 -0.80358964787E+02 -0.36376427995E+02  0.48762819548E+03  0.51106463854E+03  0.12500000000E+03 0.  0.
         25    1    1    2    0    0  0.13626040574E+03  0.87142945780E+02  0.94945907421E+02  0.22538969921E+03  0.12500000000E+03 0.  0.
</event>
<event>
 5    0  0.5619558E-005  0.2575542E+03  0.7546771E-02  0.1108622E+00
         21   -1    0    0  502  501  0.00000000000E+00  0.00000000000E+00  0.12438659150E+03  0.12438659150E+03  0.00000000000E+00 0.  1.
         21   -1    0    0  501  502 -0.00000000000E+00 -0.00000000000E+00 -0.53329037565E+03  0.53329037565E+03  0.00000000000E+00 0.  1.
         25    1    1    2    0    0 -0.10678047372E+03 -0.11136266721E+02 -0.17357509046E+03  0.23933114723E+03  0.12500000000E+03 0.  0.
         25    1    1    2    0    0  0.11049893238E+03 -0.50708561741E+02 -0.41010016492E+02  0.17913177759E+03  0.12500000000E+03 0.  0.
         25    1    1    2    0    0 -0.37184586508E+01  0.61844828462E+02 -0.19431867720E+03  0.23921404234E+03  0.12500000000E+03 0.  0.
</event>
<event>
 5    0  0.5619558E-005  0.3572047E+03  0.7546771E-02  0.1059696E+00
         21   -1    0    0  502  501  0.00000000000E+00  0.00000000000E+00  0.31852751151E+03  0.31852751151E+03  0.00000000000E+00 0.  1.
         21   -1    0    0  501  502 -0.00000000000E+00 -0.00000000000E+00 -0.40057834972E+03  0.40057834972E+03  0.00000000000E+00 0.  1.
         25    1    1    2    0    0 -0.10477038482E+03 -0.10027491952E+03 -0.13037692565E+03  0.23163556670E+03  0.12500000000E+03 0.  0.
         25    1    1    2    0    0  0.13309705207E+03 -0.11985304386E+03  0.75976868193E+02  0.23125107976E+03  0.12500000000E+03 0.  0.
         25    1    1    2    0    0 -0.28326667249E+02  0.22012796338E+03 -0.27650780760E+02  0.25621921477E+03  0.12500000000E+03 0.  0.
</event>
<event>
 5    0  0.5619558E-005  0.3389711E+03  0.7546771E-02  0.1067235E+00
         21   -1    0    0  502  501  0.00000000000E+00  0.00000000000E+00  0.16117997546E+04  0.16117997546E+04  0.00000000000E+00 0.  1.
         21   -1    0    0  501  502 -0.00000000000E+00 -0.00000000000E+00 -0.71287633081E+02  0.71287633081E+02  0.00000000000E+00 0.  1.
         25    1    1    2    0    0 -0.14491258838E+02 -0.21192553617E+03  0.55965138176E+03  0.61152031738E+03  0.12500000000E+03 0.  0.
         25    1    1    2    0    0 -0.94136838044E+01 -0.53401960390E+02  0.34422646036E+03  0.37021242933E+03  0.12500000000E+03 0.  0.
         25    1    1    2    0    0  0.23904942642E+02  0.26532749655E+03  0.63663427940E+03  0.70135464098E+03  0.12500000000E+03 0.  0.
</event>
<event>
 5    0  0.5619558E-005  0.5372706E+03  0.7546771E-02  0.1004484E+00
         21   -1    0    0  502  501  0.00000000000E+00  0.00000000000E+00  0.16124664873E+04  0.16124664873E+04  0.00000000000E+00 0.  1.
         21   -1    0    0  501  502 -0.00000000000E+00 -0.00000000000E+00 -0.17901750098E+03  0.17901750098E+03  0.00000000000E+00 0.  1.
         25    1    1    2    0    0 -0.30528055394E+03  0.10120988988E+02  0.12688840082E+03  0.35358777877E+03  0.12500000000E+03 0.  0.
         25    1    1    2    0    0  0.15796565029E+02  0.28250683022E+01  0.39418329040E+02  0.13204664760E+03  0.12500000000E+03 0.  0.
         25    1    1    2    0    0  0.28948398892E+03 -0.12946057291E+02  0.12671422564E+04  0.13058495619E+04  0.12500000000E+03 0.  0.
</event>
<event>
 5    0  0.5619558E-005  0.3995084E+03  0.7546771E-02  0.1043950E+00
         21   -1    0    0  502  501  0.00000000000E+00  0.00000000000E+00  0.77172883363E+03  0.77172883363E+03  0.00000000000E+00 0. -1.
         21   -1    0    0  501  502 -0.00000000000E+00 -0.00000000000E+00 -0.20681739809E+03  0.20681739809E+03  0.00000000000E+00 0. -1.
         25    1    1    2    0    0 -0.43787234795E+02  0.16703981653E+03  0.82399199660E+02  0.22854813572E+03  0.12500000000E+03 0.  0.
         25    1    1    2    0    0 -0.10263625205E+03 -0.27186888311E+03  0.14605817897E+03  0.34843203280E+03  0.12500000000E+03 0.  0.
         25    1    1    2    0    0  0.14642348684E+03  0.10482906657E+03  0.33645405691E+03  0.40156606319E+03  0.12500000000E+03 0.  0.
</event>
<event>
 5    0  0.5619558E-005  0.2462004E+03  0.7546771E-02  0.1115730E+00
         21   -1    0    0  502  501  0.00000000000E+00  0.00000000000E+00  0.63565931085E+02  0.63565931085E+02  0.00000000000E+00 0.  1.
         21   -1    0    0  501  502 -0.00000000000E+00 -0.00000000000E+00 -0.95357077547E+03  0.95357077547E+03  0.00000000000E+00 0.  1.
         25    1    1    2    0    0  0.95161912876E+02  0.67824124588E+02 -0.37533272239E+03  0.41249915641E+03  0.12500000000E+03 0.  0.
         25    1    1    2    0    0  0.30901811541E+02 -0.18760815130E+02 -0.25493558707E+03  0.28622376508E+03  0.12500000000E+03 0.  0.
         25    1    1    2    0    0 -0.12606372442E+03 -0.49063309458E+02 -0.25973653493E+03  0.31841378507E+03  0.12500000000E+03 0.  0.
</event>
<event>
 5    0  0.5619558E-005  0.3639714E+03  0.7546771E-02  0.1057022E+00
         21   -1    0    0  502  501  0.00000000000E+00  0.00000000000E+00  0.41909261495E+03  0.41909261495E+03  0.00000000000E+00 0.  1.
         21   -1    0    0  501  502 -0.00000000000E+00 -0.00000000000E+00 -0.31610000692E+03  0.31610000692E+03  0.00000000000E+00 0.  1.
         25    1    1    2    0    0 -0.12754032202E+03  0.99947357646E+02 -0.84560465251E+02  0.22143053160E+03  0.12500000000E+03 0.  0.
         25    1    1    2    0    0 -0.80353555220E+02 -0.16122556475E+03  0.13689003822E+03  0.25848454331E+03  0.12500000000E+03 0.  0.
         25    1    1    2    0    0  0.20789387724E+03  0.61278207105E+02  0.50663035065E+02  0.25527754696E+03  0.12500000000E+03 0.  0.
</event>
<event>
 5    0  0.5619558E-005  0.4310122E+03  0.7546771E-02  0.1033541E+00
         21   -1    0    0  502  501  0.00000000000E+00  0.00000000000E+00  0.39140366464E+03  0.39140366464E+03  0.00000000000E+00 0. -1.
         21   -1    0    0  501  502 -0.00000000000E+00 -0.00000000000E+00 -0.47462899569E+03  0.47462899569E+03  0.00000000000E+00 0. -1.
         25    1    1    2    0    0 -0.18636059235E+03 -0.11408849783E+03 -0.35381335358E+03  0.43422959928E+03  0.12500000000E+03 0.  0.
         25    1    1    2    0    0  0.72168277764E+02  0.29998933295E+02  0.12203713683E+03  0.19137988160E+03  0.12500000000E+03 0.  0.
         25    1    1    2    0    0  0.11419231459E+03  0.84089564539E+02  0.14855088570E+03  0.24042317945E+03  0.12500000000E+03 0.  0.
</event>
<event>
 5    0  0.6277738E-005  0.5597774E+03  0.7546771E-02  0.9992558E-01
         21   -1    0    0  502  501  0.00000000000E+00  0.00000000000E+00  0.11219446008E+04  0.11219446008E+04  0.00000000000E+00 0.  1.
         21   -1    0    0  501  502 -0.00000000000E+00 -0.00000000000E+00 -0.27929251243E+03  0.27929251243E+03  0.00000000000E+00 0.  1.
         25    1    1    2    0    0 -0.73538261676E+02 -0.26315220006E+03  0.28764829705E+03  0.41596093461E+03  0.12500000000E+03 0.  0.
         25    1    1    2    0    0  0.12479871845E+03  0.13927971025E+03 -0.14104100231E+03  0.26550164246E+03  0.12500000000E+03 0.  0.
         25    1    1    2    0    0 -0.51260456777E+02  0.12387248981E+03  0.69604479362E+03  0.71977453615E+03  0.12500000000E+03 0.  0.
</event>
<event>
 5    0  0.5619558E-005  0.2798719E+03  0.7546771E-02  0.1095759E+00
         21   -1    0    0  502  501  0.00000000000E+00  0.00000000000E+00  0.40117061792E+02  0.40117061792E+02  0.00000000000E+00 0.  1.
         21   -1    0    0  501  502 -0.00000000000E+00 -0.00000000000E+00 -0.19524924994E+04  0.19524924994E+04  0.00000000000E+00 0.  1.
         25    1    1    2    0    0 -0.72743588721E+02  0.14815398250E+03 -0.59236409250E+03  0.62750414366E+03  0.12500000000E+03 0.  0.
         25    1    1    2    0    0  0.82080878769E+02 -0.91773413220E+02 -0.42800333622E+03  0.46257051987E+03  0.12500000000E+03 0.  0.
         25    1    1    2    0    0 -0.93372900474E+01 -0.56380569283E+02 -0.89200800884E+03  0.90253489761E+03  0.12500000000E+03 0.  0.
</event>
<event>
 5    0  0.5619558E-005  0.2467401E+03  0.7546771E-02  0.1115382E+00
         21   -1    0    0  502  501  0.00000000000E+00  0.00000000000E+00  0.48898619390E+02  0.48898619390E+02  0.00000000000E+00 0. -1.
         21   -1    0    0  501  502 -0.00000000000E+00 -0.00000000000E+00 -0.12450388113E+04  0.12450388113E+04  0.00000000000E+00 0. -1.
         25    1    1    2    0    0  0.93903216816E+02 -0.40996888294E+02 -0.33129198162E+03  0.36861624498E+03  0.12500000000E+03 0.  0.
         25    1    1    2    0    0 -0.14354842568E+03  0.78761996591E+01 -0.49987213497E+03  0.53494423668E+03  0.12500000000E+03 0.  0.
         25    1    1    2    0    0  0.49645208867E+02  0.33120688635E+02 -0.36497607534E+03  0.39037694905E+03  0.12500000000E+03 0.  0.
</event>
<event>
 5    0  0.5619558E-005  0.2802209E+03  0.7546771E-02  0.1095568E+00
         21   -1    0    0  502  501  0.00000000000E+00  0.00000000000E+00  0.63236783219E+03  0.63236783219E+03  0.00000000000E+00 0.  1.
         21   -1    0    0  501  502 -0.00000000000E+00 -0.00000000000E+00 -0.12417421330E+03  0.12417421330E+03  0.00000000000E+00 0.  1.
         25    1    1    2    0    0  0.11389360531E+03  0.81904812674E+01  0.77772290834E+02  0.18631255067E+03  0.12500000000E+03 0.  0.
         25    1    1    2    0    0 -0.16869504197E+03  0.85473442812E+01  0.15085572973E+03  0.25867648805E+03  0.12500000000E+03 0.  0.
         25    1    1    2    0    0  0.54801436657E+02 -0.16737825549E+02  0.27956559832E+03  0.31155300677E+03  0.12500000000E+03 0.  0.
</event>
<event>
 5    0  0.5619558E-005  0.2784516E+03  0.7546771E-02  0.1096538E+00
         21   -1    0    0  502  501  0.00000000000E+00  0.00000000000E+00  0.35115520152E+03  0.35115520152E+03  0.00000000000E+00 0.  1.
         21   -1    0    0  501  502 -0.00000000000E+00 -0.00000000000E+00 -0.22080061861E+03  0.22080061861E+03  0.00000000000E+00 0.  1.
         25    1    1    2    0    0  0.12442549064E+03  0.11992198336E+03  0.15635171229E+03  0.26445007610E+03  0.12500000000E+03 0.  0.
         25    1    1    2    0    0 -0.75112404420E+02 -0.52302564714E+02 -0.25891419362E+02  0.15707576888E+03  0.12500000000E+03 0.  0.
         25    1    1    2    0    0 -0.49313086221E+02 -0.67619418645E+02 -0.10571001569E+00  0.15042997516E+03  0.12500000000E+03 0.  0.
</event>
<event>
 5    0  0.5619558E-005  0.3066842E+03  0.7546771E-02  0.1081946E+00
         21   -1    0    0  502  501  0.00000000000E+00  0.00000000000E+00  0.25963262776E+03  0.25963262776E+03  0.00000000000E+00 0.  1.
         21   -1    0    0  501  502 -0.00000000000E+00 -0.00000000000E+00 -0.36226262426E+03  0.36226262426E+03  0.00000000000E+00 0.  1.
         25    1    1    2    0    0 -0.36441804673E+02 -0.21108530918E+02  0.10062451542E+03  0.16590318957E+03  0.12500000000E+03 0.  0.
         25    1    1    2    0    0  0.80289116712E+02  0.12916447640E+03 -0.20610911697E+03  0.28501889819E+03  0.12500000000E+03 0.  0.
         25    1    1    2    0    0 -0.43847312039E+02 -0.10805594548E+03  0.28546050516E+01  0.17097316426E+03  0.12500000000E+03 0.  0.
</event>
<event>
 5    0  0.5619558E-005  0.3042439E+03  0.7546771E-02  0.1083138E+00
         21   -1    0    0  502  501  0.00000000000E+00  0.00000000000E+00  0.12291355362E+03  0.12291355362E+03  0.00000000000E+00 0. -1.
         21   -1    0    0  501  502 -0.00000000000E+00 -0.00000000000E+00 -0.75308516370E+03  0.75308516370E+03  0.00000000000E+00 0. -1.
         25    1    1    2    0    0  0.10796947289E+03  0.96837348350E+02 -0.16315930724E+03  0.25155682986E+03  0.12500000000E+03 0.  0.
         25    1    1    2    0    0 -0.17686811361E+03 -0.12472029828E+03 -0.38046073208E+03  0.45520638294E+03  0.12500000000E+03 0.  0.
         25    1    1    2    0    0  0.68898640721E+02  0.27882949929E+02 -0.86551570762E+02  0.16923550452E+03  0.12500000000E+03 0.  0.
</event>
<event>
 5    0  0.6732186E-005  0.5451387E+03  0.7546771E-02  0.1002625E+00
         21   -1    0    0  502  501  0.00000000000E+00  0.00000000000E+00  0.48857104439E+03  0.48857104439E+03  0.00000000000E+00 0. -1.
         21   -1    0    0  501  502 -0.00000000000E+00 -0.00000000000E+00 -0.60825587338E+03  0.60825587338E+03  0.00000000000E+00 0. -1.
         25    1    1    2    0    0  0.18199744734E+03 -0.23976961923E+03 -0.63593908670E+02  0.33208692592E+03  0.12500000000E+03 0.  0.
         25    1    1    2    0    0 -0.82390672941E+02  0.16356839643E+03 -0.35427448550E+03  0.41794527678E+03  0.12500000000E+03 0.  0.
         25    1    1    2    0    0 -0.99606774398E+02  0.76201222798E+02  0.29818356518E+03  0.34679471508E+03  0.12500000000E+03 0.  0.
</event>
<event>
 5    0  0.5619558E-005  0.2479967E+03  0.7546771E-02  0.1114577E+00
         21   -1    0    0  502  501  0.00000000000E+00  0.00000000000E+00  0.37742895951E+03  0.37742895951E+03  0.00000000000E+00 0.  1.
         21   -1    0    0  501  502 -0.00000000000E+00 -0.00000000000E+00 -0.16295083118E+03  0.16295083118E+03  0.00000000000E+00 0.  1.
         25    1    1    2    0    0 -0.51135637415E+01 -0.60054124811E+02  0.43555383421E+02  0.14544661517E+03  0.12500000000E+03 0.  0.
         25    1    1    2    0    0  0.73308386419E+02 -0.18877651819E+02 -0.16048596043E+02  0.14701375001E+03  0.12500000000E+03 0.  0.
         25    1    1    2    0    0 -0.68194822677E+02  0.78931776630E+02  0.18697134096E+03  0.24791942550E+03  0.12500000000E+03 0.  0.
</event>
<event>
 5    0  0.5619558E-005  0.4294802E+03  0.7546771E-02  0.1034024E+00
         21   -1    0    0  502  501  0.00000000000E+00  0.00000000000E+00  0.93795322587E+03  0.93795322587E+03  0.00000000000E+00 0. -1.
         21   -1    0    0  501  502 -0.00000000000E+00 -0.00000000000E+00 -0.19665502177E+03  0.19665502177E+03  0.00000000000E+00 0. -1.
         25    1    1    2    0    0  0.19085669468E+01  0.81861788543E+02  0.27726027891E+03  0.31496548591E+03  0.12500000000E+03 0.  0.
         25    1    1    2    0    0 -0.17098966801E+01 -0.13839845786E+03 -0.11863637697E+03  0.22103539722E+03  0.12500000000E+03 0.  0.
         25    1    1    2    0    0 -0.19867026672E+00  0.56536669315E+02  0.58267430216E+03  0.59860736451E+03  0.12500000000E+03 0.  0.
</event>
<event>
 5    0  0.5619558E-005  0.4412435E+03  0.7546771E-02  0.1030366E+00
         21   -1    0    0  502  501  0.00000000000E+00  0.00000000000E+00  0.31132159238E+03  0.31132159238E+03  0.00000000000E+00 0. -1.
         21   -1    0    0  501  502 -0.00000000000E+00 -0.00000000000E+00 -0.62538493978E+03  0.62538493978E+03  0.00000000000E+00 0.  1.
         25    1    1    2    0    0  0.18106132910E+03  0.30440434101E+02  0.54322913817E+00  0.22211510534E+03  0.12500000000E+03 0.  0.
         25    1    1    2    0    0 -0.24485756577E+03 -0.10251014562E+03 -0.42898594116E+03  0.51972828977E+03  0.12500000000E+03 0.  0.
         25    1    1    2    0    0  0.63796236677E+02  0.72069711523E+02  0.11437936462E+03  0.19486313706E+03  0.12500000000E+03 0.  0.
</event>
<event>
 5    0  0.5619558E-005  0.3574907E+03  0.7546771E-02  0.1059582E+00
         21   -1    0    0  502  501  0.00000000000E+00  0.00000000000E+00  0.59880791600E+03  0.59880791600E+03  0.00000000000E+00 0.  1.
         21   -1    0    0  501  502 -0.00000000000E+00 -0.00000000000E+00 -0.21342337358E+03  0.21342337358E+03  0.00000000000E+00 0.  1.
         25    1    1    2    0    0  0.20924624829E+03 -0.98071142429E+02  0.81605166960E+02  0.27511151316E+03  0.12500000000E+03 0.  0.
         25    1    1    2    0    0 -0.25362187146E+03  0.40008060804E+02  0.13848936939E+03  0.31737832952E+03  0.12500000000E+03 0.  0.
         25    1    1    2    0    0  0.44375623170E+02  0.58063081625E+02  0.16529000607E+03  0.21974144690E+03  0.12500000000E+03 0.  0.
</event>
<event>
 5    0  0.5619558E-005  0.2840318E+03  0.7546771E-02  0.1093507E+00
         21   -1    0    0  502  501  0.00000000000E+00  0.00000000000E+00  0.36768086014E+03  0.36768086014E+03  0.00000000000E+00 0.  1.
         21   -1    0    0  501  502 -0.00000000000E+00 -0.00000000000E+00 -0.21941323897E+03  0.21941323897E+03  0.00000000000E+00 0.  1.
         25    1    1    2    0    0  0.75634315857E+02 -0.20251904545E+02  0.14960821894E+03  0.21009119103E+03  0.12500000000E+03 0.  0.
         25    1    1    2    0    0  0.69104611981E+02  0.24685637896E+00  0.85012146349E+02  0.16621544261E+03  0.12500000000E+03 0.  0.
         25    1    1    2    0    0 -0.14473892784E+03  0.20005048166E+02 -0.86352744119E+02  0.21078746547E+03  0.12500000000E+03 0.  0.
</event>
<event>
 5    0  0.5619558E-005  0.3450118E+03  0.7546771E-02  0.1064681E+00
         21   -1    0    0  502  501  0.00000000000E+00  0.00000000000E+00  0.14126192036E+03  0.14126192036E+03  0.00000000000E+00 0.  1.
         21   -1    0    0  501  502 -0.00000000000E+00 -0.00000000000E+00 -0.84264134903E+03  0.84264134903E+03  0.00000000000E+00 0.  1.
         25    1    1    2    0    0 -0.21692813415E+03  0.11947595965E+03 -0.24134187820E+03  0.36769990820E+03  0.12500000000E+03 0.  0.
         25    1    1    2    0    0  0.14473224305E+03 -0.12446492624E+03 -0.14693794263E+03  0.27139399224E+03  0.12500000000E+03 0.  0.
         25    1    1    2    0    0  0.72195891091E+02  0.49889665888E+01 -0.31309960784E+03  0.34480936894E+03  0.12500000000E+03 0.  0.
</event>
<event>
 5    0  0.5619558E-005  0.4789849E+03  0.7546771E-02  0.1019415E+00
         21   -1    0    0  502  501  0.00000000000E+00  0.00000000000E+00  0.31629784924E+03  0.31629784924E+03  0.00000000000E+00 0. -1.
         21   -1    0    0  501  502 -0.00000000000E+00 -0.00000000000E+00 -0.72534955770E+03  0.72534955770E+03  0.00000000000E+00 0. -1.
         25    1    1    2    0    0  0.14990747397E+03 -0.62805001442E+02 -0.39768919301E+03  0.44743537320E+03  0.12500000000E+03 0.  0.
         25    1    1    2    0    0 -0.94567897818E+02 -0.11928990845E+03 -0.21296567022E+03  0.29009058283E+03  0.12500000000E+03 0.  0.
         25    1    1    2    0    0 -0.55339576147E+02  0.18209490989E+03  0.20160315477E+03  0.30412145092E+03  0.12500000000E+03 0.  0.
</event>
<event>
 5    0  0.5619558E-005  0.2783124E+03  0.7546771E-02  0.1096614E+00
         21   -1    0    0  502  501  0.00000000000E+00  0.00000000000E+00  0.40441533958E+03  0.40441533958E+03  0.00000000000E+00 0.  1.
         21   -1    0    0  501  502 -0.00000000000E+00 -0.00000000000E+00 -0.19153031392E+03  0.19153031392E+03  0.00000000000E+00 0.  1.
         25    1    1    2    0    0  0.10293377790E+03  0.71849613427E+02  0.66475630140E+02  0.18921347464E+03  0.12500000000E+03 0.  0.
         25    1    1    2    0    0 -0.86453786620E+02  0.24328827442E+02 -0.42895101460E+02  0.15978466383E+03  0.12500000000E+03 0.  0.
         25    1    1    2    0    0 -0.16479991284E+02 -0.96178440870E+02  0.18930449699E+03  0.24694751503E+03  0.12500000000E+03 0.  0.
</event>
<event>
 5    0  0.5619558E-005  0.4238852E+03  0.7546771E-02  0.1035809E+00
         21   -1    0    0  502  501  0.00000000000E+00  0.00000000000E+00  0.16690946541E+04  0.16690946541E+04  0.00000000000E+00 0.  1.
         21   -1    0    0  501  502 -0.00000000000E+00 -0.00000000000E+00 -0.10765039033E+03  0.10765039033E+03  0.00000000000E+00 0.  1.
         25    1    1    2    0    0  0.19265313949E+03 -0.17497483611E+02  0.28025814762E+03  0.36275477032E+03  0.12500000000E+03 0.  0.
         25    1    1    2    0    0 -0.35907372465E+03  0.57182831833E+02  0.87874553390E+03  0.95917804882E+03  0.12500000000E+03 0.  0.
         25    1    1    2    0    0  0.16642058516E+03 -0.39685348222E+02  0.40244058224E+03  0.45481222528E+03  0.12500000000E+03 0.  0.
</event>
<event>
 5    0  0.5619558E-005  0.3417255E+03  0.7546771E-02  0.1066063E+00
         21   -1    0    0  502  501  0.00000000000E+00  0.00000000000E+00  0.11047020611E+04  0.11047020611E+04  0.00000000000E+00 0.  1.
         21   -1    0    0  501  502 -0.00000000000E+00 -0.00000000000E+00 -0.10570841381E+03  0.10570841381E+03  0.00000000000E+00 0. -1.
         25    1    1    2    0    0 -0.11337696620E+03 -0.19014836181E+03  0.28234298238E+03  0.37993854196E+03  0.12500000000E+03 0.  0.
         25    1    1    2    0    0 -0.46104441723E+02 -0.11508674115E+02  0.22348724168E+03  0.26044119552E+03  0.12500000000E+03 0.  0.
         25    1    1    2    0    0  0.15948140792E+03  0.20165703593E+03  0.49316342327E+03  0.57003073747E+03  0.12500000000E+03 0.  0.
</event>
<event>
 5    0  0.5619558E-005  0.2815338E+03  0.7546771E-02  0.1094854E+00
         21   -1    0    0  502  501  0.00000000000E+00  0.00000000000E+00  0.24582486284E+02  0.24582486284E+02  0.00000000000E+00 0. -1.
         21   -1    0    0  501  502 -0.00000000000E+00 -0.00000000000E+00 -0.32242985473E+04  0.32242985473E+04  0.00000000000E+00 0. -1.
         25    1    1    2    0    0 -0.45806694182E+02 -0.28827599035E+02 -0.82611424152E+03  0.83726878823E+03  0.12500000000E+03 0.  0.
         25    1    1    2    0    0 -0.27703927991E+02 -0.88691460551E+01 -0.20606372384E+04  0.20646299905E+04  0.12500000000E+03 0.  0.
         25    1    1    2    0    0  0.73510622173E+02  0.37696745091E+02 -0.31296458103E+03  0.34698225480E+03  0.12500000000E+03 0.  0.
</event>
<event>
 5    0  0.5619558E-005  0.2702847E+03  0.7546771E-02  0.1101117E+00
         21   -1    0    0  502  501  0.00000000000E+00  0.00000000000E+00  0.33659494891E+02  0.33659494891E+02  0.00000000000E+00 0. -1.
         21   -1    0    0  501  502 -0.00000000000E+00 -0.00000000000E+00 -0.21703779926E+04  0.21703779926E+04  0.00000000000E+00 0. -1.
         25    1    1    2    0    0 -0.16163149474E+03  0.36560655681E+01 -0.74984860754E+03  0.77719755606E+03  0.12500000000E+03 0.  0.
         25    1    1    2    0    0  0.86336848684E+02 -0.54945043696E+02 -0.46936689834E+03  0.49639026434E+03  0.12500000000E+03 0.  0.
         25    1    1    2    0    0  0.75294646051E+02  0.51288978128E+02 -0.91750299185E+03  0.93044966712E+03  0.12500000000E+03 0.  0.
</event>
<event>
 5    0  0.5619558E-005  0.3139671E+03  0.7546771E-02  0.1078460E+00
         21   -1    0    0  502  501  0.00000000000E+00  0.00000000000E+00  0.10593178554E+03  0.10593178554E+03  0.00000000000E+00 0.  1.
         21   -1    0    0  501  502 -0.00000000000E+00 -0.00000000000E+00 -0.93055460166E+03  0.93055460166E+03  0.00000000000E+00 0.  1.
         25    1    1    2    0    0 -0.10577072697E+03 -0.10029218350E+03 -0.25653713417E+03  0.32044074329E+03  0.12500000000E+03 0.  0.
         25    1    1    2    0    0  0.11503620888E+03 -0.43572203940E+02 -0.81505555046E+02  0.19339085245E+03  0.12500000000E+03 0.  0.
         25    1    1    2    0    0 -0.92654819025E+01  0.14386438744E+03 -0.48658012691E+03  0.52265479145E+03  0.12500000000E+03 0.  0.
</event>
<event>
 5    0  0.5882767E-005  0.2727904E+03  0.7546771E-02  0.1099693E+00
         21   -1    0    0  502  501  0.00000000000E+00  0.00000000000E+00  0.32165836839E+03  0.32165836839E+03  0.00000000000E+00 0. -1.
         21   -1    0    0  501  502 -0.00000000000E+00 -0.00000000000E+00 -0.23134673432E+03  0.23134673432E+03  0.00000000000E+00 0. -1.
         25    1    1    2    0    0  0.12106659616E+03 -0.46864424800E+02  0.35403170687E+02  0.18366213412E+03  0.12500000000E+03 0.  0.
         25    1    1    2    0    0 -0.12907392194E+03  0.85074264652E+02  0.11007520154E+03  0.22724272887E+03  0.12500000000E+03 0.  0.
         25    1    1    2    0    0  0.80073257866E+01 -0.38209839852E+02 -0.55166738150E+02  0.14210023971E+03  0.12500000000E+03 0.  0.
</event>
<event>
 5    0  0.5619558E-005  0.4108712E+03  0.7546771E-02  0.1040079E+00
         21   -1    0    0  502  501  0.00000000000E+00  0.00000000000E+00  0.31561042449E+03  0.31561042449E+03  0.00000000000E+00 0. -1.
         21   -1    0    0  501  502 -0.00000000000E+00 -0.00000000000E+00 -0.53488444510E+03  0.53488444510E+03  0.00000000000E+00 0. -1.
         25    1    1    2    0    0 -0.76598284416E+02 -0.35127106477E+03 -0.13343317503E+03  0.40334609248E+03  0.12500000000E+03 0.  0.
         25    1    1    2    0    0  0.26155819178E+02  0.15713363924E+03 -0.40342076075E+02  0.20646450193E+03  0.12500000000E+03 0.  0.
         25    1    1    2    0    0  0.50442465238E+02  0.19413742553E+03 -0.45498769496E+02  0.24068427518E+03  0.12500000000E+03 0.  0.
</event>
<event>
 5    0  0.5619558E-005  0.3884587E+03  0.7546771E-02  0.1047851E+00
         21   -1    0    0  502  501  0.00000000000E+00  0.00000000000E+00  0.56827244472E+03  0.56827244472E+03  0.00000000000E+00 0.  1.
         21   -1    0    0  501  502 -0.00000000000E+00 -0.00000000000E+00 -0.26554194406E+03  0.26554194406E+03  0.00000000000E+00 0.  1.
         25    1    1    2    0    0 -0.20185591516E+03  0.10813297048E+03 -0.45506514280E+02  0.26482898752E+03  0.12500000000E+03 0.  0.
         25    1    1    2    0    0  0.10921200310E+02 -0.12911084157E+03  0.39219413032E+02  0.18426080535E+03  0.12500000000E+03 0.  0.
         25    1    1    2    0    0  0.19093471485E+03  0.20977871095E+02  0.30901760191E+03  0.38472459591E+03  0.12500000000E+03 0.  0.
</event>
<event>
 5    0  0.5619558E-005  0.4757588E+03  0.7546771E-02  0.1020307E+00
         21   -1    0    0  502  501  0.00000000000E+00  0.00000000000E+00  0.66086584309E+03  0.66086584309E+03  0.00000000000E+00 0.  1.
         21   -1    0    0  501  502 -0.00000000000E+00 -0.00000000000E+00 -0.34249981345E+03  0.34249981345E+03  0.00000000000E+00 0.  1.
         25    1    1    2    0    0  0.33919907774E+03  0.17373640808E+03  0.45626274510E+02  0.40366707911E+03  0.12500000000E+03 0.  0.
         25    1    1    2    0    0 -0.12754241599E+03 -0.22768111027E+01 -0.21270951497E+02  0.17986023775E+03  0.12500000000E+03 0.  0.
         25    1    1    2    0    0 -0.21165666175E+03 -0.17145959697E+03  0.29401070663E+03  0.41983833969E+03  0.12500000000E+03 0.  0.
</event>
<event>
 5    0  0.5619558E-005  0.4595755E+03  0.7546771E-02  0.1024904E+00
         21   -1    0    0  502  501  0.00000000000E+00  0.00000000000E+00  0.10804443825E+03  0.10804443825E+03  0.00000000000E+00 0.  1.
         21   -1    0    0  501  502 -0.00000000000E+00 -0.00000000000E+00 -0.19548405982E+04  0.19548405982E+04  0.00000000000E+00 0.  1.
         25    1    1    2    0    0  0.13096373364E+03  0.20813769831E+03 -0.34327750469E+03  0.44038306758E+03  0.12500000000E+03 0.  0.
         25    1    1    2    0    0  0.53064959818E+02  0.13731653874E+03 -0.59069654369E+03  0.62146530756E+03  0.12500000000E+03 0.  0.
         25    1    1    2    0    0 -0.18402869346E+03 -0.34545423704E+03 -0.91282211159E+03  0.10010366613E+04  0.12500000000E+03 0.  0.
</event>
<event>
 5    0  0.5619558E-005  0.2281775E+03  0.7546771E-02  0.1127929E+00
         21   -1    0    0  502  501  0.00000000000E+00  0.00000000000E+00  0.36195181430E+04  0.36195181430E+04  0.00000000000E+00 0.  1.
         21   -1    0    0  501  502 -0.00000000000E+00 -0.00000000000E+00 -0.14384509666E+02  0.14384509666E+02  0.00000000000E+00 0.  1.
         25    1    1    2    0    0  0.26679609673E+02  0.67622310605E+02  0.14984692220E+04  0.15054300341E+04  0.12500000000E+03 0.  0.
         25    1    1    2    0    0 -0.75120521626E+02 -0.42072168066E+01  0.13121551047E+04  0.13202411947E+04  0.12500000000E+03 0.  0.
         25    1    1    2    0    0  0.48440911953E+02 -0.63415093798E+02  0.79450930662E+03  0.80823142377E+03  0.12500000000E+03 0.  0.
</event>
<event>
 5    0  0.5619558E-005  0.3343258E+03  0.7546771E-02  0.1069239E+00
         21   -1    0    0  502  501  0.00000000000E+00  0.00000000000E+00  0.16802114785E+04  0.16802114785E+04  0.00000000000E+00 0. -1.
         21   -1    0    0  501  502 -0.00000000000E+00 -0.00000000000E+00 -0.66523610322E+02  0.66523610322E+02  0.00000000000E+00 0. -1.
         25    1    1    2    0    0  0.91314519039E+02 -0.60545699520E+02  0.23894897718E+03  0.29107685723E+03  0.12500000000E+03 0.  0.
         25    1    1    2    0    0 -0.15596064959E+03 -0.66014810841E+02  0.11125874389E+04  0.11323239328E+04  0.12500000000E+03 0.  0.
         25    1    1    2    0    0  0.64646130548E+02  0.12656051036E+03  0.26215145211E+03  0.32333429886E+03  0.12500000000E+03 0.  0.
</event>
<event>
 5    0  0.5619558E-005  0.3288977E+03  0.7546771E-02  0.1071626E+00
         21   -1    0    0  502  501  0.00000000000E+00  0.00000000000E+00  0.43422606067E+03  0.43422606067E+03  0.00000000000E+00 0. -1.
         21   -1    0    0  501  502 -0.00000000000E+00 -0.00000000000E+00 -0.24911844104E+03  0.24911844104E+03  0.00000000000E+00 0. -1.
         25    1    1    2    0    0  0.36050931232E+02 -0.84505814426E+02 -0.60258651132E+02  0.16642417898E+03  0.12500000000E+03 0.  0.
         25    1    1    2    0    0 -0.18680773949E+03 -0.25333569422E+02  0.15833832601E+03  0.27610676695E+03  0.12500000000E+03 0.  0.
         25    1    1    2    0    0  0.15075680825E+03  0.10983938385E+03  0.87027944754E+02  0.24081355578E+03  0.12500000000E+03 0.  0.
</event>
<event>
 5    0  0.5619558E-005  0.2695344E+03  0.7546771E-02  0.1101546E+00
         21   -1    0    0  502  501  0.00000000000E+00  0.00000000000E+00  0.44224579614E+03  0.44224579614E+03  0.00000000000E+00 0.  1.
         21   -1    0    0  501  502 -0.00000000000E+00 -0.00000000000E+00 -0.16427247380E+03  0.16427247380E+03  0.00000000000E+00 0.  1.
         25    1    1    2    0    0  0.47584291530E+02  0.52055668517E+02  0.54363268743E+02  0.15347450086E+03  0.12500000000E+03 0.  0.
         25    1    1    2    0    0 -0.78185456539E+02 -0.15566949786E+03  0.18543198246E+03  0.28347130066E+03  0.12500000000E+03 0.  0.
         25    1    1    2    0    0  0.30601165009E+02  0.10361382934E+03  0.38178071125E+02  0.16957246842E+03  0.12500000000E+03 0.  0.
</event>
<event>
 5    0  0.5619558E-005  0.7932504E+03  0.7546771E-02  0.9569839E-01
         21   -1    0    0  502  501  0.00000000000E+00  0.00000000000E+00  0.79708424828E+03  0.79708424828E+03  0.00000000000E+00 0.  1.
         21   -1    0    0  501  502 -0.00000000000E+00 -0.00000000000E+00 -0.78943493674E+03  0.78943493674E+03  0.00000000000E+00 0.  1.
         25    1    1    2    0    0 -0.60300995309E+03 -0.40707836302E+03  0.45674631076E+02  0.73962488403E+03  0.12500000000E+03 0.  0.
         25    1    1    2    0    0  0.37512972343E+03  0.30860804676E+03 -0.18236798459E+03  0.53370808288E+03  0.12500000000E+03 0.  0.
         25    1    1    2    0    0  0.22788022966E+03  0.98470316253E+02  0.14434266506E+03  0.31318621811E+03  0.12500000000E+03 0.  0.
</event>
<event>
 5    0  0.5619558E-005  0.2653037E+03  0.7546771E-02  0.1103998E+00
         21   -1    0    0  502  501  0.00000000000E+00  0.00000000000E+00  0.33558254108E+03  0.33558254108E+03  0.00000000000E+00 0.  1.
         21   -1    0    0  501  502 -0.00000000000E+00 -0.00000000000E+00 -0.20974294813E+03  0.20974294813E+03  0.00000000000E+00 0.  1.
         25    1    1    2    0    0 -0.13580075691E+02 -0.13327315731E+03  0.31569772166E+01  0.18325151956E+03  0.12500000000E+03 0.  0.
         25    1    1    2    0    0 -0.48123424174E+02  0.75496052035E+02 -0.19198827488E+02  0.15494874251E+03  0.12500000000E+03 0.  0.
         25    1    1    2    0    0  0.61703499865E+02  0.57777105278E+02  0.14188144322E+03  0.20712522714E+03  0.12500000000E+03 0.  0.
</event>
<event>
 5    0  0.5619558E-005  0.3233529E+03  0.7546771E-02  0.1074116E+00
         21   -1    0    0  502  501  0.00000000000E+00  0.00000000000E+00  0.25011676919E+02  0.25011676919E+02  0.00000000000E+00 0. -1.
         21   -1    0    0  501  502 -0.00000000000E+00 -0.00000000000E+00 -0.41803308378E+04  0.41803308378E+04  0.00000000000E+00 0. -1.
         25    1    1    2    0    0  0.14695252660E+03 -0.30228472771E+01 -0.11808564600E+04  0.11965162605E+04  0.12500000000E+03 0.  0.
         25    1    1    2    0    0 -0.25299378280E+03 -0.33120138292E+02 -0.17509412237E+04  0.17738441212E+04  0.12500000000E+03 0.  0.
         25    1    1    2    0    0  0.10604125620E+03  0.36142985569E+02 -0.12235214772E+04  0.12349821329E+04  0.12500000000E+03 0.  0.
</event>
<event>
 5    0  0.5619558E-005  0.2993460E+03  0.7546771E-02  0.1085568E+00
         21   -1    0    0  502  501  0.00000000000E+00  0.00000000000E+00  0.54243398868E+02  0.54243398868E+02  0.00000000000E+00 0.  1.
         21   -1    0    0  501  502 -0.00000000000E+00 -0.00000000000E+00 -0.16519619095E+04  0.16519619095E+04  0.00000000000E+00 0.  1.
         25    1    1    2    0    0 -0.75782928694E+02 -0.82635336408E+02 -0.26810239538E+03  0.31634719141E+03  0.12500000000E+03 0.  0.
         25    1    1    2    0    0 -0.10546545511E+03  0.27737792940E+02 -0.73328160183E+03  0.75181065100E+03  0.12500000000E+03 0.  0.
         25    1    1    2    0    0  0.18124838380E+03  0.54897543468E+02 -0.59633451338E+03  0.63804746592E+03  0.12500000000E+03 0.  0.
</event>
<event>
 5    0  0.5619558E-005  0.2787538E+03  0.7546771E-02  0.1096372E+00
         21   -1    0    0  502  501  0.00000000000E+00  0.00000000000E+00  0.20556727874E+04  0.20556727874E+04  0.00000000000E+00 0. -1.
         21   -1    0    0  501  502 -0.00000000000E+00 -0.00000000000E+00 -0.37799633400E+02  0.37799633400E+02  0.00000000000E+00 0. -1.
         25    1    1    2    0    0 -0.18468544512E+02 -0.14878434473E+03  0.12651500905E+04  0.12801201584E+04  0.12500000000E+03 0.  0.
         25    1    1    2    0    0  0.49441075985E+02  0.96272415827E+02  0.47085395249E+03  0.49904032164E+03  0.12500000000E+03 0.  0.
         25    1    1    2    0    0 -0.30972531473E+02  0.52511928900E+02  0.28186911098E+03  0.31431194077E+03  0.12500000000E+03 0.  0.
</event>
<event>
 5    0  0.5619558E-005  0.3008818E+03  0.7546771E-02  0.1084801E+00
         21   -1    0    0  502  501  0.00000000000E+00  0.00000000000E+00  0.73611652126E+03  0.73611652126E+03  0.00000000000E+00 0.  1.
         21   -1    0    0  501  502 -0.00000000000E+00 -0.00000000000E+00 -0.12298302856E+03  0.12298302856E+03  0.00000000000E+00 0.  1.
         25    1    1    2    0    0  0.90213747335E+01 -0.10951152993E+03  0.29694427179E+03  0.34040426105E+03  0.12500000000E+03 0.  0.
         25    1    1    2    0    0 -0.13751642600E+03 -0.13796037363E+02  0.97946457480E+02  0.21052222353E+03  0.12500000000E+03 0.  0.
         25    1    1    2    0    0  0.12849505127E+03  0.12330756729E+03  0.21824276343E+03  0.30817306524E+03  0.12500000000E+03 0.  0.
</event>
<event>
 5    0  0.6513175E-005  0.2805078E+03  0.7546771E-02  0.1095412E+00
         21   -1    0    0  502  501  0.00000000000E+00  0.00000000000E+00  0.15576739182E+03  0.15576739182E+03  0.00000000000E+00 0. -1.
         21   -1    0    0  501  502 -0.00000000000E+00 -0.00000000000E+00 -0.50514194430E+03  0.50514194430E+03  0.00000000000E+00 0. -1.
         25    1    1    2    0    0  0.11441274043E+03  0.44107946686E+02 -0.19209647727E+03  0.25992661024E+03  0.12500000000E+03 0.  0.
         25    1    1    2    0    0 -0.60889122996E+02 -0.23813389569E+02  0.52203244121E+02  0.15041523034E+03  0.12500000000E+03 0.  0.
         25    1    1    2    0    0 -0.53523617433E+02 -0.20294557117E+02 -0.20948131933E+03  0.25056749554E+03  0.12500000000E+03 0.  0.
</event>
<event>
 5    0  0.5619558E-005  0.3566402E+03  0.7546771E-02  0.1059922E+00
         21   -1    0    0  502  501  0.00000000000E+00  0.00000000000E+00  0.14410537743E+04  0.14410537743E+04  0.00000000000E+00 0. -1.
         21   -1    0    0  501  502 -0.00000000000E+00 -0.00000000000E+00 -0.88263373442E+02  0.88263373442E+02  0.00000000000E+00 0. -1.
         25    1    1    2    0    0 -0.12538148815E+03  0.24505805088E+02  0.19265222660E+03  0.26279446811E+03  0.12500000000E+03 0.  0.
         25    1    1    2    0    0  0.93566492211E+01  0.34441144521E+01  0.10587585028E+04  0.10661585136E+04  0.12500000000E+03 0.  0.
         25    1    1    2    0    0  0.11602483893E+03 -0.27949919540E+02  0.10137967143E+03  0.20036416603E+03  0.12500000000E+03 0.  0.
</event>
<event>
 5    0  0.5619558E-005  0.2586867E+03  0.7546771E-02  0.1107935E+00
         21   -1    0    0  502  501  0.00000000000E+00  0.00000000000E+00  0.17530016255E+03  0.17530016255E+03  0.00000000000E+00 0.  1.
         21   -1    0    0  501  502 -0.00000000000E+00 -0.00000000000E+00 -0.38173856496E+03  0.38173856496E+03  0.00000000000E+00 0.  1.
         25    1    1    2    0    0 -0.61026460334E+02  0.73935468863E+00  0.65368585131E+02  0.15369719395E+03  0.12500000000E+03 0.  0.
         25    1    1    2    0    0  0.92553223984E+02 -0.13763184856E+02 -0.90433422312E+02  0.18044037353E+03  0.12500000000E+03 0.  0.
         25    1    1    2    0    0 -0.31526763650E+02  0.13023830167E+02 -0.18137356523E+03  0.22290116003E+03  0.12500000000E+03 0.  0.
</event>
<event>
 5    0  0.5619558E-005  0.4582380E+03  0.7546771E-02  0.1025293E+00
         21   -1    0    0  502  501  0.00000000000E+00  0.00000000000E+00  0.12211903132E+03  0.12211903132E+03  0.00000000000E+00 0.  1.
         21   -1    0    0  501  502 -0.00000000000E+00 -0.00000000000E+00 -0.17194865613E+04  0.17194865613E+04  0.00000000000E+00 0.  1.
         25    1    1    2    0    0  0.27704064350E+03 -0.28524956295E+02 -0.12886072669E+04  0.13242729626E+04  0.12500000000E+03 0.  0.
         25    1    1    2    0    0 -0.73253325596E+02  0.30028583005E+02 -0.21398392540E+03  0.26015742511E+03  0.12500000000E+03 0.  0.
         25    1    1    2    0    0 -0.20378731790E+03 -0.15036267100E+01 -0.94776337721E+02  0.25717520492E+03  0.12500000000E+03 0.  0.
</event>
<event>
 5    0  0.5619558E-005  0.4102140E+03  0.7546771E-02  0.1040299E+00
         21   -1    0    0  502  501  0.00000000000E+00  0.00000000000E+00  0.48373195134E+03  0.48373195134E+03  0.00000000000E+00 0.  1.
         21   -1    0    0  501  502 -0.00000000000E+00 -0.00000000000E+00 -0.34786939339E+03  0.34786939339E+03  0.00000000000E+00 0.  1.
         25    1    1    2    0    0 -0.91318571287E+02 -0.99940103531E+02  0.33621260316E+03  0.38339407961E+03  0.12500000000E+03 0.  0.
         25    1    1    2    0    0  0.14361025188E+03  0.16280222009E+03 -0.10961465926E+03  0.27343891610E+03  0.12500000000E+03 0.  0.
         25    1    1    2    0    0 -0.52291680590E+02 -0.62862116563E+02 -0.90735385942E+02  0.17476834902E+03  0.12500000000E+03 0.  0.
</event>
<event>
 5    0  0.5619558E-005  0.3495538E+03  0.7546771E-02  0.1062798E+00
         21   -1    0    0  502  501  0.00000000000E+00  0.00000000000E+00  0.85746490418E+02  0.85746490418E+02  0.00000000000E+00 0. -1.
         21   -1    0    0  501  502 -0.00000000000E+00 -0.00000000000E+00 -0.14249897113E+04  0.14249897113E+04  0.00000000000E+00 0. -1.
         25    1    1    2    0    0  0.13370465440E+01 -0.24221704463E+01 -0.46439548394E+03  0.48093224066E+03  0.12500000000E+03 0.  0.
         25    1    1    2    0    0  0.15106829112E+03  0.14586263548E+03 -0.21190151505E+03  0.32345755377E+03  0.12500000000E+03 0.  0.
         25    1    1    2    0    0 -0.15240533766E+03 -0.14344046504E+03 -0.66294622186E+03  0.70634640725E+03  0.12500000000E+03 0.  0.
</event>
<event>
 5    0  0.5619558E-005  0.2896953E+03  0.7546771E-02  0.1090508E+00
         21   -1    0    0  502  501  0.00000000000E+00  0.00000000000E+00  0.70643215883E+02  0.70643215883E+02  0.00000000000E+00 0. -1.
         21   -1    0    0  501  502 -0.00000000000E+00 -0.00000000000E+00 -0.11879888542E+04  0.11879888542E+04  0.00000000000E+00 0. -1.
         25    1    1    2    0    0  0.43782894507E+02  0.36540171507E+02 -0.13774281028E+03  0.19455129856E+03  0.12500000000E+03 0.  0.
         25    1    1    2    0    0 -0.80432665701E+02 -0.17198208100E+03 -0.55548225848E+03  0.60019395980E+03  0.12500000000E+03 0.  0.
         25    1    1    2    0    0  0.36649771194E+02  0.13544190949E+03 -0.42412056957E+03  0.46388681174E+03  0.12500000000E+03 0.  0.
</event>
<event>
 5    0  0.5619558E-005  0.3265903E+03  0.7546771E-02  0.1072656E+00
         21   -1    0    0  502  501  0.00000000000E+00  0.00000000000E+00  0.53693288038E+03  0.53693288038E+03  0.00000000000E+00 0. -1.
         21   -1    0    0  501  502 -0.00000000000E+00 -0.00000000000E+00 -0.19864905053E+03  0.19864905053E+03  0.00000000000E+00 0. -1.
         25    1    1    2    0    0 -0.95375886109E+02  0.50850613515E+02 -0.19521717993E+01  0.16526087111E+03  0.12500000000E+03 0.  0.
         25    1    1    2    0    0  0.72792391810E+02  0.59347025815E+01  0.39507526791E+03  0.42076527936E+03  0.12500000000E+03 0.  0.
         25    1    1    2    0    0  0.22583494298E+02 -0.56785316096E+02 -0.54839266257E+02  0.14955578044E+03  0.12500000000E+03 0.  0.
</event>
<event>
 5    0  0.5619558E-005  0.3450209E+03  0.7546771E-02  0.1064677E+00
         21   -1    0    0  502  501  0.00000000000E+00  0.00000000000E+00  0.83147379173E+02  0.83147379173E+02  0.00000000000E+00 0.  1.
         21   -1    0    0  501  502 -0.00000000000E+00 -0.00000000000E+00 -0.14316677538E+04  0.14316677538E+04  0.00000000000E+00 0.  1.
         25    1    1    2    0    0 -0.14937504020E+03 -0.38055294115E+02 -0.86392970330E+03  0.88643140755E+03  0.12500000000E+03 0.  0.
         25    1    1    2    0    0 -0.65886415112E+02  0.13147017377E+02 -0.11795938357E+03  0.18453530810E+03  0.12500000000E+03 0.  0.
         25    1    1    2    0    0  0.21526145531E+03  0.24908276738E+02 -0.36663128771E+03  0.44384841728E+03  0.12500000000E+03 0.  0.
</event>
<event>
 5    0  0.5619558E-005  0.2623599E+03  0.7546771E-02  0.1105734E+00
         21   -1    0    0  502  501  0.00000000000E+00  0.00000000000E+00  0.58844375177E+02  0.58844375177E+02  0.00000000000E+00 0. -1.
         21   -1    0    0  501  502 -0.00000000000E+00 -0.00000000000E+00 -0.11697414368E+04  0.11697414368E+04  0.00000000000E+00 0. -1.
         25    1    1    2    0    0  0.13288353531E+02  0.24287361999E+02 -0.34959745795E+03  0.37230342316E+03  0.12500000000E+03 0.  0.
         25    1    1    2    0    0 -0.12374954384E+03  0.68122259981E+02 -0.48658119732E+03  0.52186286848E+03  0.12500000000E+03 0.  0.
         25    1    1    2    0    0  0.11046119031E+03 -0.92409621980E+02 -0.27471840637E+03  0.33441952036E+03  0.12500000000E+03 0.  0.
</event>
<event>
 5    0  0.5619558E-005  0.5057718E+03  0.7546771E-02  0.1012283E+00
         21   -1    0    0  502  501  0.00000000000E+00  0.00000000000E+00  0.34778593849E+03  0.34778593849E+03  0.00000000000E+00 0. -1.
         21   -1    0    0  501  502 -0.00000000000E+00 -0.00000000000E+00 -0.73552453025E+03  0.73552453025E+03  0.00000000000E+00 0. -1.
         25    1    1    2    0    0  0.71362810315E+02 -0.82521886141E+02 -0.11973528196E+03  0.20460706277E+03  0.12500000000E+03 0.  0.
         25    1    1    2    0    0 -0.11754650942E+03  0.43057369913E+03 -0.16563060637E+03  0.49220868545E+03  0.12500000000E+03 0.  0.
         25    1    1    2    0    0  0.46183699101E+02 -0.34805181299E+03 -0.10237270343E+03  0.38649472053E+03  0.12500000000E+03 0.  0.
</event>
<event>
 5    0  0.5812972E-005  0.3277331E+03  0.7546771E-02  0.1072144E+00
         21   -1    0    0  502  501  0.00000000000E+00  0.00000000000E+00  0.14197583067E+03  0.14197583067E+03  0.00000000000E+00 0. -1.
         21   -1    0    0  501  502 -0.00000000000E+00 -0.00000000000E+00 -0.75653011438E+03  0.75653011438E+03  0.00000000000E+00 0. -1.
         25    1    1    2    0    0  0.12044951347E+02 -0.13278554726E+03 -0.94652690431E+02  0.20581840107E+03  0.12500000000E+03 0.  0.
         25    1    1    2    0    0  0.14794654912E+03 -0.28640235617E+02 -0.18782954885E+03  0.27131786508E+03  0.12500000000E+03 0.  0.
         25    1    1    2    0    0 -0.15999150047E+03  0.16142578287E+03 -0.33207204443E+03  0.42136967889E+03  0.12500000000E+03 0.  0.
</event>
<event>
 5    0  0.6395703E-005  0.3291487E+03  0.7546771E-02  0.1071514E+00
         21   -1    0    0  502  501  0.00000000000E+00  0.00000000000E+00  0.27906587146E+03  0.27906587146E+03  0.00000000000E+00 0. -1.
         21   -1    0    0  501  502 -0.00000000000E+00 -0.00000000000E+00 -0.38821968584E+03  0.38821968584E+03  0.00000000000E+00 0. -1.
         25    1    1    2    0    0  0.87631314477E+01 -0.90703524714E+02  0.16906771644E+03  0.22915674682E+03  0.12500000000E+03 0.  0.
         25    1    1    2    0    0  0.85447002484E+02  0.15550072617E+02 -0.18974960264E+03  0.24325481844E+03  0.12500000000E+03 0.  0.
         25    1    1    2    0    0 -0.94210133932E+02  0.75153452098E+02 -0.88471928189E+02  0.19487399204E+03  0.12500000000E+03 0.  0.
</event>
<event>
 5    0  0.5789909E-005  0.3261546E+03  0.7546771E-02  0.1072851E+00
         21   -1    0    0  502  501  0.00000000000E+00  0.00000000000E+00  0.18147255061E+03  0.18147255061E+03  0.00000000000E+00 0. -1.
         21   -1    0    0  501  502 -0.00000000000E+00 -0.00000000000E+00 -0.58618701954E+03  0.58618701954E+03  0.00000000000E+00 0. -1.
         25    1    1    2    0    0  0.12139083999E+03  0.87391288727E+02 -0.15502436857E+03  0.24905928658E+03  0.12500000000E+03 0.  0.
         25    1    1    2    0    0  0.18272703419E+02 -0.65967726294E+01 -0.28467782576E+03  0.31151865687E+03  0.12500000000E+03 0.  0.
         25    1    1    2    0    0 -0.13966354341E+03 -0.80794516098E+02  0.34987725401E+02  0.20708162671E+03  0.12500000000E+03 0.  0.
</event>
<event>
 5    0  0.5619558E-005  0.2255878E+03  0.7546771E-02  0.1129784E+00
         21   -1    0    0  502  501  0.00000000000E+00  0.00000000000E+00  0.71626795350E+02  0.71626795350E+02  0.00000000000E+00 0. -1.
         21   -1    0    0  501  502 -0.00000000000E+00 -0.00000000000E+00 -0.71048632121E+03  0.71048632121E+03  0.00000000000E+00 0. -1.
         25    1    1    2    0    0  0.89755635400E+01 -0.29447393029E+02 -0.12708610693E+03  0.18089662317E+03  0.12500000000E+03 0.  0.
         25    1    1    2    0    0 -0.96831369222E+02 -0.57928382656E+01 -0.24025341513E+03  0.28767442452E+03  0.12500000000E+03 0.  0.
         25    1    1    2    0    0  0.87855805682E+02  0.35240231294E+02 -0.27152000379E+03  0.31354206887E+03  0.12500000000E+03 0.  0.
</event>
<event>
 5    0  0.5619558E-005  0.2494108E+03  0.7546771E-02  0.1113678E+00
         21   -1    0    0  502  501  0.00000000000E+00  0.00000000000E+00  0.15558820584E+03  0.15558820584E+03  0.00000000000E+00 0. -1.
         21   -1    0    0  501  502 -0.00000000000E+00 -0.00000000000E+00 -0.39981027641E+03  0.39981027641E+03  0.00000000000E+00 0. -1.
         25    1    1    2    0    0 -0.84025852259E+02  0.84921315588E+00  0.46461946467E+02  0.15762226201E+03  0.12500000000E+03 0.  0.
         25    1    1    2    0    0  0.52354709849E+02 -0.12804657818E+02 -0.10757749134E+03  0.17350184883E+03  0.12500000000E+03 0.  0.
         25    1    1    2    0    0  0.31671142411E+02  0.11955444663E+02 -0.18310652570E+03  0.22427437141E+03  0.12500000000E+03 0.  0.
</event>
<event>
 5    0  0.5619558E-005  0.2670778E+03  0.7546771E-02  0.1102964E+00
         21   -1    0    0  502  501  0.00000000000E+00  0.00000000000E+00  0.15950389298E+04  0.15950389298E+04  0.00000000000E+00 0. -1.
         21   -1    0    0  501  502 -0.00000000000E+00 -0.00000000000E+00 -0.44720273220E+02  0.44720273220E+02  0.00000000000E+00 0. -1.
         25    1    1    2    0    0 -0.71121591340E+02 -0.14140438784E+03  0.72137836994E+03  0.74904287879E+03  0.12500000000E+03 0.  0.
         25    1    1    2    0    0  0.72221876686E+02  0.13381525252E+03  0.57108739035E+03  0.60405987178E+03  0.12500000000E+03 0.  0.
         25    1    1    2    0    0 -0.11002853459E+01  0.75891353208E+01  0.25785289627E+03  0.28665645243E+03  0.12500000000E+03 0.  0.
</event>
<event>
 5    0  0.5619558E-005  0.3264930E+03  0.7546771E-02  0.1072699E+00
         21   -1    0    0  502  501  0.00000000000E+00  0.00000000000E+00  0.14718501858E+03  0.14718501858E+03  0.00000000000E+00 0. -1.
         21   -1    0    0  501  502 -0.00000000000E+00 -0.00000000000E+00 -0.72424277482E+03  0.72424277482E+03  0.00000000000E+00 0. -1.
         25    1    1    2    0    0  0.31421736620E+02 -0.15495886847E+03 -0.17779021275E+03  0.26876371816E+03  0.12500000000E+03 0.  0.
         25    1    1    2    0    0 -0.84091363943E+02  0.29928220326E+02 -0.38862851139E+03  0.41788057591E+03  0.12500000000E+03 0.  0.
         25    1    1    2    0    0  0.52669627323E+02  0.12503064815E+03 -0.10639032098E+02  0.18478349932E+03  0.12500000000E+03 0.  0.
</event>
<event>
 5    0  0.5619558E-005  0.4411763E+03  0.7546771E-02  0.1030387E+00
         21   -1    0    0  502  501  0.00000000000E+00  0.00000000000E+00  0.14756825235E+04  0.14756825235E+04  0.00000000000E+00 0.  1.
         21   -1    0    0  501  502 -0.00000000000E+00 -0.00000000000E+00 -0.13189593579E+03  0.13189593579E+03  0.00000000000E+00 0.  1.
         25    1    1    2    0    0 -0.27069141910E+03  0.51234329730E+02  0.96942482075E+03  0.10155334972E+04  0.12500000000E+03 0.  0.
         25    1    1    2    0    0  0.26865001234E+03 -0.28074416067E+02  0.35528219646E+03  0.46347755187E+03  0.12500000000E+03 0.  0.
         25    1    1    2    0    0  0.20414067572E+01 -0.23159913663E+02  0.19079570468E+02  0.12856741015E+03  0.12500000000E+03 0.  0.
</event>
<event>
 5    0  0.5619558E-005  0.4886124E+03  0.7546771E-02  0.1016795E+00
         21   -1    0    0  502  501  0.00000000000E+00  0.00000000000E+00  0.35420267154E+03  0.35420267154E+03  0.00000000000E+00 0.  1.
         21   -1    0    0  501  502 -0.00000000000E+00 -0.00000000000E+00 -0.67402667135E+03  0.67402667135E+03  0.00000000000E+00 0.  1.
         25    1    1    2    0    0  0.10060960105E+02 -0.17155257647E+03 -0.14243904677E+03  0.25582296898E+03  0.12500000000E+03 0.  0.
         25    1    1    2    0    0 -0.18749036159E+03  0.14573311557E+03 -0.38609264126E+03  0.47019496413E+03  0.12500000000E+03 0.  0.
         25    1    1    2    0    0  0.17742940149E+03  0.25819460902E+02  0.20870768822E+03  0.30221140977E+03  0.12500000000E+03 0.  0.
</event>
<event>
 5    0  0.5619558E-005  0.2566226E+03  0.7546771E-02  0.1109190E+00
         21   -1    0    0  502  501  0.00000000000E+00  0.00000000000E+00  0.51855056891E+03  0.51855056891E+03  0.00000000000E+00 0. -1.
         21   -1    0    0  501  502 -0.00000000000E+00 -0.00000000000E+00 -0.12699849850E+03  0.12699849850E+03  0.00000000000E+00 0. -1.
         25    1    1    2    0    0 -0.80535120782E+02 -0.37612031831E+02  0.23993781476E+03  0.28477311244E+03  0.12500000000E+03 0.  0.
         25    1    1    2    0    0  0.11575623147E+03  0.83236457326E+02  0.92477208418E+02  0.21096171935E+03  0.12500000000E+03 0.  0.
         25    1    1    2    0    0 -0.35221110692E+02 -0.45624425495E+02  0.59137047230E+02  0.14981423562E+03  0.12500000000E+03 0.  0.
</event>
<event>
 5    0  0.5619558E-005  0.2449894E+03  0.7546771E-02  0.1116513E+00
         21   -1    0    0  502  501  0.00000000000E+00  0.00000000000E+00  0.32339414155E+03  0.32339414155E+03  0.00000000000E+00 0.  1.
         21   -1    0    0  501  502 -0.00000000000E+00 -0.00000000000E+00 -0.18559332907E+03  0.18559332907E+03  0.00000000000E+00 0.  1.
         25    1    1    2    0    0 -0.10756480210E+03  0.54252701735E+02  0.59547559310E+02  0.18353325071E+03  0.12500000000E+03 0.  0.
         25    1    1    2    0    0  0.49945378070E+02 -0.66664303696E+02 -0.25865984857E+02  0.15242283080E+03  0.12500000000E+03 0.  0.
         25    1    1    2    0    0  0.57619424026E+02  0.12411601961E+02  0.10411923803E+03  0.17303138910E+03  0.12500000000E+03 0.  0.
</event>
<event>
 5    0  0.5811573E-005  0.2453218E+03  0.7546771E-02  0.1116298E+00
         21   -1    0    0  502  501  0.00000000000E+00  0.00000000000E+00  0.24914664025E+03  0.24914664025E+03  0.00000000000E+00 0.  1.
         21   -1    0    0  501  502 -0.00000000000E+00 -0.00000000000E+00 -0.24155558565E+03  0.24155558565E+03  0.00000000000E+00 0.  1.
         25    1    1    2    0    0 -0.26794440498E+02 -0.27962337009E+02 -0.11874603907E+02  0.13139954547E+03  0.12500000000E+03 0.  0.
         25    1    1    2    0    0 -0.40979533137E+02 -0.90415802220E+02 -0.40732767360E+02  0.16473766347E+03  0.12500000000E+03 0.  0.
         25    1    1    2    0    0  0.67773973635E+02  0.11837813923E+03  0.60198425871E+02  0.19456501697E+03  0.12500000000E+03 0.  0.
</event>
<event>
 5    0  0.5619558E-005  0.3853970E+03  0.7546771E-02  0.1048957E+00
         21   -1    0    0  502  501  0.00000000000E+00  0.00000000000E+00  0.58411572399E+02  0.58411572399E+02  0.00000000000E+00 0.  1.
         21   -1    0    0  501  502 -0.00000000000E+00 -0.00000000000E+00 -0.25428326910E+04  0.25428326910E+04  0.00000000000E+00 0.  1.
         25    1    1    2    0    0  0.55277052541E+02 -0.15917928891E+03 -0.80456099401E+03  0.83146677122E+03  0.12500000000E+03 0.  0.
         25    1    1    2    0    0  0.38252652812E+02  0.22045930315E+03 -0.15080690955E+04  0.15296937492E+04  0.12500000000E+03 0.  0.
         25    1    1    2    0    0 -0.93529705354E+02 -0.61280014240E+02 -0.17179102910E+03  0.24008374291E+03  0.12500000000E+03 0.  0.
</event>
<event>
 5    0  0.5619558E-005  0.4726666E+03  0.7546771E-02  0.1021170E+00
         21   -1    0    0  502  501  0.00000000000E+00  0.00000000000E+00  0.16650423342E+03  0.16650423342E+03  0.00000000000E+00 0. -1.
         21   -1    0    0  501  502 -0.00000000000E+00 -0.00000000000E+00 -0.13417898037E+04  0.13417898037E+04  0.00000000000E+00 0. -1.
         25    1    1    2    0    0  0.15005406349E+03 -0.24926378226E+03 -0.23233644032E+03  0.39275167297E+03  0.12500000000E+03 0.  0.
         25    1    1    2    0    0 -0.25265736970E+03  0.10330446133E+02 -0.62787112021E+03  0.68832376697E+03  0.12500000000E+03 0.  0.
         25    1    1    2    0    0  0.10260330621E+03  0.23893333612E+03 -0.31507800974E+03  0.42721859719E+03  0.12500000000E+03 0.  0.
</event>
<event>
 5    0  0.5619558E-005  0.2170717E+03  0.7546771E-02  0.1136085E+00
         21   -1    0    0  502  501  0.00000000000E+00  0.00000000000E+00  0.34625969955E+03  0.34625969955E+03  0.00000000000E+00 0. -1.
         21   -1    0    0  501  502 -0.00000000000E+00 -0.00000000000E+00 -0.13608324399E+03  0.13608324399E+03  0.00000000000E+00 0. -1.
         25    1    1    2    0    0 -0.55200717080E+02  0.50671751826E+02  0.11385071049E+03  0.18493709709E+03  0.12500000000E+03 0.  0.
         25    1    1    2    0    0  0.74417140975E+02 -0.47057558520E+02  0.70081074482E+02  0.16819239485E+03  0.12500000000E+03 0.  0.
         25    1    1    2    0    0 -0.19216423894E+02 -0.36141933065E+01  0.26244670588E+02  0.12921345160E+03  0.12500000000E+03 0.  0.
</event>
<event>
 5    0  0.5619558E-005  0.2522904E+03  0.7546771E-02  0.1111866E+00
         21   -1    0    0  502  501  0.00000000000E+00  0.00000000000E+00  0.24508107495E+03  0.24508107495E+03  0.00000000000E+00 0.  1.
         21   -1    0    0  501  502 -0.00000000000E+00 -0.00000000000E+00 -0.25971176717E+03  0.25971176717E+03  0.00000000000E+00 0.  1.
         25    1    1    2    0    0 -0.79265374845E+02 -0.11626583301E+03 -0.44254701070E+00  0.18821779784E+03  0.12500000000E+03 0.  0.
         25    1    1    2    0    0  0.96171914966E+02  0.24964266986E+02  0.45119943863E+01  0.15974232360E+03  0.12500000000E+03 0.  0.
         25    1    1    2    0    0 -0.16906540121E+02  0.91301566021E+02 -0.18700139599E+02  0.15683272069E+03  0.12500000000E+03 0.  0.
</event>
<event>
 5    0  0.5619558E-005  0.3110925E+03  0.7546771E-02  0.1079823E+00
         21   -1    0    0  502  501  0.00000000000E+00  0.00000000000E+00  0.64304563438E+02  0.64304563438E+02  0.00000000000E+00 0. -1.
         21   -1    0    0  501  502 -0.00000000000E+00 -0.00000000000E+00 -0.15050029954E+04  0.15050029954E+04  0.00000000000E+00 0. -1.
         25    1    1    2    0    0  0.24583911907E+02  0.93352488226E+02 -0.88743487750E+03  0.90137934167E+03  0.12500000000E+03 0.  0.
         25    1    1    2    0    0 -0.26085032487E+02 -0.86555198979E+02 -0.51410918723E+03  0.53675458804E+03  0.12500000000E+03 0.  0.
         25    1    1    2    0    0  0.15011205805E+01 -0.67972892474E+01 -0.39154367225E+02  0.13117362912E+03  0.12500000000E+03 0.  0.
</event>
<event>
 5    0  0.5619558E-005  0.3416055E+03  0.7546771E-02  0.1066114E+00
         21   -1    0    0  502  501  0.00000000000E+00  0.00000000000E+00  0.13741741636E+04  0.13741741636E+04  0.00000000000E+00 0.  1.
         21   -1    0    0  501  502 -0.00000000000E+00 -0.00000000000E+00 -0.84919608004E+02  0.84919608004E+02  0.00000000000E+00 0.  1.
         25    1    1    2    0    0 -0.13753137618E+03 -0.22827861030E+03  0.50031577330E+03  0.58048848082E+03  0.12500000000E+03 0.  0.
         25    1    1    2    0    0  0.33308274830E+02  0.15900111318E+03  0.35378635406E+03  0.40887721811E+03  0.12500000000E+03 0.  0.
         25    1    1    2    0    0  0.10422310135E+03  0.69277497115E+02  0.43515242820E+03  0.46972807264E+03  0.12500000000E+03 0.  0.
</event>
<event>
 5    0  0.5747184E-005  0.2971493E+03  0.7546771E-02  0.1086674E+00
         21   -1    0    0  502  501  0.00000000000E+00  0.00000000000E+00  0.26755414480E+03  0.26755414480E+03  0.00000000000E+00 0.  1.
         21   -1    0    0  501  502 -0.00000000000E+00 -0.00000000000E+00 -0.33001797944E+03  0.33001797944E+03  0.00000000000E+00 0.  1.
         25    1    1    2    0    0  0.80715071240E+01  0.64911584619E+02 -0.11053886098E+03  0.17922751695E+03  0.12500000000E+03 0.  0.
         25    1    1    2    0    0 -0.59713644062E+02  0.70189599103E+02  0.13738573025E+03  0.20734545567E+03  0.12500000000E+03 0.  0.
         25    1    1    2    0    0  0.51642136938E+02 -0.13510118372E+03 -0.89310703920E+02  0.21099915162E+03  0.12500000000E+03 0.  0.
</event>
<event>
 5    0  0.5619558E-005  0.3298819E+03  0.7546771E-02  0.1071189E+00
         21   -1    0    0  502  501  0.00000000000E+00  0.00000000000E+00  0.96751527351E+03  0.96751527351E+03  0.00000000000E+00 0.  1.
         21   -1    0    0  501  502 -0.00000000000E+00 -0.00000000000E+00 -0.11247579130E+03  0.11247579130E+03  0.00000000000E+00 0.  1.
         25    1    1    2    0    0 -0.21956228922E+02 -0.17929835167E+02  0.20420339700E+03  0.24109662446E+03  0.12500000000E+03 0.  0.
         25    1    1    2    0    0  0.60835025742E+02 -0.14862342580E+03  0.61431267576E+02  0.21257615974E+03  0.12500000000E+03 0.  0.
         25    1    1    2    0    0 -0.38878796821E+02  0.16655326096E+03  0.58940481764E+03  0.62631828062E+03  0.12500000000E+03 0.  0.
</event>
<event>
 5    0  0.5619558E-005  0.4168847E+03  0.7546771E-02  0.1038085E+00
         21   -1    0    0  502  501  0.00000000000E+00  0.00000000000E+00  0.62569614153E+03  0.62569614153E+03  0.00000000000E+00 0.  1.
         21   -1    0    0  501  502 -0.00000000000E+00 -0.00000000000E+00 -0.27775918270E+03  0.27775918270E+03  0.00000000000E+00 0.  1.
         25    1    1    2    0    0 -0.89642482371E+01 -0.18488278476E+03  0.40052688573E+03  0.45859436111E+03  0.12500000000E+03 0.  0.
         25    1    1    2    0    0 -0.14869249197E+03  0.55621583561E+02 -0.13142856745E+02  0.20248691911E+03  0.12500000000E+03 0.  0.
         25    1    1    2    0    0  0.15765674021E+03  0.12926120120E+03 -0.39447070164E+02  0.24237404402E+03  0.12500000000E+03 0.  0.
</event>
<event>
 5    0  0.5619558E-005  0.4822975E+03  0.7546771E-02  0.1018506E+00
         21   -1    0    0  502  501  0.00000000000E+00  0.00000000000E+00  0.21012574416E+04  0.21012574416E+04  0.00000000000E+00 0. -1.
         21   -1    0    0  501  502 -0.00000000000E+00 -0.00000000000E+00 -0.11070081782E+03  0.11070081782E+03  0.00000000000E+00 0. -1.
         25    1    1    2    0    0  0.32077316596E+02  0.12853182327E+03  0.68279390992E+03  0.70666958847E+03  0.12500000000E+03 0.  0.
         25    1    1    2    0    0 -0.25866773737E+03 -0.25687494355E+03  0.41220369798E+03  0.56429657416E+03  0.12500000000E+03 0.  0.
         25    1    1    2    0    0  0.22659042077E+03  0.12834312028E+03  0.89555901590E+03  0.94099209681E+03  0.12500000000E+03 0.  0.
</event>
<event>
 5    0  0.5619558E-005  0.4124817E+03  0.7546771E-02  0.1039541E+00
         21   -1    0    0  502  501  0.00000000000E+00  0.00000000000E+00  0.53809176985E+03  0.53809176985E+03  0.00000000000E+00 0. -1.
         21   -1    0    0  501  502 -0.00000000000E+00 -0.00000000000E+00 -0.31619360422E+03  0.31619360422E+03  0.00000000000E+00 0. -1.
         25    1    1    2    0    0 -0.21376243633E+03  0.59999855403E+02  0.25646928648E+03  0.36151881935E+03  0.12500000000E+03 0.  0.
         25    1    1    2    0    0 -0.85893492707E+02 -0.43908763034E+02  0.31584266895E+02  0.16102247506E+03  0.12500000000E+03 0.  0.
         25    1    1    2    0    0  0.29965592904E+03 -0.16091092368E+02 -0.66155387750E+02  0.33174407966E+03  0.12500000000E+03 0.  0.
</event>
<event>
 5    0  0.5619558E-005  0.3378786E+03  0.7546771E-02  0.1067703E+00
         21   -1    0    0  502  501  0.00000000000E+00  0.00000000000E+00  0.10519147696E+04  0.10519147696E+04  0.00000000000E+00 0. -1.
         21   -1    0    0  501  502 -0.00000000000E+00 -0.00000000000E+00 -0.10852777794E+03  0.10852777794E+03  0.00000000000E+00 0. -1.
         25    1    1    2    0    0  0.14122138823E+03  0.17375031502E+03  0.22075493035E+03  0.33836428851E+03  0.12500000000E+03 0.  0.
         25    1    1    2    0    0 -0.11497039934E+03 -0.15513899027E+03  0.60572115486E+03  0.64792701477E+03  0.12500000000E+03 0.  0.
         25    1    1    2    0    0 -0.26250988891E+02 -0.18611324749E+02  0.11691090642E+03  0.17415124423E+03  0.12500000000E+03 0.  0.
</event>
<event>
 5    0  0.5619558E-005  0.2681228E+03  0.7546771E-02  0.1102359E+00
         21   -1    0    0  502  501  0.00000000000E+00  0.00000000000E+00  0.80511569429E+03  0.80511569429E+03  0.00000000000E+00 0. -1.
         21   -1    0    0  501  502 -0.00000000000E+00 -0.00000000000E+00 -0.89291290901E+02  0.89291290901E+02  0.00000000000E+00 0. -1.
         25    1    1    2    0    0  0.68059622777E+02  0.11656544213E+03  0.23033056489E+03  0.29478260409E+03  0.12500000000E+03 0.  0.
         25    1    1    2    0    0  0.85100228155E+01  0.43911956437E+02  0.21413535132E+03  0.25195164039E+03  0.12500000000E+03 0.  0.
         25    1    1    2    0    0 -0.76569645592E+02 -0.16047739856E+03  0.27135848717E+03  0.34767274071E+03  0.12500000000E+03 0.  0.
</event>
<event>
 5    0  0.5619558E-005  0.3902976E+03  0.7546771E-02  0.1047192E+00
         21   -1    0    0  502  501  0.00000000000E+00  0.00000000000E+00  0.22806017062E+04  0.22806017062E+04  0.00000000000E+00 0. -1.
         21   -1    0    0  501  502 -0.00000000000E+00 -0.00000000000E+00 -0.66794759544E+02  0.66794759544E+02  0.00000000000E+00 0. -1.
         25    1    1    2    0    0 -0.92584437187E+02  0.51371766965E+02  0.17168257190E+04  0.17246235780E+04  0.12500000000E+03 0.  0.
         25    1    1    2    0    0  0.16892373530E+03 -0.93965853514E+01  0.20657941741E+03  0.29482805135E+03  0.12500000000E+03 0.  0.
         25    1    1    2    0    0 -0.76339298113E+02 -0.41975181613E+02  0.29040181021E+03  0.32794483634E+03  0.12500000000E+03 0.  0.
</event>
<event>
 5    0  0.5619558E-005  0.3530174E+03  0.7546771E-02  0.1061383E+00
         21   -1    0    0  502  501  0.00000000000E+00  0.00000000000E+00  0.94670714862E+02  0.94670714862E+02  0.00000000000E+00 0.  1.
         21   -1    0    0  501  502 -0.00000000000E+00 -0.00000000000E+00 -0.13163654299E+04  0.13163654299E+04  0.00000000000E+00 0.  1.
         25    1    1    2    0    0  0.39488072094E+02  0.48572915663E+01 -0.20894867820E+03  0.24671329766E+03  0.12500000000E+03 0.  0.
         25    1    1    2    0    0 -0.63672894853E+02 -0.16656463751E+03 -0.90730277919E+03  0.93307092395E+03  0.12500000000E+03 0.  0.
         25    1    1    2    0    0  0.24184822759E+02  0.16170734594E+03 -0.10544325768E+03  0.23125192318E+03  0.12500000000E+03 0.  0.
</event>
<event>
 5    0  0.5619558E-005  0.2581410E+03  0.7546771E-02  0.1108265E+00
         21   -1    0    0  502  501  0.00000000000E+00  0.00000000000E+00  0.60104144258E+03  0.60104144258E+03  0.00000000000E+00 0. -1.
         21   -1    0    0  501  502 -0.00000000000E+00 -0.00000000000E+00 -0.11086881686E+03  0.11086881686E+03  0.00000000000E+00 0. -1.
         25    1    1    2    0    0  0.76267068139E+02  0.36793380971E+02  0.19347426026E+03  0.24541334102E+03  0.12500000000E+03 0.  0.
         25    1    1    2    0    0 -0.96945787819E+02  0.22150046817E+01  0.29404493849E+03  0.33390240770E+03  0.12500000000E+03 0.  0.
         25    1    1    2    0    0  0.20678719680E+02 -0.39008385652E+02  0.26534269793E+01  0.13259451072E+03  0.12500000000E+03 0.  0.
</event>
<event>
 5    0  0.5619558E-005  0.6814153E+03  0.7546771E-02  0.9749553E-01
         21   -1    0    0  502  501  0.00000000000E+00  0.00000000000E+00  0.76121929682E+03  0.76121929682E+03  0.00000000000E+00 0.  1.
         21   -1    0    0  501  502 -0.00000000000E+00 -0.00000000000E+00 -0.60997778230E+03  0.60997778230E+03  0.00000000000E+00 0.  1.
         25    1    1    2    0    0  0.14789681253E+03  0.53548746407E+03  0.11563228747E+03  0.58104743114E+03  0.12500000000E+03 0.  0.
         25    1    1    2    0    0 -0.13090587816E+03 -0.50509871622E+03 -0.15597276272E+03  0.55876074019E+03  0.12500000000E+03 0.  0.
         25    1    1    2    0    0 -0.16990934372E+02 -0.30388747846E+02  0.19158198977E+03  0.23138890780E+03  0.12500000000E+03 0.  0.
</event>
<event>
 5    0  0.5619558E-005  0.3270577E+03  0.7546771E-02  0.1072446E+00
         21   -1    0    0  502  501  0.00000000000E+00  0.00000000000E+00  0.42064199847E+03  0.42064199847E+03  0.00000000000E+00 0. -1.
         21   -1    0    0  501  502 -0.00000000000E+00 -0.00000000000E+00 -0.25429395220E+03  0.25429395220E+03  0.00000000000E+00 0.  1.
         25    1    1    2    0    0  0.13932233769E+03 -0.50342461876E+02  0.85243718778E+02  0.21174647303E+03  0.12500000000E+03 0.  0.
         25    1    1    2    0    0 -0.20157101346E+03  0.13890289617E+03  0.10864214051E+03  0.29555541397E+03  0.12500000000E+03 0.  0.
         25    1    1    2    0    0  0.62248675769E+02 -0.88560434293E+02 -0.27537813020E+02  0.16763406367E+03  0.12500000000E+03 0.  0.
</event>
<event>
 5    0  0.5619558E-005  0.3416911E+03  0.7546771E-02  0.1066078E+00
         21   -1    0    0  502  501  0.00000000000E+00  0.00000000000E+00  0.41179092682E+03  0.41179092682E+03  0.00000000000E+00 0. -1.
         21   -1    0    0  501  502 -0.00000000000E+00 -0.00000000000E+00 -0.28352448151E+03  0.28352448151E+03  0.00000000000E+00 0. -1.
         25    1    1    2    0    0  0.17371868140E+03 -0.13286536301E+02  0.44218036487E+02  0.21894051034E+03  0.12500000000E+03 0.  0.
         25    1    1    2    0    0 -0.32496932757E+02  0.15153389579E+03 -0.52070096136E+02  0.20580298133E+03  0.12500000000E+03 0.  0.
         25    1    1    2    0    0 -0.14122174865E+03 -0.13824735949E+03  0.13611850496E+03  0.27057191667E+03  0.12500000000E+03 0.  0.
</event>
<event>
 5    0  0.5619558E-005  0.3515322E+03  0.7546771E-02  0.1061988E+00
         21   -1    0    0  502  501  0.00000000000E+00  0.00000000000E+00  0.14426721048E+03  0.14426721048E+03  0.00000000000E+00 0.  1.
         21   -1    0    0  501  502 -0.00000000000E+00 -0.00000000000E+00 -0.85656945715E+03  0.85656945715E+03  0.00000000000E+00 0.  1.
         25    1    1    2    0    0  0.59306667194E+02  0.12847099890E+03 -0.14716807112E+03  0.23938571279E+03  0.12500000000E+03 0.  0.
         25    1    1    2    0    0 -0.22787469321E+03 -0.57371377640E+02 -0.41774600023E+03  0.49533329333E+03  0.12500000000E+03 0.  0.
         25    1    1    2    0    0  0.16856802602E+03 -0.71099621261E+02 -0.14738817532E+03  0.26611766150E+03  0.12500000000E+03 0.  0.
</event>
<event>
 5    0  0.5619558E-005  0.3577253E+03  0.7546771E-02  0.1059488E+00
         21   -1    0    0  502  501  0.00000000000E+00  0.00000000000E+00  0.41066507280E+03  0.41066507280E+03  0.00000000000E+00 0.  1.
         21   -1    0    0  501  502 -0.00000000000E+00 -0.00000000000E+00 -0.31161014089E+03  0.31161014089E+03  0.00000000000E+00 0.  1.
         25    1    1    2    0    0 -0.23354299474E+02 -0.22158762938E+01 -0.12706213090E+03  0.17977797007E+03  0.12500000000E+03 0.  0.
         25    1    1    2    0    0  0.13561039606E+03  0.57597131256E+02  0.29501312719E+03  0.35265472387E+03  0.12500000000E+03 0.  0.
         25    1    1    2    0    0 -0.11225609659E+03 -0.55381254962E+02 -0.68896064387E+02  0.18984251976E+03  0.12500000000E+03 0.  0.
</event>
<event>
 5    0  0.5619558E-005  0.3175818E+03  0.7546771E-02  0.1076768E+00
         21   -1    0    0  502  501  0.00000000000E+00  0.00000000000E+00  0.16660257000E+03  0.16660257000E+03  0.00000000000E+00 0.  1.
         21   -1    0    0  501  502 -0.00000000000E+00 -0.00000000000E+00 -0.60538215143E+03  0.60538215143E+03  0.00000000000E+00 0.  1.
         25    1    1    2    0    0 -0.51428757912E+02  0.60393763865E+02  0.24698424497E+02  0.15009109243E+03  0.12500000000E+03 0.  0.
         25    1    1    2    0    0 -0.68952123245E+02 -0.15979296536E+03 -0.22622513604E+03  0.31159428630E+03  0.12500000000E+03 0.  0.
         25    1    1    2    0    0  0.12038088116E+03  0.99399201495E+02 -0.23725286989E+03  0.31029934269E+03  0.12500000000E+03 0.  0.
</event>
<event>
 5    0  0.5619558E-005  0.2197157E+03  0.7546771E-02  0.1134095E+00
         21   -1    0    0  502  501  0.00000000000E+00  0.00000000000E+00  0.68931935496E+03  0.68931935496E+03  0.00000000000E+00 0.  1.
         21   -1    0    0  501  502 -0.00000000000E+00 -0.00000000000E+00 -0.70032804785E+02  0.70032804785E+02  0.00000000000E+00 0.  1.
         25    1    1    2    0    0 -0.78984996078E+02  0.29260532871E+02  0.21144825897E+03  0.25967320734E+03  0.12500000000E+03 0.  0.
         25    1    1    2    0    0  0.96673925164E+02 -0.34043456892E+02  0.21135027538E+03  0.26608033311E+03  0.12500000000E+03 0.  0.
         25    1    1    2    0    0 -0.17688929087E+02  0.47829240213E+01  0.19648801583E+03  0.23359861930E+03  0.12500000000E+03 0.  0.
</event>
<event>
 5    0  0.5619558E-005  0.3687519E+03  0.7546771E-02  0.1055171E+00
         21   -1    0    0  502  501  0.00000000000E+00  0.00000000000E+00  0.42175864485E+03  0.42175864485E+03  0.00000000000E+00 0.  1.
         21   -1    0    0  501  502 -0.00000000000E+00 -0.00000000000E+00 -0.32240703953E+03  0.32240703953E+03  0.00000000000E+00 0.  1.
         25    1    1    2    0    0 -0.16835637789E+02 -0.11005354166E+03  0.10480291170E+03  0.19749397720E+03  0.12500000000E+03 0.  0.
         25    1    1    2    0    0 -0.38145287760E+02  0.25859700168E+03 -0.12117880750E+03  0.31406492266E+03  0.12500000000E+03 0.  0.
         25    1    1    2    0    0  0.54980925549E+02 -0.14854346002E+03  0.11572750112E+03  0.23260678452E+03  0.12500000000E+03 0.  0.
</event>
<event>
 5    0  0.5619558E-005  0.2782536E+03  0.7546771E-02  0.1096647E+00
         21   -1    0    0  502  501  0.00000000000E+00  0.00000000000E+00  0.11036523988E+04  0.11036523988E+04  0.00000000000E+00 0.  1.
         21   -1    0    0  501  502 -0.00000000000E+00 -0.00000000000E+00 -0.70153475269E+02  0.70153475269E+02  0.00000000000E+00 0.  1.
         25    1    1    2    0    0 -0.66913704594E+02  0.12534298889E+03  0.49278159108E+03  0.52787025416E+03  0.12500000000E+03 0.  0.
         25    1    1    2    0    0  0.12641692706E+03 -0.12058960847E+03  0.32644978799E+03  0.39079093797E+03  0.12500000000E+03 0.  0.
         25    1    1    2    0    0 -0.59503222462E+02 -0.47533804212E+01  0.21426754444E+03  0.25514468191E+03  0.12500000000E+03 0.  0.
</event>
<event>
 5    0  0.5619558E-005  0.3206455E+03  0.7546771E-02  0.1075353E+00
         21   -1    0    0  502  501  0.00000000000E+00  0.00000000000E+00  0.25308542133E+03  0.25308542133E+03  0.00000000000E+00 0. -1.
         21   -1    0    0  501  502 -0.00000000000E+00 -0.00000000000E+00 -0.40624036147E+03  0.40624036147E+03  0.00000000000E+00 0. -1.
         25    1    1    2    0    0  0.13612497162E+03 -0.20487312497E+02  0.42532506766E+02  0.19074525421E+03  0.12500000000E+03 0.  0.
         25    1    1    2    0    0  0.16384296135E+02  0.50698632745E+02  0.56387983343E+02  0.14711696431E+03  0.12500000000E+03 0.  0.
         25    1    1    2    0    0 -0.15250926775E+03 -0.30211320248E+02 -0.25207543025E+03  0.32146356427E+03  0.12500000000E+03 0.  0.
</event>
<event>
 5    0  0.5619558E-005  0.5749541E+03  0.7546771E-02  0.9958775E-01
         21   -1    0    0  502  501  0.00000000000E+00  0.00000000000E+00  0.46138565247E+03  0.46138565247E+03  0.00000000000E+00 0.  1.
         21   -1    0    0  501  502 -0.00000000000E+00 -0.00000000000E+00 -0.71647695797E+03  0.71647695797E+03  0.00000000000E+00 0. -1.
         25    1    1    2    0    0  0.10442571312E+03 -0.38638733820E+03  0.27577657765E+02  0.42022069426E+03  0.12500000000E+03 0.  0.
         25    1    1    2    0    0  0.47526109689E+02 -0.10168824131E+03 -0.12129404079E+03  0.20721118178E+03  0.12500000000E+03 0.  0.
         25    1    1    2    0    0 -0.15195182281E+03  0.48807557951E+03 -0.16137492247E+03  0.55043073440E+03  0.12500000000E+03 0.  0.
</event>
<event>
 5    0  0.5619558E-005  0.4521270E+03  0.7546771E-02  0.1027090E+00
         21   -1    0    0  502  501  0.00000000000E+00  0.00000000000E+00  0.44685298811E+03  0.44685298811E+03  0.00000000000E+00 0. -1.
         21   -1    0    0  501  502 -0.00000000000E+00 -0.00000000000E+00 -0.45746319104E+03  0.45746319104E+03  0.00000000000E+00 0. -1.
         25    1    1    2    0    0  0.16115966285E+02 -0.98657176022E+02 -0.41518543355E+02  0.16535341603E+03  0.12500000000E+03 0.  0.
         25    1    1    2    0    0 -0.16650576284E+02 -0.28857611127E+03 -0.63455571927E+02  0.32125538641E+03  0.12500000000E+03 0.  0.
         25    1    1    2    0    0  0.53460999941E+00  0.38723328730E+03  0.94363912353E+02  0.41770737670E+03  0.12500000000E+03 0.  0.
</event>
<event>
 5    0  0.5619558E-005  0.4334128E+03  0.7546771E-02  0.1032787E+00
         21   -1    0    0  502  501  0.00000000000E+00  0.00000000000E+00  0.54325172608E+03  0.54325172608E+03  0.00000000000E+00 0.  1.
         21   -1    0    0  501  502 -0.00000000000E+00 -0.00000000000E+00 -0.34578202812E+03  0.34578202812E+03  0.00000000000E+00 0.  1.
         25    1    1    2    0    0  0.17631610470E+03  0.16791549443E+03  0.10527728288E+03  0.29324271233E+03  0.12500000000E+03 0.  0.
         25    1    1    2    0    0 -0.14107689051E+03 -0.27047176374E+03 -0.97765261169E+02  0.34386146964E+03  0.12500000000E+03 0.  0.
         25    1    1    2    0    0 -0.35239214193E+02  0.10255626931E+03  0.18995767625E+03  0.25192957222E+03  0.12500000000E+03 0.  0.
</event>
<event>
 5    0  0.5619558E-005  0.2939776E+03  0.7546771E-02  0.1088291E+00
         21   -1    0    0  502  501  0.00000000000E+00  0.00000000000E+00  0.60048348786E+02  0.60048348786E+02  0.00000000000E+00 0.  1.
         21   -1    0    0  501  502 -0.00000000000E+00 -0.00000000000E+00 -0.14392204634E+04  0.14392204634E+04  0.00000000000E+00 0.  1.
         25    1    1    2    0    0 -0.40419115090E+01  0.13589942835E+02 -0.49000651752E+02  0.13500773114E+03  0.12500000000E+03 0.  0.
         25    1    1    2    0    0  0.37089983377E+02 -0.47452560848E+02 -0.37620288127E+03  0.40097508685E+03  0.12500000000E+03 0.  0.
         25    1    1    2    0    0 -0.33048071868E+02  0.33862618013E+02 -0.95396858158E+03  0.96328599419E+03  0.12500000000E+03 0.  0.
</event>
<event>
 5    0  0.5619558E-005  0.2264298E+03  0.7546771E-02  0.1129178E+00
         21   -1    0    0  502  501  0.00000000000E+00  0.00000000000E+00  0.13121380694E+03  0.13121380694E+03  0.00000000000E+00 0. -1.
         21   -1    0    0  501  502 -0.00000000000E+00 -0.00000000000E+00 -0.39073974576E+03  0.39073974576E+03  0.00000000000E+00 0. -1.
         25    1    1    2    0    0 -0.84325111438E+02 -0.72541320699E+01 -0.19166549509E+03  0.24397542675E+03  0.12500000000E+03 0.  0.
         25    1    1    2    0    0  0.44314378699E+02  0.17049145131E+02 -0.58748522928E+02  0.14605076671E+03  0.12500000000E+03 0.  0.
         25    1    1    2    0    0  0.40010732739E+02 -0.97950130611E+01 -0.91119208007E+01  0.13192735924E+03  0.12500000000E+03 0.  0.
</event>
<event>
 5    0  0.5619558E-005  0.4427353E+03  0.7546771E-02  0.1029911E+00
         21   -1    0    0  502  501  0.00000000000E+00  0.00000000000E+00  0.23831573146E+03  0.23831573146E+03  0.00000000000E+00 0. -1.
         21   -1    0    0  501  502 -0.00000000000E+00 -0.00000000000E+00 -0.82249945756E+03  0.82249945756E+03  0.00000000000E+00 0. -1.
         25    1    1    2    0    0 -0.95363452997E+02  0.18183378760E+03 -0.49369255800E+03  0.54910386659E+03  0.12500000000E+03 0.  0.
         25    1    1    2    0    0 -0.12120073782E+03 -0.10593326536E+03 -0.13797421941E+03  0.24611655934E+03  0.12500000000E+03 0.  0.
         25    1    1    2    0    0  0.21656419081E+03 -0.75900522238E+02  0.47483051305E+02  0.26559476309E+03  0.12500000000E+03 0.  0.
</event>
<event>
 5    0  0.5619558E-005  0.4395463E+03  0.7546771E-02  0.1030886E+00
         21   -1    0    0  502  501  0.00000000000E+00  0.00000000000E+00  0.40307594872E+03  0.40307594872E+03  0.00000000000E+00 0. -1.
         21   -1    0    0  501  502 -0.00000000000E+00 -0.00000000000E+00 -0.47931646812E+03  0.47931646812E+03  0.00000000000E+00 0. -1.
         25    1    1    2    0    0  0.25940271320E+03  0.10715259218E+03 -0.33506224767E+02  0.30906166493E+03  0.12500000000E+03 0.  0.
         25    1    1    2    0    0 -0.11728963677E+03  0.16565718596E+03 -0.37110365928E+02  0.24124954179E+03  0.12500000000E+03 0.  0.
         25    1    1    2    0    0 -0.14211307643E+03 -0.27280977814E+03 -0.56239286980E+01  0.33208121013E+03  0.12500000000E+03 0.  0.
</event>
<event>
 5    0  0.5619558E-005  0.9644321E+03  0.7546771E-02  0.9348439E-01
         21   -1    0    0  502  501  0.00000000000E+00  0.00000000000E+00  0.20063376905E+04  0.20063376905E+04  0.00000000000E+00 0.  1.
         21   -1    0    0  501  502 -0.00000000000E+00 -0.00000000000E+00 -0.46359555990E+03  0.46359555990E+03  0.00000000000E+00 0.  1.
         25    1    1    2    0    0  0.14482730143E+03  0.23880456651E+03  0.56181196651E+02  0.31110110107E+03  0.12500000000E+03 0.  0.
         25    1    1    2    0    0 -0.17968810210E+02  0.58339237113E+03  0.21555340558E+03  0.63463202526E+03  0.12500000000E+03 0.  0.
         25    1    1    2    0    0 -0.12685849122E+03 -0.82219693764E+03  0.12710075284E+04  0.15242001241E+04  0.12500000000E+03 0.  0.
</event>
<event>
 5    0  0.5619558E-005  0.2541425E+03  0.7546771E-02  0.1110714E+00
         21   -1    0    0  502  501  0.00000000000E+00  0.00000000000E+00  0.10585287297E+04  0.10585287297E+04  0.00000000000E+00 0. -1.
         21   -1    0    0  501  502 -0.00000000000E+00 -0.00000000000E+00 -0.61017149348E+02  0.61017149348E+02  0.00000000000E+00 0. -1.
         25    1    1    2    0    0  0.37773271330E+01  0.23482503973E+02  0.35650642678E+03  0.37853339157E+03  0.12500000000E+03 0.  0.
         25    1    1    2    0    0  0.49454853975E+02 -0.70641088585E+02  0.55056525506E+03  0.57112437004E+03  0.12500000000E+03 0.  0.
         25    1    1    2    0    0 -0.53232181108E+02  0.47158584612E+02  0.90439898535E+02  0.16988811746E+03  0.12500000000E+03 0.  0.
</event>
<event>
 5    0  0.5619558E-005  0.2810706E+03  0.7546771E-02  0.1095106E+00
         21   -1    0    0  502  501  0.00000000000E+00  0.00000000000E+00  0.18964964718E+03  0.18964964718E+03  0.00000000000E+00 0. -1.
         21   -1    0    0  501  502 -0.00000000000E+00 -0.00000000000E+00 -0.41656112832E+03  0.41656112832E+03  0.00000000000E+00 0. -1.
         25    1    1    2    0    0  0.74150358854E+01 -0.36301137666E+02  0.28245059002E+02  0.13339992021E+03  0.12500000000E+03 0.  0.
         25    1    1    2    0    0 -0.13528775912E+03  0.83142323006E+02 -0.18835776285E+03  0.27625906405E+03  0.12500000000E+03 0.  0.
         25    1    1    2    0    0  0.12787272324E+03 -0.46841185341E+02 -0.66798777285E+02  0.19655179124E+03  0.12500000000E+03 0.  0.
</event>
<event>
 5    0  0.5619558E-005  0.2938884E+03  0.7546771E-02  0.1088336E+00
         21   -1    0    0  502  501  0.00000000000E+00  0.00000000000E+00  0.75645027399E+02  0.75645027399E+02  0.00000000000E+00 0.  1.
         21   -1    0    0  501  502 -0.00000000000E+00 -0.00000000000E+00 -0.11417851347E+04  0.11417851347E+04  0.00000000000E+00 0.  1.
         25    1    1    2    0    0 -0.41072366200E+02  0.73682466248E+02 -0.37383985009E+03  0.40310951193E+03  0.12500000000E+03 0.  0.
         25    1    1    2    0    0  0.17438582432E+02 -0.18891895682E+03 -0.23970493015E+03  0.33026948079E+03  0.12500000000E+03 0.  0.
         25    1    1    2    0    0  0.23633783767E+02  0.11523649057E+03 -0.45259532706E+03  0.48405116938E+03  0.12500000000E+03 0.  0.
</event>
<event>
 5    0  0.6265330E-005  0.4101755E+03  0.7546771E-02  0.1040312E+00
         21   -1    0    0  502  501  0.00000000000E+00  0.00000000000E+00  0.54479158093E+03  0.54479158093E+03  0.00000000000E+00 0. -1.
         21   -1    0    0  501  502 -0.00000000000E+00 -0.00000000000E+00 -0.30882258315E+03  0.30882258315E+03  0.00000000000E+00 0. -1.
         25    1    1    2    0    0  0.23563681275E+02  0.21182368789E+03  0.26619457728E+03  0.36319288925E+03  0.12500000000E+03 0.  0.
         25    1    1    2    0    0  0.32710563418E+02 -0.98344719594E+01 -0.16639269332E+03  0.21089861590E+03  0.12500000000E+03 0.  0.
         25    1    1    2    0    0 -0.56274244692E+02 -0.20198921593E+03  0.13616711382E+03  0.27952265893E+03  0.12500000000E+03 0.  0.
</event>
<event>
 5    0  0.5619558E-005  0.2711954E+03  0.7546771E-02  0.1100597E+00
         21   -1    0    0  502  501  0.00000000000E+00  0.00000000000E+00  0.11916476119E+03  0.11916476119E+03  0.00000000000E+00 0. -1.
         21   -1    0    0  501  502 -0.00000000000E+00 -0.00000000000E+00 -0.61718682515E+03  0.61718682515E+03  0.00000000000E+00 0. -1.
         25    1    1    2    0    0 -0.94908676767E+02 -0.81154182890E+02 -0.17284013484E+03  0.24716870866E+03  0.12500000000E+03 0.  0.
         25    1    1    2    0    0 -0.69858400556E+02  0.98363620545E+01 -0.98038551015E+02  0.17382033147E+03  0.12500000000E+03 0.  0.
         25    1    1    2    0    0  0.16476707732E+03  0.71317820835E+02 -0.22714337810E+03  0.31536254621E+03  0.12500000000E+03 0.  0.
</event>
<event>
 5    0  0.5619558E-005  0.3982731E+03  0.7546771E-02  0.1044379E+00
         21   -1    0    0  502  501  0.00000000000E+00  0.00000000000E+00  0.13084593295E+04  0.13084593295E+04  0.00000000000E+00 0.  1.
         21   -1    0    0  501  502 -0.00000000000E+00 -0.00000000000E+00 -0.12122763851E+03  0.12122763851E+03  0.00000000000E+00 0.  1.
         25    1    1    2    0    0 -0.14009974467E+03 -0.11292241870E+03  0.10732410773E+04  0.10953770224E+04  0.12500000000E+03 0.  0.
         25    1    1    2    0    0  0.62512171909E+02  0.86819036152E+02  0.67331065207E+02  0.17777454547E+03  0.12500000000E+03 0.  0.
         25    1    1    2    0    0  0.77587572757E+02  0.26103382549E+02  0.46659548408E+02  0.15653540010E+03  0.12500000000E+03 0.  0.
</event>
<event>
 5    0  0.5619558E-005  0.2705844E+03  0.7546771E-02  0.1100946E+00
         21   -1    0    0  502  501  0.00000000000E+00  0.00000000000E+00  0.18067265567E+03  0.18067265567E+03  0.00000000000E+00 0. -1.
         21   -1    0    0  501  502 -0.00000000000E+00 -0.00000000000E+00 -0.40524081216E+03  0.40524081216E+03  0.00000000000E+00 0. -1.
         25    1    1    2    0    0 -0.74641598016E+02  0.11456325385E+03 -0.13896668086E+03  0.23158766305E+03  0.12500000000E+03 0.  0.
         25    1    1    2    0    0  0.82174152437E+02 -0.14124838783E+03 -0.10764770235E+02  0.20602082097E+03  0.12500000000E+03 0.  0.
         25    1    1    2    0    0 -0.75325544210E+01  0.26685133984E+02 -0.74836705392E+02  0.14830498382E+03  0.12500000000E+03 0.  0.
</event>
<event>
 5    0  0.5619558E-005  0.3043978E+03  0.7546771E-02  0.1083063E+00
         21   -1    0    0  502  501  0.00000000000E+00  0.00000000000E+00  0.70113140650E+03  0.70113140650E+03  0.00000000000E+00 0.  1.
         21   -1    0    0  501  502 -0.00000000000E+00 -0.00000000000E+00 -0.13215500967E+03  0.13215500967E+03  0.00000000000E+00 0.  1.
         25    1    1    2    0    0  0.11841823933E+03  0.16270969085E+02  0.14686864886E+03  0.22689870837E+03  0.12500000000E+03 0.  0.
         25    1    1    2    0    0 -0.19144362902E+02 -0.15102737031E+03  0.96048689095E+02  0.21914863425E+03  0.12500000000E+03 0.  0.
         25    1    1    2    0    0 -0.99273876431E+02  0.13475640123E+03  0.32605905888E+03  0.38723907356E+03  0.12500000000E+03 0.  0.
</event>
<event>
 5    0  0.5619558E-005  0.3633907E+03  0.7546771E-02  0.1057249E+00
         21   -1    0    0  502  501  0.00000000000E+00  0.00000000000E+00  0.18867242574E+03  0.18867242574E+03  0.00000000000E+00 0. -1.
         21   -1    0    0  501  502 -0.00000000000E+00 -0.00000000000E+00 -0.69990511482E+03  0.69990511482E+03  0.00000000000E+00 0. -1.
         25    1    1    2    0    0  0.16482636399E+03 -0.10936151876E+03 -0.17847750091E+03  0.29429048640E+03  0.12500000000E+03 0.  0.
         25    1    1    2    0    0  0.72981629380E+02  0.54498102231E+01  0.11629999053E+02  0.14531440237E+03  0.12500000000E+03 0.  0.
         25    1    1    2    0    0 -0.23780799337E+03  0.10391170854E+03 -0.34438518722E+03  0.44897265179E+03  0.12500000000E+03 0.  0.
</event>
<event>
 5    0  0.5619558E-005  0.3897686E+03  0.7546771E-02  0.1047381E+00
         21   -1    0    0  502  501  0.00000000000E+00  0.00000000000E+00  0.18454830429E+04  0.18454830429E+04  0.00000000000E+00 0. -1.
         21   -1    0    0  501  502 -0.00000000000E+00 -0.00000000000E+00 -0.82319655853E+02  0.82319655853E+02  0.00000000000E+00 0. -1.
         25    1    1    2    0    0 -0.14702902313E+03  0.52240568483E+02  0.11396876658E+04  0.11570910017E+04  0.12500000000E+03 0.  0.
         25    1    1    2    0    0  0.23365359203E+03  0.50204456016E+02  0.37007007119E+03  0.45792067660E+03  0.12500000000E+03 0.  0.
         25    1    1    2    0    0 -0.86624568905E+02 -0.10244502450E+03  0.25340564999E+03  0.31279102038E+03  0.12500000000E+03 0.  0.
</event>
<event>
 5    0  0.5619558E-005  0.3244142E+03  0.7546771E-02  0.1073635E+00
         21   -1    0    0  502  501  0.00000000000E+00  0.00000000000E+00  0.57970606414E+02  0.57970606414E+02  0.00000000000E+00 0.  1.
         21   -1    0    0  501  502 -0.00000000000E+00 -0.00000000000E+00 -0.18154819545E+04  0.18154819545E+04  0.00000000000E+00 0.  1.
         25    1    1    2    0    0  0.26867406526E+02  0.20721644279E+03 -0.40020083213E+03  0.46845087014E+03  0.12500000000E+03 0.  0.
         25    1    1    2    0    0  0.42461967700E+00 -0.33098135888E+02 -0.31457819390E+03  0.34011778398E+03  0.12500000000E+03 0.  0.
         25    1    1    2    0    0 -0.27292026203E+02 -0.17411830691E+03 -0.10427323221E+04  0.10648839068E+04  0.12500000000E+03 0.  0.
</event>
<event>
 5    0  0.5619558E-005  0.3619339E+03  0.7546771E-02  0.1057821E+00
         21   -1    0    0  502  501  0.00000000000E+00  0.00000000000E+00  0.21200617075E+03  0.21200617075E+03  0.00000000000E+00 0. -1.
         21   -1    0    0  501  502 -0.00000000000E+00 -0.00000000000E+00 -0.61788829213E+03  0.61788829213E+03  0.00000000000E+00 0. -1.
         25    1    1    2    0    0 -0.37141145420E+02  0.49881208616E+02  0.44990341863E+02  0.14668582248E+03  0.12500000000E+03 0.  0.
         25    1    1    2    0    0 -0.12940256942E+03  0.95336427957E+02 -0.51583681504E+02  0.21004746051E+03  0.12500000000E+03 0.  0.
         25    1    1    2    0    0  0.16654371484E+03 -0.14521763657E+03 -0.39928878174E+03  0.47316117988E+03  0.12500000000E+03 0.  0.
</event>
<event>
 5    0  0.5619558E-005  0.3846244E+03  0.7546771E-02  0.1049238E+00
         21   -1    0    0  502  501  0.00000000000E+00  0.00000000000E+00  0.11443956631E+03  0.11443956631E+03  0.00000000000E+00 0.  1.
         21   -1    0    0  501  502 -0.00000000000E+00 -0.00000000000E+00 -0.12926988966E+04  0.12926988966E+04  0.00000000000E+00 0.  1.
         25    1    1    2    0    0 -0.48679923058E+02  0.14828633166E+03 -0.91249207524E+02  0.21979533421E+03  0.12500000000E+03 0.  0.
         25    1    1    2    0    0  0.75858545077E+02 -0.12198770573E+03 -0.15307253345E+03  0.24431888938E+03  0.12500000000E+03 0.  0.
         25    1    1    2    0    0 -0.27178622020E+02 -0.26298625927E+02 -0.93393758929E+03  0.94302423930E+03  0.12500000000E+03 0.  0.
</event>
<event>
 5    0  0.5619558E-005  0.3633305E+03  0.7546771E-02  0.1057273E+00
         21   -1    0    0  502  501  0.00000000000E+00  0.00000000000E+00  0.13419206888E+03  0.13419206888E+03  0.00000000000E+00 0.  1.
         21   -1    0    0  501  502 -0.00000000000E+00 -0.00000000000E+00 -0.98373214961E+03  0.98373214961E+03  0.00000000000E+00 0.  1.
         25    1    1    2    0    0 -0.37407612453E+02  0.15980733261E+03 -0.24318089526E+03  0.31890384263E+03  0.12500000000E+03 0.  0.
         25    1    1    2    0    0  0.20031092361E+02 -0.27030386063E+03 -0.54316324817E+03  0.61977151911E+03  0.12500000000E+03 0.  0.
         25    1    1    2    0    0  0.17376520093E+02  0.11049652802E+03 -0.63195937295E+02  0.17924885675E+03  0.12500000000E+03 0.  0.
</event>
<event>
 5    0  0.5619558E-005  0.3013821E+03  0.7546771E-02  0.1084552E+00
         21   -1    0    0  502  501  0.00000000000E+00  0.00000000000E+00  0.59871223605E+03  0.59871223605E+03  0.00000000000E+00 0. -1.
         21   -1    0    0  501  502 -0.00000000000E+00 -0.00000000000E+00 -0.15171085703E+03  0.15171085703E+03  0.00000000000E+00 0. -1.
         25    1    1    2    0    0  0.13872991286E+02  0.89260166154E+02  0.29925005817E+01  0.15425236533E+03  0.12500000000E+03 0.  0.
         25    1    1    2    0    0 -0.14338832665E+03 -0.78160024448E+02  0.16366589947E+03  0.26283212949E+03  0.12500000000E+03 0.  0.
         25    1    1    2    0    0  0.12951533537E+03 -0.11100141706E+02  0.28034297896E+03  0.33333859827E+03  0.12500000000E+03 0.  0.
</event>
<event>
 5    0  0.5619558E-005  0.3072326E+03  0.7546771E-02  0.1081680E+00
         21   -1    0    0  502  501  0.00000000000E+00  0.00000000000E+00  0.53405528361E+03  0.53405528361E+03  0.00000000000E+00 0.  1.
         21   -1    0    0  501  502 -0.00000000000E+00 -0.00000000000E+00 -0.17674548855E+03  0.17674548855E+03  0.00000000000E+00 0.  1.
         25    1    1    2    0    0  0.36949372217E+02 -0.16296778418E+03  0.24678460424E+03  0.32318941145E+03  0.12500000000E+03 0.  0.
         25    1    1    2    0    0 -0.63080939115E+02 -0.16174499796E+02 -0.10189209867E+01  0.14094984045E+03  0.12500000000E+03 0.  0.
         25    1    1    2    0    0  0.26131566898E+02  0.17914228397E+03  0.11154411181E+03  0.24666152026E+03  0.12500000000E+03 0.  0.
</event>
<event>
 5    0  0.5619558E-005  0.4189213E+03  0.7546771E-02  0.1037418E+00
         21   -1    0    0  502  501  0.00000000000E+00  0.00000000000E+00  0.18781833303E+03  0.18781833303E+03  0.00000000000E+00 0. -1.
         21   -1    0    0  501  502 -0.00000000000E+00 -0.00000000000E+00 -0.93438703097E+03  0.93438703097E+03  0.00000000000E+00 0. -1.
         25    1    1    2    0    0 -0.16118342288E+03  0.10393867298E+03 -0.49845035677E+02  0.23429227715E+03  0.12500000000E+03 0.  0.
         25    1    1    2    0    0 -0.36498799774E+02  0.12151412680E+03 -0.89681992234E+02  0.19941340258E+03  0.12500000000E+03 0.  0.
         25    1    1    2    0    0  0.19768222265E+03 -0.22545279978E+03 -0.60704167003E+03  0.68849968427E+03  0.12500000000E+03 0.  0.
</event>
<event>
 5    0  0.5961637E-005  0.2922687E+03  0.7546771E-02  0.1089171E+00
         21   -1    0    0  502  501  0.00000000000E+00  0.00000000000E+00  0.25200750445E+03  0.25200750445E+03  0.00000000000E+00 0. -1.
         21   -1    0    0  501  502 -0.00000000000E+00 -0.00000000000E+00 -0.33896206065E+03  0.33896206065E+03  0.00000000000E+00 0. -1.
         25    1    1    2    0    0  0.32548385129E+01 -0.81551444362E+02  0.58085542013E+02  0.16018789668E+03  0.12500000000E+03 0.  0.
         25    1    1    2    0    0 -0.56922851052E+02 -0.83637586517E+02 -0.14538598833E+03  0.21678916591E+03  0.12500000000E+03 0.  0.
         25    1    1    2    0    0  0.53668012539E+02  0.16518903088E+03  0.34589012586E+00  0.21399250251E+03  0.12500000000E+03 0.  0.
</event>
<event>
 5    0  0.5619558E-005  0.3279789E+03  0.7546771E-02  0.1072035E+00
         21   -1    0    0  502  501  0.00000000000E+00  0.00000000000E+00  0.10449955883E+03  0.10449955883E+03  0.00000000000E+00 0.  1.
         21   -1    0    0  501  502 -0.00000000000E+00 -0.00000000000E+00 -0.10293839791E+04  0.10293839791E+04  0.00000000000E+00 0.  1.
         25    1    1    2    0    0 -0.52055045208E+02  0.16781108692E+03 -0.19078105460E+03  0.28791092272E+03  0.12500000000E+03 0.  0.
         25    1    1    2    0    0 -0.10160167309E+03 -0.15189375961E+03 -0.40303681774E+03  0.45984594229E+03  0.12500000000E+03 0.  0.
         25    1    1    2    0    0  0.15365671829E+03 -0.15917327301E+02 -0.33106654793E+03  0.38612667292E+03  0.12500000000E+03 0.  0.
</event>
<event>
 5    0  0.5619558E-005  0.4369255E+03  0.7546771E-02  0.1031694E+00
         21   -1    0    0  502  501  0.00000000000E+00  0.00000000000E+00  0.26568285457E+03  0.26568285457E+03  0.00000000000E+00 0. -1.
         21   -1    0    0  501  502 -0.00000000000E+00 -0.00000000000E+00 -0.71854056721E+03  0.71854056721E+03  0.00000000000E+00 0. -1.
         25    1    1    2    0    0  0.24260179395E+03 -0.15239631589E+03 -0.35829020882E+03  0.47547569996E+03  0.12500000000E+03 0.  0.
         25    1    1    2    0    0 -0.12382086617E+03  0.23681833105E+03 -0.67261945811E+00  0.29502539084E+03  0.12500000000E+03 0.  0.
         25    1    1    2    0    0 -0.11878092778E+03 -0.84422015165E+02 -0.93894884373E+02  0.21372233098E+03  0.12500000000E+03 0.  0.
</event>
<event>
 5    0  0.5619558E-005  0.3212389E+03  0.7546771E-02  0.1075081E+00
         21   -1    0    0  502  501  0.00000000000E+00  0.00000000000E+00  0.54240855152E+03  0.54240855152E+03  0.00000000000E+00 0. -1.
         21   -1    0    0  501  502 -0.00000000000E+00 -0.00000000000E+00 -0.19025216625E+03  0.19025216625E+03  0.00000000000E+00 0. -1.
         25    1    1    2    0    0 -0.95622696576E+02  0.26920698703E+02  0.78260079578E+02  0.17781469055E+03  0.12500000000E+03 0.  0.
         25    1    1    2    0    0  0.32525645554E+02 -0.20815031927E+03  0.89457026039E+02  0.26079116653E+03  0.12500000000E+03 0.  0.
         25    1    1    2    0    0  0.63097051022E+02  0.18122962057E+03  0.18443927966E+03  0.29405486069E+03  0.12500000000E+03 0.  0.
</event>
<event>
 5    0  0.5619558E-005  0.2547083E+03  0.7546771E-02  0.1110365E+00
         21   -1    0    0  502  501  0.00000000000E+00  0.00000000000E+00  0.26604841925E+03  0.26604841925E+03  0.00000000000E+00 0.  1.
         21   -1    0    0  501  502 -0.00000000000E+00 -0.00000000000E+00 -0.24385147246E+03  0.24385147246E+03  0.00000000000E+00 0.  1.
         25    1    1    2    0    0 -0.10774950013E+03 -0.85263437705E+02  0.65391449222E+02  0.19692854089E+03  0.12500000000E+03 0.  0.
         25    1    1    2    0    0 -0.62621366421E+01  0.53271755026E+02 -0.35679483421E+02  0.14062403698E+03  0.12500000000E+03 0.  0.
         25    1    1    2    0    0  0.11401163677E+03  0.31991682680E+02 -0.75150190106E+01  0.17234731385E+03  0.12500000000E+03 0.  0.
</event>
<event>
 5    0  0.5619558E-005  0.2665262E+03  0.7546771E-02  0.1103284E+00
         21   -1    0    0  502  501  0.00000000000E+00  0.00000000000E+00  0.17556649005E+03  0.17556649005E+03  0.00000000000E+00 0. -1.
         21   -1    0    0  501  502 -0.00000000000E+00 -0.00000000000E+00 -0.40461157792E+03  0.40461157792E+03  0.00000000000E+00 0. -1.
         25    1    1    2    0    0 -0.10629761098E+03  0.58138695966E+02 -0.17129121714E+03  0.24422319943E+03  0.12500000000E+03 0.  0.
         25    1    1    2    0    0  0.10548818937E+03 -0.12393320726E+02  0.42342905687E+02  0.16940860119E+03  0.12500000000E+03 0.  0.
         25    1    1    2    0    0  0.80942161036E+00 -0.45745375240E+02 -0.10009677642E+03  0.16654626735E+03  0.12500000000E+03 0.  0.
</event>
<event>
 5    0  0.5619558E-005  0.2455399E+03  0.7546771E-02  0.1116156E+00
         21   -1    0    0  502  501  0.00000000000E+00  0.00000000000E+00  0.14668654975E+03  0.14668654975E+03  0.00000000000E+00 0. -1.
         21   -1    0    0  501  502 -0.00000000000E+00 -0.00000000000E+00 -0.41101139983E+03  0.41101139983E+03  0.00000000000E+00 0. -1.
         25    1    1    2    0    0  0.17889068029E+02 -0.11565788076E+02 -0.32849694507E+02  0.13098812403E+03  0.12500000000E+03 0.  0.
         25    1    1    2    0    0  0.50184300895E+02  0.11896756401E+03 -0.10553081176E+03  0.20840704780E+03  0.12500000000E+03 0.  0.
         25    1    1    2    0    0 -0.68073368923E+02 -0.10740177593E+03 -0.12594434382E+03  0.21830277774E+03  0.12500000000E+03 0.  0.
</event>
<event>
 5    0  0.5619558E-005  0.2945884E+03  0.7546771E-02  0.1087978E+00
         21   -1    0    0  502  501  0.00000000000E+00  0.00000000000E+00  0.12027133851E+04  0.12027133851E+04  0.00000000000E+00 0. -1.
         21   -1    0    0  501  502 -0.00000000000E+00 -0.00000000000E+00 -0.72155432651E+02  0.72155432651E+02  0.00000000000E+00 0. -1.
         25    1    1    2    0    0  0.53646864629E+02  0.13842052358E+03  0.25486611349E+03  0.32034350819E+03  0.12500000000E+03 0.  0.
         25    1    1    2    0    0  0.21999105109E+02 -0.18130827886E+03  0.60094652591E+03  0.64040485602E+03  0.12500000000E+03 0.  0.
         25    1    1    2    0    0 -0.75645969738E+02  0.42887755280E+02  0.27474531306E+03  0.31412045355E+03  0.12500000000E+03 0.  0.
</event>
<event>
 5    0  0.5619558E-005  0.2529037E+03  0.7546771E-02  0.1111483E+00
         21   -1    0    0  502  501  0.00000000000E+00  0.00000000000E+00  0.20785760672E+03  0.20785760672E+03  0.00000000000E+00 0. -1.
         21   -1    0    0  501  502 -0.00000000000E+00 -0.00000000000E+00 -0.30771197980E+03  0.30771197980E+03  0.00000000000E+00 0. -1.
         25    1    1    2    0    0  0.73453093449E+02 -0.57580705057E+02 -0.34561410496E+02  0.15978230699E+03  0.12500000000E+03 0.  0.
         25    1    1    2    0    0 -0.86765678490E+02  0.13067896938E+03 -0.63411463546E+02  0.21035990519E+03  0.12500000000E+03 0.  0.
         25    1    1    2    0    0  0.13312585040E+02 -0.73098264328E+02 -0.18814990338E+01  0.14542737434E+03  0.12500000000E+03 0.  0.
</event>
<event>
 5    0  0.5619558E-005  0.2518451E+03  0.7546771E-02  0.1112144E+00
         21   -1    0    0  502  501  0.00000000000E+00  0.00000000000E+00  0.26160426125E+03  0.26160426125E+03  0.00000000000E+00 0.  1.
         21   -1    0    0  501  502 -0.00000000000E+00 -0.00000000000E+00 -0.24245005513E+03  0.24245005513E+03  0.00000000000E+00 0.  1.
         25    1    1    2    0    0  0.69796994000E+02  0.84380954428E+02  0.12363084714E+02  0.16664216665E+03  0.12500000000E+03 0.  0.
         25    1    1    2    0    0  0.38446263071E+02  0.43579902847E+01 -0.51930287267E+02  0.14077947989E+03  0.12500000000E+03 0.  0.
         25    1    1    2    0    0 -0.10824325707E+03 -0.88738944713E+02  0.58721408678E+02  0.19663266984E+03  0.12500000000E+03 0.  0.
</event>
<event>
 5    0  0.5619558E-005  0.3352699E+03  0.7546771E-02  0.1068829E+00
         21   -1    0    0  502  501  0.00000000000E+00  0.00000000000E+00  0.75541051514E+03  0.75541051514E+03  0.00000000000E+00 0. -1.
         21   -1    0    0  501  502 -0.00000000000E+00 -0.00000000000E+00 -0.14880109540E+03  0.14880109540E+03  0.00000000000E+00 0. -1.
         25    1    1    2    0    0 -0.10422431827E+03 -0.14709334576E+03  0.22076222985E+03  0.31122359007E+03  0.12500000000E+03 0.  0.
         25    1    1    2    0    0  0.17542759584E+03  0.12868182341E+03  0.37005336310E+03  0.44709992686E+03  0.12500000000E+03 0.  0.
         25    1    1    2    0    0 -0.71203277570E+02  0.18411522350E+02  0.15793826786E+02  0.14588809361E+03  0.12500000000E+03 0.  0.
</event>
<event>
 5    0  0.5619558E-005  0.3291852E+03  0.7546771E-02  0.1071498E+00
         21   -1    0    0  502  501  0.00000000000E+00  0.00000000000E+00  0.14371095827E+03  0.14371095827E+03  0.00000000000E+00 0.  1.
         21   -1    0    0  501  502 -0.00000000000E+00 -0.00000000000E+00 -0.75403340852E+03  0.75403340852E+03  0.00000000000E+00 0.  1.
         25    1    1    2    0    0  0.57074045099E+02  0.26756878185E+02 -0.17891796421E+03  0.22717837721E+03  0.12500000000E+03 0.  0.
         25    1    1    2    0    0 -0.22965061492E+03 -0.10132326285E+03 -0.18271328146E+03  0.33468634832E+03  0.12500000000E+03 0.  0.
         25    1    1    2    0    0  0.17257656982E+03  0.74566384666E+02 -0.24869120459E+03  0.33587964126E+03  0.12500000000E+03 0.  0.
</event>
<event>
 5    0  0.5619558E-005  0.2622728E+03  0.7546771E-02  0.1105785E+00
         21   -1    0    0  502  501  0.00000000000E+00  0.00000000000E+00  0.28967225658E+03  0.28967225658E+03  0.00000000000E+00 0. -1.
         21   -1    0    0  501  502 -0.00000000000E+00 -0.00000000000E+00 -0.23746503191E+03  0.23746503191E+03  0.00000000000E+00 0. -1.
         25    1    1    2    0    0  0.26345674543E+02  0.29171343632E+02 -0.11281812424E+02  0.13151935655E+03  0.12500000000E+03 0.  0.
         25    1    1    2    0    0 -0.86854324474E+02  0.35067349423E+02 -0.88849447190E+02  0.17970146616E+03  0.12500000000E+03 0.  0.
         25    1    1    2    0    0  0.60508649931E+02 -0.64238693056E+02  0.15233848428E+03  0.21591646578E+03  0.12500000000E+03 0.  0.
</event>
<event>
 5    0  0.5619558E-005  0.2602015E+03  0.7546771E-02  0.1107022E+00
         21   -1    0    0  502  501  0.00000000000E+00  0.00000000000E+00  0.27284335532E+03  0.27284335532E+03  0.00000000000E+00 0.  1.
         21   -1    0    0  501  502 -0.00000000000E+00 -0.00000000000E+00 -0.24814535161E+03  0.24814535161E+03  0.00000000000E+00 0.  1.
         25    1    1    2    0    0  0.49896688202E+01 -0.40787126655E+02  0.17445969379E+03  0.21851698161E+03  0.12500000000E+03 0.  0.
         25    1    1    2    0    0  0.10344875895E+02  0.50553120111E+02 -0.62703224958E+02  0.14906149345E+03  0.12500000000E+03 0.  0.
         25    1    1    2    0    0 -0.15334544715E+02 -0.97659934557E+01 -0.87058465119E+02  0.15341023186E+03  0.12500000000E+03 0.  0.
</event>
<event>
 5    0  0.5619558E-005  0.3425049E+03  0.7546771E-02  0.1065734E+00
         21   -1    0    0  502  501  0.00000000000E+00  0.00000000000E+00  0.16887116815E+03  0.16887116815E+03  0.00000000000E+00 0.  1.
         21   -1    0    0  501  502 -0.00000000000E+00 -0.00000000000E+00 -0.69466915389E+03  0.69466915389E+03  0.00000000000E+00 0.  1.
         25    1    1    2    0    0 -0.57831843802E+02  0.44386971725E+02 -0.46825837117E+03  0.49010777140E+03  0.12500000000E+03 0.  0.
         25    1    1    2    0    0  0.50208623063E+02  0.53839320362E+01 -0.15626241803E+03  0.20638031844E+03  0.12500000000E+03 0.  0.
         25    1    1    2    0    0  0.76232207396E+01 -0.49770903761E+02  0.98722803464E+02  0.16705223219E+03  0.12500000000E+03 0.  0.
</event>
<event>
 5    0  0.5822542E-005  0.2727236E+03  0.7546771E-02  0.1099731E+00
         21   -1    0    0  502  501  0.00000000000E+00  0.00000000000E+00  0.27627860214E+03  0.27627860214E+03  0.00000000000E+00 0. -1.
         21   -1    0    0  501  502 -0.00000000000E+00 -0.00000000000E+00 -0.26921429975E+03  0.26921429975E+03  0.00000000000E+00 0. -1.
         25    1    1    2    0    0  0.12510657063E+03 -0.13140210532E+03  0.33848130776E+02  0.22290998913E+03  0.12500000000E+03 0.  0.
         25    1    1    2    0    0 -0.60141410732E+02  0.89553665760E+02  0.24529145659E+02  0.16692371708E+03  0.12500000000E+03 0.  0.
         25    1    1    2    0    0 -0.64965159898E+02  0.41848439565E+02 -0.51312974040E+02  0.15565919568E+03  0.12500000000E+03 0.  0.
</event>
<event>
 5    0  0.5619558E-005  0.3183293E+03  0.7546771E-02  0.1076421E+00
         21   -1    0    0  502  501  0.00000000000E+00  0.00000000000E+00  0.53221496202E+02  0.53221496202E+02  0.00000000000E+00 0. -1.
         21   -1    0    0  501  502 -0.00000000000E+00 -0.00000000000E+00 -0.19039967041E+04  0.19039967041E+04  0.00000000000E+00 0. -1.
         25    1    1    2    0    0 -0.86621756964E+02  0.13257968656E+03 -0.29118822343E+03  0.35425454624E+03  0.12500000000E+03 0.  0.
         25    1    1    2    0    0  0.40578524936E+02 -0.14147429646E+03 -0.12634849320E+04  0.12781552201E+04  0.12500000000E+03 0.  0.
         25    1    1    2    0    0  0.46043232027E+02  0.88946098980E+01 -0.29610205239E+03  0.32480843390E+03  0.12500000000E+03 0.  0.
</event>
<event>
 5    0  0.5619558E-005  0.3154047E+03  0.7546771E-02  0.1077784E+00
         21   -1    0    0  502  501  0.00000000000E+00  0.00000000000E+00  0.26582162296E+03  0.26582162296E+03  0.00000000000E+00 0.  1.
         21   -1    0    0  501  502 -0.00000000000E+00 -0.00000000000E+00 -0.37423635433E+03  0.37423635433E+03  0.00000000000E+00 0.  1.
         25    1    1    2    0    0 -0.85940880291E+02 -0.18806075158E+03 -0.99155924107E+02  0.26116963544E+03  0.12500000000E+03 0.  0.
         25    1    1    2    0    0  0.13488815042E+03  0.13981061463E+03  0.24471420247E+02  0.23230512585E+03  0.12500000000E+03 0.  0.
         25    1    1    2    0    0 -0.48947270125E+02  0.48250136946E+02 -0.33730227509E+02  0.14658321601E+03  0.12500000000E+03 0.  0.
</event>
<event>
 5    0  0.5619558E-005  0.2888949E+03  0.7546771E-02  0.1090928E+00
         21   -1    0    0  502  501  0.00000000000E+00  0.00000000000E+00  0.57265795568E+02  0.57265795568E+02  0.00000000000E+00 0. -1.
         21   -1    0    0  501  502 -0.00000000000E+00 -0.00000000000E+00 -0.14574190132E+04  0.14574190132E+04  0.00000000000E+00 0. -1.
         25    1    1    2    0    0  0.12842443253E+03  0.86211629303E+02 -0.79912675929E+03  0.82350097590E+03  0.12500000000E+03 0.  0.
         25    1    1    2    0    0 -0.90822679124E+02  0.39693312376E+02 -0.26386586608E+03  0.30834155311E+03  0.12500000000E+03 0.  0.
         25    1    1    2    0    0 -0.37601753409E+02 -0.12590494168E+03 -0.33716059229E+03  0.38284227978E+03  0.12500000000E+03 0.  0.
</event>
<event>
 5    0  0.5619558E-005  0.5475916E+03  0.7546771E-02  0.1002053E+00
         21   -1    0    0  502  501  0.00000000000E+00  0.00000000000E+00  0.78970392655E+03  0.78970392655E+03  0.00000000000E+00 0.  1.
         21   -1    0    0  501  502 -0.00000000000E+00 -0.00000000000E+00 -0.37970754498E+03  0.37970754498E+03  0.00000000000E+00 0.  1.
         25    1    1    2    0    0  0.91049245879E+02  0.39375518642E+02  0.29663170513E+03  0.33683195385E+03  0.12500000000E+03 0.  0.
         25    1    1    2    0    0  0.23074975408E+03  0.12696619716E+03  0.28947833182E+03  0.41083885993E+03  0.12500000000E+03 0.  0.
         25    1    1    2    0    0 -0.32179899996E+03 -0.16634171580E+03 -0.17611365538E+03  0.42174065776E+03  0.12500000000E+03 0.  0.
</event>
<event>
 5    0  0.5619558E-005  0.3347732E+03  0.7546771E-02  0.1069044E+00
         21   -1    0    0  502  501  0.00000000000E+00  0.00000000000E+00  0.82948829712E+03  0.82948829712E+03  0.00000000000E+00 0. -1.
         21   -1    0    0  501  502 -0.00000000000E+00 -0.00000000000E+00 -0.13511112169E+03  0.13511112169E+03  0.00000000000E+00 0. -1.
         25    1    1    2    0    0 -0.91871253201E+01  0.94663703870E+02  0.15213923850E+03  0.21867091254E+03  0.12500000000E+03 0.  0.
         25    1    1    2    0    0 -0.15509030467E+03  0.10217981590E+03  0.27970784775E+03  0.35826693606E+03  0.12500000000E+03 0.  0.
         25    1    1    2    0    0  0.16427742999E+03 -0.19684351977E+03  0.26253008919E+03  0.38766157020E+03  0.12500000000E+03 0.  0.
</event>
<event>
 5    0  0.5619558E-005  0.2619286E+03  0.7546771E-02  0.1105990E+00
         21   -1    0    0  502  501  0.00000000000E+00  0.00000000000E+00  0.45448400985E+03  0.45448400985E+03  0.00000000000E+00 0.  1.
         21   -1    0    0  501  502 -0.00000000000E+00 -0.00000000000E+00 -0.15095485484E+03  0.15095485484E+03  0.00000000000E+00 0.  1.
         25    1    1    2    0    0 -0.59954971082E+02  0.12606479678E+03  0.31137400843E+02  0.18995122867E+03  0.12500000000E+03 0.  0.
         25    1    1    2    0    0  0.54186954640E+02 -0.94191764468E+00  0.10647823973E+03  0.17291538046E+03  0.12500000000E+03 0.  0.
         25    1    1    2    0    0  0.57680164415E+01 -0.12512287913E+03  0.16591351443E+03  0.24257225556E+03  0.12500000000E+03 0.  0.
</event>
<event>
 5    0  0.5619558E-005  0.5621923E+03  0.7546771E-02  0.9987106E-01
         21   -1    0    0  502  501  0.00000000000E+00  0.00000000000E+00  0.24486226530E+04  0.24486226530E+04  0.00000000000E+00 0.  1.
         21   -1    0    0  501  502 -0.00000000000E+00 -0.00000000000E+00 -0.12907671255E+03  0.12907671255E+03  0.00000000000E+00 0.  1.
         25    1    1    2    0    0 -0.40850574897E+03 -0.15811644671E+02  0.14298667359E+04  0.14924043813E+04  0.12500000000E+03 0.  0.
         25    1    1    2    0    0  0.22584540182E+03 -0.16863581896E+03  0.61132626799E+03  0.68468167122E+03  0.12500000000E+03 0.  0.
         25    1    1    2    0    0  0.18266034715E+03  0.18444746363E+03  0.27835293662E+03  0.40061331304E+03  0.12500000000E+03 0.  0.
</event>
<event>
 5    0  0.6246914E-005  0.3464878E+03  0.7546771E-02  0.1064066E+00
         21   -1    0    0  502  501  0.00000000000E+00  0.00000000000E+00  0.68542579510E+03  0.68542579510E+03  0.00000000000E+00 0. -1.
         21   -1    0    0  501  502 -0.00000000000E+00 -0.00000000000E+00 -0.17515216171E+03  0.17515216171E+03  0.00000000000E+00 0. -1.
         25    1    1    2    0    0 -0.17571941289E+03  0.14215686302E+03  0.38560965550E+03  0.46411818774E+03  0.12500000000E+03 0.  0.
         25    1    1    2    0    0  0.14265147346E+03 -0.55662750976E+02  0.13685437725E+03  0.24042026807E+03  0.12500000000E+03 0.  0.
         25    1    1    2    0    0  0.33067939422E+02 -0.86494112046E+02 -0.12190399364E+02  0.15603950100E+03  0.12500000000E+03 0.  0.
</event>
<event>
 5    0  0.5826380E-005  0.4564259E+03  0.7546771E-02  0.1025823E+00
         21   -1    0    0  502  501  0.00000000000E+00  0.00000000000E+00  0.32816345926E+03  0.32816345926E+03  0.00000000000E+00 0.  1.
         21   -1    0    0  501  502 -0.00000000000E+00 -0.00000000000E+00 -0.63481963529E+03  0.63481963529E+03  0.00000000000E+00 0.  1.
         25    1    1    2    0    0 -0.19861239675E+03  0.14651169085E+03  0.66740805311E+02  0.28459074967E+03  0.12500000000E+03 0.  0.
         25    1    1    2    0    0  0.24155994638E+03 -0.14550071620E+03 -0.29376928302E+02  0.30985427224E+03  0.12500000000E+03 0.  0.
         25    1    1    2    0    0 -0.42947549625E+02 -0.10109746534E+01 -0.34402005305E+03  0.36853807264E+03  0.12500000000E+03 0.  0.
</event>
<event>
 5    0  0.5619558E-005  0.2973074E+03  0.7546771E-02  0.1086594E+00
         21   -1    0    0  502  501  0.00000000000E+00  0.00000000000E+00  0.18078381111E+03  0.18078381111E+03  0.00000000000E+00 0.  1.
         21   -1    0    0  501  502 -0.00000000000E+00 -0.00000000000E+00 -0.48893587698E+03  0.48893587698E+03  0.00000000000E+00 0.  1.
         25    1    1    2    0    0  0.15006903043E+03  0.82876525817E+01  0.31440169806E+01  0.19551031667E+03  0.12500000000E+03 0.  0.
         25    1    1    2    0    0 -0.16191531283E+03 -0.64679383600E+00 -0.98547422270E+02  0.22705413739E+03  0.12500000000E+03 0.  0.
         25    1    1    2    0    0  0.11846282391E+02 -0.76408587457E+01 -0.21274866059E+03  0.24715523403E+03  0.12500000000E+03 0.  0.
</event>
<event>
 5    0  0.5619558E-005  0.2742814E+03  0.7546771E-02  0.1098854E+00
         21   -1    0    0  502  501  0.00000000000E+00  0.00000000000E+00  0.18618098525E+03  0.18618098525E+03  0.00000000000E+00 0.  1.
         21   -1    0    0  501  502 -0.00000000000E+00 -0.00000000000E+00 -0.40407069998E+03  0.40407069998E+03  0.00000000000E+00 0.  1.
         25    1    1    2    0    0  0.12175550447E+03  0.27620274177E+02  0.30658734651E+02  0.17931045821E+03  0.12500000000E+03 0.  0.
         25    1    1    2    0    0 -0.13773307993E+03 -0.44646647969E+02 -0.19441017729E+03  0.27273437905E+03  0.12500000000E+03 0.  0.
         25    1    1    2    0    0  0.15977575459E+02  0.17026373793E+02 -0.54138272091E+02  0.13820684797E+03  0.12500000000E+03 0.  0.
</event>
<event>
 5    0  0.5619558E-005  0.4891422E+03  0.7546771E-02  0.1016652E+00
         21   -1    0    0  502  501  0.00000000000E+00  0.00000000000E+00  0.70229758008E+03  0.70229758008E+03  0.00000000000E+00 0.  1.
         21   -1    0    0  501  502 -0.00000000000E+00 -0.00000000000E+00 -0.34068198145E+03  0.34068198145E+03  0.00000000000E+00 0.  1.
         25    1    1    2    0    0  0.36823443619E+03 -0.23147475497E+03  0.15661485335E+03  0.47888451058E+03  0.12500000000E+03 0.  0.
         25    1    1    2    0    0 -0.16954182513E+03  0.15110517990E+03  0.31078551908E+02  0.26109018030E+03  0.12500000000E+03 0.  0.
         25    1    1    2    0    0 -0.19869261106E+03  0.80369575072E+02  0.17392219338E+03  0.30300487065E+03  0.12500000000E+03 0.  0.
</event>
<event>
 5    0  0.5619558E-005  0.4728606E+03  0.7546771E-02  0.1021116E+00
         21   -1    0    0  502  501  0.00000000000E+00  0.00000000000E+00  0.12213965785E+03  0.12213965785E+03  0.00000000000E+00 0.  1.
         21   -1    0    0  501  502 -0.00000000000E+00 -0.00000000000E+00 -0.18306680530E+04  0.18306680530E+04  0.00000000000E+00 0.  1.
         25    1    1    2    0    0  0.27396079437E+03 -0.73016471960E-01 -0.10038183814E+04  0.10480128172E+04  0.12500000000E+03 0.  0.
         25    1    1    2    0    0 -0.36504911244E+03  0.51319184893E+02 -0.39343098912E+03  0.55345050044E+03  0.12500000000E+03 0.  0.
         25    1    1    2    0    0  0.91088318070E+02 -0.51246168421E+02 -0.31127902465E+03  0.35134439323E+03  0.12500000000E+03 0.  0.
</event>
<event>
 5    0  0.5619558E-005  0.2614228E+03  0.7546771E-02  0.1106291E+00
         21   -1    0    0  502  501  0.00000000000E+00  0.00000000000E+00  0.85154286192E+03  0.85154286192E+03  0.00000000000E+00 0. -1.
         21   -1    0    0  501  502 -0.00000000000E+00 -0.00000000000E+00 -0.80256511802E+02  0.80256511802E+02  0.00000000000E+00 0. -1.
         25    1    1    2    0    0  0.30686709639E+02 -0.11250242209E+03  0.26604533668E+03  0.31623344272E+03  0.12500000000E+03 0.  0.
         25    1    1    2    0    0 -0.56277204585E+02  0.15777011726E+03  0.24361079279E+03  0.32098247930E+03  0.12500000000E+03 0.  0.
         25    1    1    2    0    0  0.25590494946E+02 -0.45267695171E+02  0.26163022064E+03  0.29458345169E+03  0.12500000000E+03 0.  0.
</event>
<event>
 5    0  0.5619558E-005  0.4433990E+03  0.7546771E-02  0.1029709E+00
         21   -1    0    0  502  501  0.00000000000E+00  0.00000000000E+00  0.48381885942E+03  0.48381885942E+03  0.00000000000E+00 0. -1.
         21   -1    0    0  501  502 -0.00000000000E+00 -0.00000000000E+00 -0.40635589112E+03  0.40635589112E+03  0.00000000000E+00 0. -1.
         25    1    1    2    0    0  0.21058659744E+03  0.14419562493E+03 -0.23677150295E+03  0.36989841562E+03  0.12500000000E+03 0.  0.
         25    1    1    2    0    0 -0.22782597975E+02 -0.70063826520E+02  0.22265925559E+03  0.26576329818E+03  0.12500000000E+03 0.  0.
         25    1    1    2    0    0 -0.18780399946E+03 -0.74131798411E+02  0.91575215664E+02  0.25451303675E+03  0.12500000000E+03 0.  0.
</event>
<event>
 5    0  0.5619558E-005  0.4446057E+03  0.7546771E-02  0.1029343E+00
         21   -1    0    0  502  501  0.00000000000E+00  0.00000000000E+00  0.15611188548E+04  0.15611188548E+04  0.00000000000E+00 0.  1.
         21   -1    0    0  501  502 -0.00000000000E+00 -0.00000000000E+00 -0.12662344808E+03  0.12662344808E+03  0.00000000000E+00 0.  1.
         25    1    1    2    0    0  0.69859509724E+02  0.13576804835E+03  0.72212035390E+03  0.74859609909E+03  0.12500000000E+03 0.  0.
         25    1    1    2    0    0 -0.19081385456E+03  0.71932916278E+02  0.59987606558E+03  0.64580226509E+03  0.12500000000E+03 0.  0.
         25    1    1    2    0    0  0.12095434484E+03 -0.20770096463E+03  0.11249898723E+03  0.29334393870E+03  0.12500000000E+03 0.  0.
</event>
<event>
 5    0  0.5619558E-005  0.3072509E+03  0.7546771E-02  0.1081671E+00
         21   -1    0    0  502  501  0.00000000000E+00  0.00000000000E+00  0.42200614501E+03  0.42200614501E+03  0.00000000000E+00 0. -1.
         21   -1    0    0  501  502 -0.00000000000E+00 -0.00000000000E+00 -0.22370087989E+03  0.22370087989E+03  0.00000000000E+00 0. -1.
         25    1    1    2    0    0  0.38166159871E+02  0.40503923412E+02 -0.33843547969E+02  0.14095250729E+03  0.12500000000E+03 0.  0.
         25    1    1    2    0    0 -0.16676648687E+02 -0.65625922499E+02 -0.82646887157E+02  0.16443959460E+03  0.12500000000E+03 0.  0.
         25    1    1    2    0    0 -0.21489511183E+02  0.25121999088E+02  0.31479570025E+03  0.34031492301E+03  0.12500000000E+03 0.  0.
</event>
<event>
 5    0  0.5619558E-005  0.3064026E+03  0.7546771E-02  0.1082083E+00
         21   -1    0    0  502  501  0.00000000000E+00  0.00000000000E+00  0.15038346367E+03  0.15038346367E+03  0.00000000000E+00 0. -1.
         21   -1    0    0  501  502 -0.00000000000E+00 -0.00000000000E+00 -0.62428780421E+03  0.62428780421E+03  0.00000000000E+00 0. -1.
         25    1    1    2    0    0  0.56634995851E+02  0.24970130731E+02  0.68120894926E+02  0.15523043036E+03  0.12500000000E+03 0.  0.
         25    1    1    2    0    0 -0.25675291932E+02  0.25571134832E+02 -0.12651084098E+03  0.18150233177E+03  0.12500000000E+03 0.  0.
         25    1    1    2    0    0 -0.30959703919E+02 -0.50541265563E+02 -0.41551439449E+03  0.43793850575E+03  0.12500000000E+03 0.  0.
</event>
<event>
 5    0  0.5619558E-005  0.2440621E+03  0.7546771E-02  0.1117116E+00
         21   -1    0    0  502  501  0.00000000000E+00  0.00000000000E+00  0.22558751294E+02  0.22558751294E+02  0.00000000000E+00 0.  1.
         21   -1    0    0  501  502 -0.00000000000E+00 -0.00000000000E+00 -0.26404965192E+04  0.26404965192E+04  0.00000000000E+00 0.  1.
         25    1    1    2    0    0  0.49445734671E+02  0.29097295130E+02 -0.33989387504E+03  0.36666657818E+03  0.12500000000E+03 0.  0.
         25    1    1    2    0    0 -0.69450320120E+02  0.33023143317E+02 -0.10298054767E+04  0.10402106493E+04  0.12500000000E+03 0.  0.
         25    1    1    2    0    0  0.20004585449E+02 -0.62120438447E+02 -0.12482384161E+04  0.12561780430E+04  0.12500000000E+03 0.  0.
</event>
<event>
 5    0  0.5619558E-005  0.3434244E+03  0.7546771E-02  0.1065347E+00
         21   -1    0    0  502  501  0.00000000000E+00  0.00000000000E+00  0.52047965107E+03  0.52047965107E+03  0.00000000000E+00 0. -1.
         21   -1    0    0  501  502 -0.00000000000E+00 -0.00000000000E+00 -0.22659932539E+03  0.22659932539E+03  0.00000000000E+00 0. -1.
         25    1    1    2    0    0 -0.99843180779E+02  0.64044263759E+02 -0.69429402794E+01  0.17246313487E+03  0.12500000000E+03 0.  0.
         25    1    1    2    0    0  0.14181375412E+02  0.10568917552E+03 -0.35939752548E+02  0.16819030604E+03  0.12500000000E+03 0.  0.
         25    1    1    2    0    0  0.85661805368E+02 -0.16973343928E+03  0.33676301851E+03  0.40642553555E+03  0.12500000000E+03 0.  0.
</event>
<event>
 5    0  0.5619558E-005  0.3421935E+03  0.7546771E-02  0.1065866E+00
         21   -1    0    0  502  501  0.00000000000E+00  0.00000000000E+00  0.20096600494E+03  0.20096600494E+03  0.00000000000E+00 0.  1.
         21   -1    0    0  501  502 -0.00000000000E+00 -0.00000000000E+00 -0.58266753744E+03  0.58266753744E+03  0.00000000000E+00 0.  1.
         25    1    1    2    0    0  0.15184939680E+03 -0.39301481878E+01 -0.11040809617E+03  0.22558509053E+03  0.12500000000E+03 0.  0.
         25    1    1    2    0    0 -0.14401561887E+03  0.10929951637E+03 -0.31915534884E+03  0.38752034714E+03  0.12500000000E+03 0.  0.
         25    1    1    2    0    0 -0.78337779267E+01 -0.10536936818E+03  0.47861912507E+02  0.17052810471E+03  0.12500000000E+03 0.  0.
</event>
<event>
 5    0  0.5844706E-005  0.4402403E+03  0.7546771E-02  0.1030673E+00
         21   -1    0    0  502  501  0.00000000000E+00  0.00000000000E+00  0.26729766873E+03  0.26729766873E+03  0.00000000000E+00 0. -1.
         21   -1    0    0  501  502 -0.00000000000E+00 -0.00000000000E+00 -0.72507738851E+03  0.72507738851E+03  0.00000000000E+00 0. -1.
         25    1    1    2    0    0 -0.79380198219E+02 -0.20367378994E+03 -0.31004992916E+03  0.39942482040E+03  0.12500000000E+03 0.  0.
         25    1    1    2    0    0 -0.10792579547E+03 -0.45751732517E+02  0.77848197554E+02  0.18821939384E+03  0.12500000000E+03 0.  0.
         25    1    1    2    0    0  0.18730599368E+03  0.24942552246E+03 -0.22557798818E+03  0.40473084300E+03  0.12500000000E+03 0.  0.
</event>
<event>
 5    0  0.5619558E-005  0.6863944E+03  0.7546771E-02  0.9740787E-01
         21   -1    0    0  502  501  0.00000000000E+00  0.00000000000E+00  0.23168901878E+04  0.23168901878E+04  0.00000000000E+00 0.  1.
         21   -1    0    0  501  502 -0.00000000000E+00 -0.00000000000E+00 -0.20334899059E+03  0.20334899059E+03  0.00000000000E+00 0.  1.
         25    1    1    2    0    0  0.15362486949E+03 -0.32665215314E+03  0.24673974285E+03  0.45476117950E+03  0.12500000000E+03 0.  0.
         25    1    1    2    0    0  0.17989025757E+03  0.31044127317E+03  0.38318012602E+03  0.53961680648E+03  0.12500000000E+03 0.  0.
         25    1    1    2    0    0 -0.33351512706E+03  0.16210879974E+02  0.14836213283E+04  0.15258611924E+04  0.12500000000E+03 0.  0.
</event>
<event>
 5    0  0.5619558E-005  0.3399356E+03  0.7546771E-02  0.1066823E+00
         21   -1    0    0  502  501  0.00000000000E+00  0.00000000000E+00  0.33107799234E+04  0.33107799234E+04  0.00000000000E+00 0. -1.
         21   -1    0    0  501  502 -0.00000000000E+00 -0.00000000000E+00 -0.34903021275E+02  0.34903021275E+02  0.00000000000E+00 0. -1.
         25    1    1    2    0    0  0.74764818530E+02 -0.15588644823E+03  0.96591500978E+03  0.98919521276E+03  0.12500000000E+03 0.  0.
         25    1    1    2    0    0 -0.80900738563E+02 -0.10088943127E+03  0.84296994414E+03  0.86194369513E+03  0.12500000000E+03 0.  0.
         25    1    1    2    0    0  0.61359200332E+01  0.25677587949E+03  0.14669919482E+04  0.14945440368E+04  0.12500000000E+03 0.  0.
</event>
<event>
 5    0  0.5619558E-005  0.3069522E+03  0.7546771E-02  0.1081816E+00
         21   -1    0    0  502  501  0.00000000000E+00  0.00000000000E+00  0.16090252256E+03  0.16090252256E+03  0.00000000000E+00 0.  1.
         21   -1    0    0  501  502 -0.00000000000E+00 -0.00000000000E+00 -0.58556978558E+03  0.58556978558E+03  0.00000000000E+00 0.  1.
         25    1    1    2    0    0  0.15043017340E+03  0.48457439090E+02 -0.27519972523E+03  0.34108246692E+03  0.12500000000E+03 0.  0.
         25    1    1    2    0    0  0.48420121349E+02  0.10421591123E+02 -0.46580955968E+02  0.14229512701E+03  0.12500000000E+03 0.  0.
         25    1    1    2    0    0 -0.19885029475E+03 -0.58879030214E+02 -0.10288658182E+03  0.26309471420E+03  0.12500000000E+03 0.  0.
</event>
<event>
 5    0  0.5619558E-005  0.4734583E+03  0.7546771E-02  0.1020949E+00
         21   -1    0    0  502  501  0.00000000000E+00  0.00000000000E+00  0.46353812115E+03  0.46353812115E+03  0.00000000000E+00 0. -1.
         21   -1    0    0  501  502 -0.00000000000E+00 -0.00000000000E+00 -0.48359077367E+03  0.48359077367E+03  0.00000000000E+00 0. -1.
         25    1    1    2    0    0 -0.14696978649E+03 -0.14697025558E+03 -0.96026076260E+02  0.26085701349E+03  0.12500000000E+03 0.  0.
         25    1    1    2    0    0 -0.20011793560E+03  0.13148309326E+03 -0.85432483112E+02  0.28329966667E+03  0.12500000000E+03 0.  0.
         25    1    1    2    0    0  0.34708772209E+03  0.15487162319E+02  0.16140590685E+03  0.40297221466E+03  0.12500000000E+03 0.  0.
</event>
<event>
 5    0  0.5619558E-005  0.2689996E+03  0.7546771E-02  0.1101854E+00
         21   -1    0    0  502  501  0.00000000000E+00  0.00000000000E+00  0.62992005415E+03  0.62992005415E+03  0.00000000000E+00 0. -1.
         21   -1    0    0  501  502 -0.00000000000E+00 -0.00000000000E+00 -0.11487296382E+03  0.11487296382E+03  0.00000000000E+00 0. -1.
         25    1    1    2    0    0  0.12566826315E+03  0.47420751287E+02  0.28214647705E+03  0.33656035793E+03  0.12500000000E+03 0.  0.
         25    1    1    2    0    0 -0.15410494700E+03  0.16509071589E+00  0.14300154946E+03  0.24458700925E+03  0.12500000000E+03 0.  0.
         25    1    1    2    0    0  0.28436683854E+02 -0.47585842003E+02  0.89899063813E+02  0.16364565079E+03  0.12500000000E+03 0.  0.
</event>
<event>
 5    0  0.5619558E-005  0.3766088E+03  0.7546771E-02  0.1052194E+00
         21   -1    0    0  502  501  0.00000000000E+00  0.00000000000E+00  0.46838766441E+03  0.46838766441E+03  0.00000000000E+00 0.  1.
         21   -1    0    0  501  502 -0.00000000000E+00 -0.00000000000E+00 -0.30281373574E+03  0.30281373574E+03  0.00000000000E+00 0.  1.
         25    1    1    2    0    0 -0.97376130793E+02  0.23518170339E+03  0.10478494825E+03  0.30232007846E+03  0.12500000000E+03 0.  0.
         25    1    1    2    0    0  0.13216619473E+03 -0.59876498240E+02  0.13958419123E+03  0.23698490355E+03  0.12500000000E+03 0.  0.
         25    1    1    2    0    0 -0.34790063937E+02 -0.17530520516E+03 -0.78795210799E+02  0.23189641814E+03  0.12500000000E+03 0.  0.
</event>
<event>
 5    0  0.5619558E-005  0.1995265E+03  0.7546771E-02  0.1150139E+00
         21   -1    0    0  502  501  0.00000000000E+00  0.00000000000E+00  0.37119667202E+02  0.37119667202E+02  0.00000000000E+00 0. -1.
         21   -1    0    0  501  502 -0.00000000000E+00 -0.00000000000E+00 -0.10724995489E+04  0.10724995489E+04  0.00000000000E+00 0. -1.
         25    1    1    2    0    0  0.16523694564E+02  0.24196984640E+02 -0.38773034565E+03  0.40843401852E+03  0.12500000000E+03 0.  0.
         25    1    1    2    0    0  0.19169358769E+02  0.16148081996E+02 -0.38170352439E+03  0.40243111883E+03  0.12500000000E+03 0.  0.
         25    1    1    2    0    0 -0.35693053334E+02 -0.40345066636E+02 -0.26594601170E+03  0.29875407880E+03  0.12500000000E+03 0.  0.
</event>
<event>
 5    0  0.5619558E-005  0.3115628E+03  0.7546771E-02  0.1079599E+00
         21   -1    0    0  502  501  0.00000000000E+00  0.00000000000E+00  0.74777885272E+02  0.74777885272E+02  0.00000000000E+00 0.  1.
         21   -1    0    0  501  502 -0.00000000000E+00 -0.00000000000E+00 -0.12981298012E+04  0.12981298012E+04  0.00000000000E+00 0.  1.
         25    1    1    2    0    0  0.10089554474E+03 -0.56354159482E+02 -0.15304118629E+03  0.22891550175E+03  0.12500000000E+03 0.  0.
         25    1    1    2    0    0 -0.12188368516E+02  0.32510617287E+02 -0.91617164155E+03  0.92531128457E+03  0.12500000000E+03 0.  0.
         25    1    1    2    0    0 -0.88707176226E+02  0.23843542195E+02 -0.15413908809E+03  0.21868090016E+03  0.12500000000E+03 0.  0.
</event>
<event>
 5    0  0.5619558E-005  0.2675471E+03  0.7546771E-02  0.1102692E+00
         21   -1    0    0  502  501  0.00000000000E+00  0.00000000000E+00  0.74844294547E+02  0.74844294547E+02  0.00000000000E+00 0.  1.
         21   -1    0    0  501  502 -0.00000000000E+00 -0.00000000000E+00 -0.95640493909E+03  0.95640493909E+03  0.00000000000E+00 0.  1.
         25    1    1    2    0    0  0.61895656524E+02 -0.37415103234E+02 -0.17170875136E+03  0.22436545532E+03  0.12500000000E+03 0.  0.
         25    1    1    2    0    0 -0.15799116368E+03  0.75697753549E+02 -0.33177519831E+03  0.39546319665E+03  0.12500000000E+03 0.  0.
         25    1    1    2    0    0  0.96095507158E+02 -0.38282650315E+02 -0.37807669487E+03  0.41142058166E+03  0.12500000000E+03 0.  0.
</event>
<event>
 5    0  0.5619558E-005  0.2642788E+03  0.7546771E-02  0.1104599E+00
         21   -1    0    0  502  501  0.00000000000E+00  0.00000000000E+00  0.77849208296E+03  0.77849208296E+03  0.00000000000E+00 0.  1.
         21   -1    0    0  501  502 -0.00000000000E+00 -0.00000000000E+00 -0.89716095520E+02  0.89716095520E+02  0.00000000000E+00 0. -1.
         25    1    1    2    0    0 -0.13979107201E+02 -0.64341018307E+02  0.17980303046E+03  0.22866856329E+03  0.12500000000E+03 0.  0.
         25    1    1    2    0    0 -0.22116561364E+02 -0.97545266171E+02  0.12543785898E+03  0.20338111442E+03  0.12500000000E+03 0.  0.
         25    1    1    2    0    0  0.36095668565E+02  0.16188628448E+03  0.38353509800E+03  0.43615850077E+03  0.12500000000E+03 0.  0.
</event>
<event>
 5    0  0.5619558E-005  0.4443615E+03  0.7546771E-02  0.1029417E+00
         21   -1    0    0  502  501  0.00000000000E+00  0.00000000000E+00  0.25069121052E+03  0.25069121052E+03  0.00000000000E+00 0.  1.
         21   -1    0    0  501  502 -0.00000000000E+00 -0.00000000000E+00 -0.78765092229E+03  0.78765092229E+03  0.00000000000E+00 0.  1.
         25    1    1    2    0    0  0.94002783287E+02  0.98781936588E+02 -0.11672741652E+03  0.21873427722E+03  0.12500000000E+03 0.  0.
         25    1    1    2    0    0 -0.31924229330E+03  0.75874666070E+02 -0.83208260948E+02  0.36086177613E+03  0.12500000000E+03 0.  0.
         25    1    1    2    0    0  0.22523951002E+03 -0.17465660266E+03 -0.33702403430E+03  0.45874607946E+03  0.12500000000E+03 0.  0.
</event>
<event>
 5    0  0.5619558E-005  0.3319092E+03  0.7546771E-02  0.1070295E+00
         21   -1    0    0  502  501  0.00000000000E+00  0.00000000000E+00  0.24434067081E+03  0.24434067081E+03  0.00000000000E+00 0.  1.
         21   -1    0    0  501  502 -0.00000000000E+00 -0.00000000000E+00 -0.45086109755E+03  0.45086109755E+03  0.00000000000E+00 0.  1.
         25    1    1    2    0    0 -0.89122441306E+02  0.20726229518E+03  0.29058758115E+02  0.25955708422E+03  0.12500000000E+03 0.  0.
         25    1    1    2    0    0  0.81523387628E+02 -0.50814780598E+02 -0.58285460161E+02  0.16807855165E+03  0.12500000000E+03 0.  0.
         25    1    1    2    0    0  0.75990536786E+01 -0.15644751458E+03 -0.17729372469E+03  0.26756613248E+03  0.12500000000E+03 0.  0.
</event>
<event>
 5    0  0.5619558E-005  0.4020994E+03  0.7546771E-02  0.1043055E+00
         21   -1    0    0  502  501  0.00000000000E+00  0.00000000000E+00  0.45942755209E+03  0.45942755209E+03  0.00000000000E+00 0. -1.
         21   -1    0    0  501  502 -0.00000000000E+00 -0.00000000000E+00 -0.35192474203E+03  0.35192474203E+03  0.00000000000E+00 0. -1.
         25    1    1    2    0    0 -0.12369497663E+03 -0.17468005833E+02  0.35286407875E+03  0.39464368302E+03  0.12500000000E+03 0.  0.
         25    1    1    2    0    0  0.11616655900E+03 -0.69253137657E+02 -0.12509370478E+03  0.22262996537E+03  0.12500000000E+03 0.  0.
         25    1    1    2    0    0  0.75284176318E+01  0.86721143489E+02 -0.12026756392E+03  0.19407864574E+03  0.12500000000E+03 0.  0.
</event>
<event>
 5    0  0.5619558E-005  0.4957154E+03  0.7546771E-02  0.1014903E+00
         21   -1    0    0  502  501  0.00000000000E+00  0.00000000000E+00  0.53627607846E+03  0.53627607846E+03  0.00000000000E+00 0. -1.
         21   -1    0    0  501  502 -0.00000000000E+00 -0.00000000000E+00 -0.45822252339E+03  0.45822252339E+03  0.00000000000E+00 0. -1.
         25    1    1    2    0    0  0.20174639067E+02 -0.13148893266E+03  0.21804154067E+03  0.28436502761E+03  0.12500000000E+03 0.  0.
         25    1    1    2    0    0 -0.10202305118E+03  0.37331713088E+03 -0.12502837447E+03  0.42547794021E+03  0.12500000000E+03 0.  0.
         25    1    1    2    0    0  0.81848412110E+02 -0.24182819822E+03 -0.14959611120E+02  0.28465563403E+03  0.12500000000E+03 0.  0.
</event>
<event>
 5    0  0.5619558E-005  0.3856427E+03  0.7546771E-02  0.1048868E+00
         21   -1    0    0  502  501  0.00000000000E+00  0.00000000000E+00  0.12800577967E+03  0.12800577967E+03  0.00000000000E+00 0. -1.
         21   -1    0    0  501  502 -0.00000000000E+00 -0.00000000000E+00 -0.11618248781E+04  0.11618248781E+04  0.00000000000E+00 0. -1.
         25    1    1    2    0    0  0.11172019509E+03 -0.22879936125E+03 -0.47628199639E+03  0.55434654305E+03  0.12500000000E+03 0.  0.
         25    1    1    2    0    0 -0.18726477116E+03  0.17087045346E+03 -0.20391733715E+03  0.34852845906E+03  0.12500000000E+03 0.  0.
         25    1    1    2    0    0  0.75544576069E+02  0.57928907784E+02 -0.35361976489E+03  0.38695565566E+03  0.12500000000E+03 0.  0.
</event>
<event>
 5    0  0.5619558E-005  0.2776426E+03  0.7546771E-02  0.1096983E+00
         21   -1    0    0  502  501  0.00000000000E+00  0.00000000000E+00  0.53554393187E+03  0.53554393187E+03  0.00000000000E+00 0. -1.
         21   -1    0    0  501  502 -0.00000000000E+00 -0.00000000000E+00 -0.14393856649E+03  0.14393856649E+03  0.00000000000E+00 0. -1.
         25    1    1    2    0    0  0.10064396715E+03  0.84409686837E+02  0.25628534573E+03  0.31394487062E+03  0.12500000000E+03 0.  0.
         25    1    1    2    0    0 -0.29816814993E+02  0.38155266151E+02  0.14604521562E+01  0.13405968712E+03  0.12500000000E+03 0.  0.
         25    1    1    2    0    0 -0.70827152156E+02 -0.12256495299E+03  0.13385956749E+03  0.23147794062E+03  0.12500000000E+03 0.  0.
</event>
<event>
 5    0  0.5619558E-005  0.2725443E+03  0.7546771E-02  0.1099832E+00
         21   -1    0    0  502  501  0.00000000000E+00  0.00000000000E+00  0.44257481124E+03  0.44257481124E+03  0.00000000000E+00 0. -1.
         21   -1    0    0  501  502 -0.00000000000E+00 -0.00000000000E+00 -0.16783696842E+03  0.16783696842E+03  0.00000000000E+00 0. -1.
         25    1    1    2    0    0 -0.17015133916E+02 -0.11257902518E+03  0.27258511164E+03  0.32076657366E+03  0.12500000000E+03 0.  0.
         25    1    1    2    0    0 -0.73739550833E+01  0.63637658275E+02 -0.41384275379E+02  0.14643013697E+03  0.12500000000E+03 0.  0.
         25    1    1    2    0    0  0.24389089000E+02  0.48941366902E+02  0.43537006567E+02  0.14321506903E+03  0.12500000000E+03 0.  0.
</event>
<event>
 5    0  0.5619558E-005  0.3502019E+03  0.7546771E-02  0.1062532E+00
         21   -1    0    0  502  501  0.00000000000E+00  0.00000000000E+00  0.82208083250E+02  0.82208083250E+02  0.00000000000E+00 0. -1.
         21   -1    0    0  501  502 -0.00000000000E+00 -0.00000000000E+00 -0.14918411550E+04  0.14918411550E+04  0.00000000000E+00 0. -1.
         25    1    1    2    0    0 -0.14842013554E+03  0.22037355897E+03 -0.53671591401E+03  0.61178592210E+03  0.12500000000E+03 0.  0.
         25    1    1    2    0    0  0.40522138486E+02 -0.33250487315E+02 -0.17691624207E+03  0.22287215017E+03  0.12500000000E+03 0.  0.
         25    1    1    2    0    0  0.10789799706E+03 -0.18712307166E+03 -0.69600091569E+03  0.73939116600E+03  0.12500000000E+03 0.  0.
</event>
<event>
 5    0  0.5619558E-005  0.3066584E+03  0.7546771E-02  0.1081959E+00
         21   -1    0    0  502  501  0.00000000000E+00  0.00000000000E+00  0.24782307938E+03  0.24782307938E+03  0.00000000000E+00 0.  1.
         21   -1    0    0  501  502 -0.00000000000E+00 -0.00000000000E+00 -0.37946166436E+03  0.37946166436E+03  0.00000000000E+00 0.  1.
         25    1    1    2    0    0  0.16191082338E+03 -0.16552393623E+02 -0.92760435974E+02  0.22520789272E+03  0.12500000000E+03 0.  0.
         25    1    1    2    0    0 -0.19115779267E+01  0.65154852958E+02  0.79733768343E+02  0.16196074465E+03  0.12500000000E+03 0.  0.
         25    1    1    2    0    0 -0.15999924545E+03 -0.48602459335E+02 -0.11861191735E+03  0.24011610637E+03  0.12500000000E+03 0.  0.
</event>
<event>
 5    0  0.5887133E-005  0.3656954E+03  0.7546771E-02  0.1056351E+00
         21   -1    0    0  502  501  0.00000000000E+00  0.00000000000E+00  0.24499437267E+03  0.24499437267E+03  0.00000000000E+00 0. -1.
         21   -1    0    0  501  502 -0.00000000000E+00 -0.00000000000E+00 -0.54586209797E+03  0.54586209797E+03  0.00000000000E+00 0. -1.
         25    1    1    2    0    0 -0.75942028170E+02  0.15523123288E+03  0.91430511519E+02  0.23205272190E+03  0.12500000000E+03 0.  0.
         25    1    1    2    0    0 -0.49074072453E+02 -0.15502743549E+03 -0.13116881137E+03  0.24345847165E+03  0.12500000000E+03 0.  0.
         25    1    1    2    0    0  0.12501610062E+03 -0.20379738339E+00 -0.26112942545E+03  0.31534527709E+03  0.12500000000E+03 0.  0.
</event>
<event>
 5    0  0.5619558E-005  0.2376038E+03  0.7546771E-02  0.1121399E+00
         21   -1    0    0  502  501  0.00000000000E+00  0.00000000000E+00  0.50515788198E+02  0.50515788198E+02  0.00000000000E+00 0. -1.
         21   -1    0    0  501  502 -0.00000000000E+00 -0.00000000000E+00 -0.11175827505E+04  0.11175827505E+04  0.00000000000E+00 0. -1.
         25    1    1    2    0    0  0.37262578319E+02  0.37641882345E+01 -0.24454567478E+03  0.27718271214E+03  0.12500000000E+03 0.  0.
         25    1    1    2    0    0  0.57796741074E+02 -0.46675165123E+02 -0.58608196719E+03  0.60385106325E+03  0.12500000000E+03 0.  0.
         25    1    1    2    0    0 -0.95059319394E+02  0.42910976888E+02 -0.23643932038E+03  0.28706476336E+03  0.12500000000E+03 0.  0.
</event>
<event>
 5    0  0.5619558E-005  0.4545953E+03  0.7546771E-02  0.1026360E+00
         21   -1    0    0  502  501  0.00000000000E+00  0.00000000000E+00  0.33849087469E+03  0.33849087469E+03  0.00000000000E+00 0. -1.
         21   -1    0    0  501  502 -0.00000000000E+00 -0.00000000000E+00 -0.61052415486E+03  0.61052415486E+03  0.00000000000E+00 0. -1.
         25    1    1    2    0    0  0.10014668025E+03  0.10100694029E+03 -0.43624960876E+02  0.19431905919E+03  0.12500000000E+03 0.  0.
         25    1    1    2    0    0  0.97116343532E+02  0.25068472577E+03 -0.11014471479E+03  0.31627721087E+03  0.12500000000E+03 0.  0.
         25    1    1    2    0    0 -0.19726302379E+03 -0.35169166606E+03 -0.11826360451E+03  0.43841875950E+03  0.12500000000E+03 0.  0.
</event>
<event>
 5    0  0.5619558E-005  0.2255402E+03  0.7546771E-02  0.1129819E+00
         21   -1    0    0  502  501  0.00000000000E+00  0.00000000000E+00  0.18392860422E+03  0.18392860422E+03  0.00000000000E+00 0. -1.
         21   -1    0    0  501  502 -0.00000000000E+00 -0.00000000000E+00 -0.27656590293E+03  0.27656590293E+03  0.00000000000E+00 0. -1.
         25    1    1    2    0    0  0.36903958347E+02  0.16206621512E+02 -0.52388649265E+02  0.14140059156E+03  0.12500000000E+03 0.  0.
         25    1    1    2    0    0  0.74533347642E+02 -0.21113703095E+02 -0.11658052806E+01  0.14706246112E+03  0.12500000000E+03 0.  0.
         25    1    1    2    0    0 -0.11143730599E+03  0.49070815834E+01 -0.39082844166E+02  0.17203145446E+03  0.12500000000E+03 0.  0.
</event>
<event>
 5    0  0.5839288E-005  0.3281762E+03  0.7546771E-02  0.1071947E+00
         21   -1    0    0  502  501  0.00000000000E+00  0.00000000000E+00  0.63428582995E+03  0.63428582995E+03  0.00000000000E+00 0. -1.
         21   -1    0    0  501  502 -0.00000000000E+00 -0.00000000000E+00 -0.16979661767E+03  0.16979661767E+03  0.00000000000E+00 0. -1.
         25    1    1    2    0    0  0.13771899283E+03 -0.19670147381E+03  0.12872988384E+03  0.29975719137E+03  0.12500000000E+03 0.  0.
         25    1    1    2    0    0 -0.62403531620E+02  0.12307291519E+02  0.14252506487E+03  0.19996015678E+03  0.12500000000E+03 0.  0.
         25    1    1    2    0    0 -0.75315461210E+02  0.18439418229E+03  0.19323426358E+03  0.30436509947E+03  0.12500000000E+03 0.  0.
</event>
<event>
 5    0  0.5619558E-005  0.3108577E+03  0.7546771E-02  0.1079935E+00
         21   -1    0    0  502  501  0.00000000000E+00  0.00000000000E+00  0.42473675811E+03  0.42473675811E+03  0.00000000000E+00 0. -1.
         21   -1    0    0  501  502 -0.00000000000E+00 -0.00000000000E+00 -0.22751156942E+03  0.22751156942E+03  0.00000000000E+00 0. -1.
         25    1    1    2    0    0 -0.16011081091E+03 -0.56397025939E+02  0.46722278572E+02  0.21592606980E+03  0.12500000000E+03 0.  0.
         25    1    1    2    0    0 -0.20374127950E+02  0.12545492090E+03  0.49698936219E+02  0.18506492517E+03  0.12500000000E+03 0.  0.
         25    1    1    2    0    0  0.18048493886E+03 -0.69057894959E+02  0.10080397389E+03  0.25125733256E+03  0.12500000000E+03 0.  0.
</event>
<event>
 5    0  0.5619558E-005  0.2620068E+03  0.7546771E-02  0.1105943E+00
         21   -1    0    0  502  501  0.00000000000E+00  0.00000000000E+00  0.10016668813E+03  0.10016668813E+03  0.00000000000E+00 0.  1.
         21   -1    0    0  501  502 -0.00000000000E+00 -0.00000000000E+00 -0.68533322874E+03  0.68533322874E+03  0.00000000000E+00 0.  1.
         25    1    1    2    0    0  0.64568009730E+02 -0.18795974535E+02 -0.29541621952E+03  0.32774694399E+03  0.12500000000E+03 0.  0.
         25    1    1    2    0    0 -0.53423509913E+02  0.10907441256E+03 -0.23745624339E+03  0.29455350348E+03  0.12500000000E+03 0.  0.
         25    1    1    2    0    0 -0.11144499816E+02 -0.90278438029E+02 -0.52294077697E+02  0.16319946940E+03  0.12500000000E+03 0.  0.
</event>
<event>
 5    0  0.5619558E-005  0.3068019E+03  0.7546771E-02  0.1081889E+00
         21   -1    0    0  502  501  0.00000000000E+00  0.00000000000E+00  0.21797573821E+03  0.21797573821E+03  0.00000000000E+00 0. -1.
         21   -1    0    0  501  502 -0.00000000000E+00 -0.00000000000E+00 -0.43182515557E+03  0.43182515557E+03  0.00000000000E+00 0. -1.
         25    1    1    2    0    0 -0.10815116158E+03  0.11235338021E+03 -0.22100141616E+03  0.29797077330E+03  0.12500000000E+03 0.  0.
         25    1    1    2    0    0  0.13505058004E+03 -0.11189255867E+03 -0.32843338048E+02  0.21785841436E+03  0.12500000000E+03 0.  0.
         25    1    1    2    0    0 -0.26899418464E+02 -0.46082154228E+00  0.39995336854E+02  0.13397170612E+03  0.12500000000E+03 0.  0.
</event>
<event>
 5    0  0.5619558E-005  0.3016189E+03  0.7546771E-02  0.1084434E+00
         21   -1    0    0  502  501  0.00000000000E+00  0.00000000000E+00  0.71134756825E+02  0.71134756825E+02  0.00000000000E+00 0.  1.
         21   -1    0    0  501  502 -0.00000000000E+00 -0.00000000000E+00 -0.12788956992E+04  0.12788956992E+04  0.00000000000E+00 0.  1.
         25    1    1    2    0    0 -0.14961961498E+03  0.70227930730E+02 -0.45524170626E+03  0.50018796723E+03  0.12500000000E+03 0.  0.
         25    1    1    2    0    0  0.13710363999E+03 -0.69123896649E+02 -0.19336906381E+03  0.27675280672E+03  0.12500000000E+03 0.  0.
         25    1    1    2    0    0  0.12515974988E+02 -0.11040340814E+01 -0.55915017233E+03  0.57308968210E+03  0.12500000000E+03 0.  0.
</event>
<event>
 5    0  0.5619558E-005  0.2376411E+03  0.7546771E-02  0.1121374E+00
         21   -1    0    0  502  501  0.00000000000E+00  0.00000000000E+00  0.32636263235E+03  0.32636263235E+03  0.00000000000E+00 0.  1.
         21   -1    0    0  501  502 -0.00000000000E+00 -0.00000000000E+00 -0.17303851582E+03  0.17303851582E+03  0.00000000000E+00 0.  1.
         25    1    1    2    0    0 -0.69845740216E+02 -0.74111658651E+02 -0.35159017396E+02  0.16502158004E+03  0.12500000000E+03 0.  0.
         25    1    1    2    0    0  0.57207994079E+02  0.45292804613E+02  0.76936875396E+02  0.16391606246E+03  0.12500000000E+03 0.  0.
         25    1    1    2    0    0  0.12637746137E+02  0.28818854038E+02  0.11154625852E+03  0.17046350567E+03  0.12500000000E+03 0.  0.
</event>
<event>
 5    0  0.5619558E-005  0.4499437E+03  0.7546771E-02  0.1027739E+00
         21   -1    0    0  502  501  0.00000000000E+00  0.00000000000E+00  0.48803847580E+03  0.48803847580E+03  0.00000000000E+00 0. -1.
         21   -1    0    0  501  502 -0.00000000000E+00 -0.00000000000E+00 -0.41482243968E+03  0.41482243968E+03  0.00000000000E+00 0. -1.
         25    1    1    2    0    0 -0.41057009881E+02  0.16476911979E+03 -0.12097128700E+03  0.24309173819E+03  0.12500000000E+03 0.  0.
         25    1    1    2    0    0 -0.18118623459E+02 -0.28907219073E+03 -0.82805226636E+02  0.32614831217E+03  0.12500000000E+03 0.  0.
         25    1    1    2    0    0  0.59175633340E+02  0.12430307094E+03  0.27699254975E+03  0.33362086512E+03  0.12500000000E+03 0.  0.
</event>
<event>
 5    0  0.5619558E-005  0.2840713E+03  0.7546771E-02  0.1093486E+00
         21   -1    0    0  502  501  0.00000000000E+00  0.00000000000E+00  0.83912148146E+03  0.83912148146E+03  0.00000000000E+00 0. -1.
         21   -1    0    0  501  502 -0.00000000000E+00 -0.00000000000E+00 -0.96167828283E+02  0.96167828283E+02  0.00000000000E+00 0. -1.
         25    1    1    2    0    0  0.15843444540E+03  0.42054683682E+02  0.33668235181E+03  0.39477851504E+03  0.12500000000E+03 0.  0.
         25    1    1    2    0    0 -0.62367168566E+02 -0.33242582519E+02  0.52132595075E+02  0.15276629365E+03  0.12500000000E+03 0.  0.
         25    1    1    2    0    0 -0.96067276838E+02 -0.88121011631E+01  0.35413870629E+03  0.38774450106E+03  0.12500000000E+03 0.  0.
</event>
<event>
 5    0  0.5619558E-005  0.3819545E+03  0.7546771E-02  0.1050214E+00
         21   -1    0    0  502  501  0.00000000000E+00  0.00000000000E+00  0.34138236086E+03  0.34138236086E+03  0.00000000000E+00 0.  1.
         21   -1    0    0  501  502 -0.00000000000E+00 -0.00000000000E+00 -0.42734851370E+03  0.42734851370E+03  0.00000000000E+00 0.  1.
         25    1    1    2    0    0 -0.40904155646E+02  0.13368258026E+03  0.69898881269E+02  0.20013754225E+03  0.12500000000E+03 0.  0.
         25    1    1    2    0    0 -0.17619164938E+03 -0.15531136585E+03 -0.17169439778E+03  0.31665293920E+03  0.12500000000E+03 0.  0.
         25    1    1    2    0    0  0.21709580503E+03  0.21628785586E+02  0.15829363676E+02  0.25194039311E+03  0.12500000000E+03 0.  0.
</event>
<event>
 5    0  0.5619558E-005  0.3415987E+03  0.7546771E-02  0.1066117E+00
         21   -1    0    0  502  501  0.00000000000E+00  0.00000000000E+00  0.57651307182E+03  0.57651307182E+03  0.00000000000E+00 0.  1.
         21   -1    0    0  501  502 -0.00000000000E+00 -0.00000000000E+00 -0.20240595500E+03  0.20240595500E+03  0.00000000000E+00 0.  1.
         25    1    1    2    0    0 -0.79166403284E+02  0.55922462033E+02  0.16704782786E+03  0.23005351108E+03  0.12500000000E+03 0.  0.
         25    1    1    2    0    0  0.16837091275E+03  0.14174650909E+03  0.66129600619E+02  0.26160841190E+03  0.12500000000E+03 0.  0.
         25    1    1    2    0    0 -0.89204509468E+02 -0.19766897112E+03  0.14092968833E+03  0.28725710384E+03  0.12500000000E+03 0.  0.
</event>
<event>
 5    0  0.5619558E-005  0.4144830E+03  0.7546771E-02  0.1038877E+00
         21   -1    0    0  502  501  0.00000000000E+00  0.00000000000E+00  0.13253851357E+04  0.13253851357E+04  0.00000000000E+00 0. -1.
         21   -1    0    0  501  502 -0.00000000000E+00 -0.00000000000E+00 -0.12961980053E+03  0.12961980053E+03  0.00000000000E+00 0. -1.
         25    1    1    2    0    0 -0.63809934826E+02 -0.75083936107E+01  0.45362769920E+02  0.14768501837E+03  0.12500000000E+03 0.  0.
         25    1    1    2    0    0  0.10531333428E+03  0.88316984840E+02  0.44983092350E+02  0.19115247000E+03  0.12500000000E+03 0.  0.
         25    1    1    2    0    0 -0.41503399457E+02 -0.80808591230E+02  0.11054194729E+04  0.11161674478E+04  0.12500000000E+03 0.  0.
</event>
<event>
 5    0  0.5619558E-005  0.4557118E+03  0.7546771E-02  0.1026032E+00
         21   -1    0    0  502  501  0.00000000000E+00  0.00000000000E+00  0.53636785912E+03  0.53636785912E+03  0.00000000000E+00 0. -1.
         21   -1    0    0  501  502 -0.00000000000E+00 -0.00000000000E+00 -0.38718438407E+03  0.38718438407E+03  0.00000000000E+00 0. -1.
         25    1    1    2    0    0 -0.16562668955E+02 -0.28969309826E+03  0.22437604911E+03  0.38751261218E+03  0.12500000000E+03 0.  0.
         25    1    1    2    0    0  0.13167926906E+03  0.28303209646E+03  0.27488065911E+02  0.33738285567E+03  0.12500000000E+03 0.  0.
         25    1    1    2    0    0 -0.11511660011E+03  0.66610017934E+01 -0.10268063997E+03  0.19865677535E+03  0.12500000000E+03 0.  0.
</event>
<event>
 5    0  0.5619558E-005  0.3452036E+03  0.7546771E-02  0.1064601E+00
         21   -1    0    0  502  501  0.00000000000E+00  0.00000000000E+00  0.58515880835E+03  0.58515880835E+03  0.00000000000E+00 0.  1.
         21   -1    0    0  501  502 -0.00000000000E+00 -0.00000000000E+00 -0.20364651552E+03  0.20364651552E+03  0.00000000000E+00 0.  1.
         25    1    1    2    0    0 -0.17466282410E+03  0.50768432326E+02  0.19638496047E+02  0.22157438112E+03  0.12500000000E+03 0.  0.
         25    1    1    2    0    0 -0.75317018330E+02 -0.24210133751E+02  0.75077788693E+02  0.16589291179E+03  0.12500000000E+03 0.  0.
         25    1    1    2    0    0  0.24997984243E+03 -0.26558298575E+02  0.28679600809E+03  0.40133803097E+03  0.12500000000E+03 0.  0.
</event>
<event>
 5    0  0.5619558E-005  0.2266941E+03  0.7546771E-02  0.1128989E+00
         21   -1    0    0  502  501  0.00000000000E+00  0.00000000000E+00  0.26791890396E+03  0.26791890396E+03  0.00000000000E+00 0. -1.
         21   -1    0    0  501  502 -0.00000000000E+00 -0.00000000000E+00 -0.19181250177E+03  0.19181250177E+03  0.00000000000E+00 0. -1.
         25    1    1    2    0    0  0.11385568031E+01  0.77652061206E+02 -0.12998212385E+02  0.14773317991E+03  0.12500000000E+03 0.  0.
         25    1    1    2    0    0  0.61074624584E+02 -0.49327894160E+02  0.74708642240E+01  0.14779771555E+03  0.12500000000E+03 0.  0.
         25    1    1    2    0    0 -0.62213181387E+02 -0.28324167047E+02  0.81633750350E+02  0.16420051027E+03  0.12500000000E+03 0.  0.
</event>
<event>
 5    0  0.5619558E-005  0.3379885E+03  0.7546771E-02  0.1067656E+00
         21   -1    0    0  502  501  0.00000000000E+00  0.00000000000E+00  0.14596073794E+03  0.14596073794E+03  0.00000000000E+00 0.  1.
         21   -1    0    0  501  502 -0.00000000000E+00 -0.00000000000E+00 -0.78265031002E+03  0.78265031002E+03  0.00000000000E+00 0.  1.
         25    1    1    2    0    0 -0.23682994359E+02 -0.55781808239E+02 -0.24758549970E+03  0.28389447690E+03  0.12500000000E+03 0.  0.
         25    1    1    2    0    0  0.88423550422E+01  0.24776796916E+03 -0.16035702973E+03  0.32063457513E+03  0.12500000000E+03 0.  0.
         25    1    1    2    0    0  0.14840639317E+02 -0.19198616093E+03 -0.22874704265E+03  0.32408199592E+03  0.12500000000E+03 0.  0.
</event>
<event>
 5    0  0.5619558E-005  0.3140479E+03  0.7546771E-02  0.1078422E+00
         21   -1    0    0  502  501  0.00000000000E+00  0.00000000000E+00  0.41426813369E+03  0.41426813369E+03  0.00000000000E+00 0.  1.
         21   -1    0    0  501  502 -0.00000000000E+00 -0.00000000000E+00 -0.23807304480E+03  0.23807304480E+03  0.00000000000E+00 0.  1.
         25    1    1    2    0    0  0.16833626853E+03 -0.82426510866E+02  0.12437759905E+03  0.25734415894E+03  0.12500000000E+03 0.  0.
         25    1    1    2    0    0 -0.67961651523E+02  0.46756649142E+02 -0.92783190435E+02  0.17617800868E+03  0.12500000000E+03 0.  0.
         25    1    1    2    0    0 -0.10037461701E+03  0.35669861724E+02  0.14460068028E+03  0.21881901086E+03  0.12500000000E+03 0.  0.
</event>
<event>
 5    0  0.5619558E-005  0.5445128E+03  0.7546771E-02  0.1002772E+00
         21   -1    0    0  502  501  0.00000000000E+00  0.00000000000E+00  0.20987292487E+03  0.20987292487E+03  0.00000000000E+00 0. -1.
         21   -1    0    0  501  502 -0.00000000000E+00 -0.00000000000E+00 -0.14127317514E+04  0.14127317514E+04  0.00000000000E+00 0. -1.
         25    1    1    2    0    0  0.96589263646E+01  0.71931172045E+02  0.12670516499E+02  0.14509627962E+03  0.12500000000E+03 0.  0.
         25    1    1    2    0    0 -0.98342053725E+02 -0.41549145776E+03 -0.81151932781E+03  0.92546903266E+03  0.12500000000E+03 0.  0.
         25    1    1    2    0    0  0.88683127361E+02  0.34356028571E+03 -0.40401001519E+03  0.55203936397E+03  0.12500000000E+03 0.  0.
</event>
<event>
 5    0  0.5619558E-005  0.2626627E+03  0.7546771E-02  0.1105554E+00
         21   -1    0    0  502  501  0.00000000000E+00  0.00000000000E+00  0.57406151307E+03  0.57406151307E+03  0.00000000000E+00 0.  1.
         21   -1    0    0  501  502 -0.00000000000E+00 -0.00000000000E+00 -0.12018170567E+03  0.12018170567E+03  0.00000000000E+00 0.  1.
         25    1    1    2    0    0  0.57459822551E+02 -0.20462097931E+02  0.11177064900E+03  0.17843207850E+03  0.12500000000E+03 0.  0.
         25    1    1    2    0    0 -0.13917477178E+02 -0.10967753753E+03  0.26847795841E+03  0.31611433464E+03  0.12500000000E+03 0.  0.
         25    1    1    2    0    0 -0.43542345373E+02  0.13013963546E+03  0.73631199992E+02  0.19969680561E+03  0.12500000000E+03 0.  0.
</event>
<event>
 5    0  0.5619558E-005  0.2759036E+03  0.7546771E-02  0.1097948E+00
         21   -1    0    0  502  501  0.00000000000E+00  0.00000000000E+00  0.36683751356E+03  0.36683751356E+03  0.00000000000E+00 0. -1.
         21   -1    0    0  501  502 -0.00000000000E+00 -0.00000000000E+00 -0.20751091044E+03  0.20751091044E+03  0.00000000000E+00 0. -1.
         25    1    1    2    0    0  0.12035740912E+03  0.24487706136E+02  0.40392893694E+02  0.17983920469E+03  0.12500000000E+03 0.  0.
         25    1    1    2    0    0 -0.46915310761E+02  0.75339842460E+00  0.18909421885E+03  0.23148053394E+03  0.12500000000E+03 0.  0.
         25    1    1    2    0    0 -0.73442098358E+02 -0.25241104561E+02 -0.70160509427E+02  0.16302868537E+03  0.12500000000E+03 0.  0.
</event>
<event>
 5    0  0.5619558E-005  0.2161694E+03  0.7546771E-02  0.1136772E+00
         21   -1    0    0  502  501  0.00000000000E+00  0.00000000000E+00  0.77393270628E+03  0.77393270628E+03  0.00000000000E+00 0.  1.
         21   -1    0    0  501  502 -0.00000000000E+00 -0.00000000000E+00 -0.60378904479E+02  0.60378904479E+02  0.00000000000E+00 0.  1.
         25    1    1    2    0    0 -0.73062573056E+01  0.59231778646E+02  0.30419015000E+03  0.33424307376E+03  0.12500000000E+03 0.  0.
         25    1    1    2    0    0 -0.48251327501E+02  0.66094781580E+01  0.21537946695E+03  0.25374237051E+03  0.12500000000E+03 0.  0.
         25    1    1    2    0    0  0.55557584806E+02 -0.65841256804E+02  0.19398418485E+03  0.24632616649E+03  0.12500000000E+03 0.  0.
</event>
<event>
 5    0  0.5619558E-005  0.3281239E+03  0.7546771E-02  0.1071970E+00
         21   -1    0    0  502  501  0.00000000000E+00  0.00000000000E+00  0.48072961391E+03  0.48072961391E+03  0.00000000000E+00 0. -1.
         21   -1    0    0  501  502 -0.00000000000E+00 -0.00000000000E+00 -0.22396223802E+03  0.22396223802E+03  0.00000000000E+00 0. -1.
         25    1    1    2    0    0 -0.19417421887E+03 -0.92104859519E+02  0.21936225449E+03  0.33155954385E+03  0.12500000000E+03 0.  0.
         25    1    1    2    0    0  0.88921436601E+01  0.73908239810E+02  0.31238903214E+02  0.14880311557E+03  0.12500000000E+03 0.  0.
         25    1    1    2    0    0  0.18528207521E+03  0.18196619709E+02  0.61662181860E+01  0.22432919250E+03  0.12500000000E+03 0.  0.
</event>
<event>
 5    0  0.5619558E-005  0.3316864E+03  0.7546771E-02  0.1070393E+00
         21   -1    0    0  502  501  0.00000000000E+00  0.00000000000E+00  0.69578009281E+03  0.69578009281E+03  0.00000000000E+00 0. -1.
         21   -1    0    0  501  502 -0.00000000000E+00 -0.00000000000E+00 -0.15811870763E+03  0.15811870763E+03  0.00000000000E+00 0. -1.
         25    1    1    2    0    0  0.57119273387E+02 -0.86700210422E+02  0.21110441601E+03  0.26640122435E+03  0.12500000000E+03 0.  0.
         25    1    1    2    0    0  0.14582989039E+03 -0.18447533807E+02  0.34294482296E+02  0.19597902937E+03  0.12500000000E+03 0.  0.
         25    1    1    2    0    0 -0.20294916378E+03  0.10514774423E+03  0.29226248687E+03  0.39151854672E+03  0.12500000000E+03 0.  0.
</event>
<event>
 5    0  0.5619558E-005  0.2687978E+03  0.7546771E-02  0.1101970E+00
         21   -1    0    0  502  501  0.00000000000E+00  0.00000000000E+00  0.10400361282E+03  0.10400361282E+03  0.00000000000E+00 0. -1.
         21   -1    0    0  501  502 -0.00000000000E+00 -0.00000000000E+00 -0.69470927613E+03  0.69470927613E+03  0.00000000000E+00 0. -1.
         25    1    1    2    0    0  0.54861577123E+02  0.77592395489E+02 -0.29624384344E+02  0.15979041470E+03  0.12500000000E+03 0.  0.
         25    1    1    2    0    0 -0.29064510767E+02 -0.11428274871E+03 -0.34165428578E+03  0.38243684894E+03  0.12500000000E+03 0.  0.
         25    1    1    2    0    0 -0.25797066357E+02  0.36690353222E+02 -0.21942699318E+03  0.25648562531E+03  0.12500000000E+03 0.  0.
</event>
<event>
 5    0  0.5619558E-005  0.3378196E+03  0.7546771E-02  0.1067728E+00
         21   -1    0    0  502  501  0.00000000000E+00  0.00000000000E+00  0.27443027106E+03  0.27443027106E+03  0.00000000000E+00 0. -1.
         21   -1    0    0  501  502 -0.00000000000E+00 -0.00000000000E+00 -0.41585101862E+03  0.41585101862E+03  0.00000000000E+00 0. -1.
         25    1    1    2    0    0 -0.18229227381E+03  0.31469784020E+02  0.21342605061E+02  0.22427957372E+03  0.12500000000E+03 0.  0.
         25    1    1    2    0    0  0.21059492171E+03  0.41937265091E+02 -0.19376494911E+03  0.31508540233E+03  0.12500000000E+03 0.  0.
         25    1    1    2    0    0 -0.28302647905E+02 -0.73407049111E+02  0.31001596491E+02  0.15091631364E+03  0.12500000000E+03 0.  0.
</event>
<event>
 5    0  0.5619558E-005  0.3161650E+03  0.7546771E-02  0.1077428E+00
         21   -1    0    0  502  501  0.00000000000E+00  0.00000000000E+00  0.39746345707E+03  0.39746345707E+03  0.00000000000E+00 0.  1.
         21   -1    0    0  501  502 -0.00000000000E+00 -0.00000000000E+00 -0.25149556929E+03  0.25149556929E+03  0.00000000000E+00 0. -1.
         25    1    1    2    0    0 -0.18576949793E+03  0.11302216281E+03  0.71004510189E+02  0.26067404189E+03  0.12500000000E+03 0.  0.
         25    1    1    2    0    0  0.62840798345E+02  0.32360669414E+02 -0.12877739921E+02  0.14417702677E+03  0.12500000000E+03 0.  0.
         25    1    1    2    0    0  0.12292869958E+03 -0.14538283223E+03  0.87841117519E+02  0.24410795770E+03  0.12500000000E+03 0.  0.
</event>
<event>
 5    0  0.5619558E-005  0.3071160E+03  0.7546771E-02  0.1081737E+00
         21   -1    0    0  502  501  0.00000000000E+00  0.00000000000E+00  0.62441482108E+02  0.62441482108E+02  0.00000000000E+00 0.  1.
         21   -1    0    0  501  502 -0.00000000000E+00 -0.00000000000E+00 -0.15105383733E+04  0.15105383733E+04  0.00000000000E+00 0.  1.
         25    1    1    2    0    0  0.90435692116E+02  0.11176537942E+03 -0.19947684910E+03  0.27583713995E+03  0.12500000000E+03 0.  0.
         25    1    1    2    0    0  0.28913606084E+02 -0.82484627769E+02 -0.81998224579E+03  0.83404771677E+03  0.12500000000E+03 0.  0.
         25    1    1    2    0    0 -0.11934929820E+03 -0.29280751652E+02 -0.42863779627E+03  0.46309499867E+03  0.12500000000E+03 0.  0.
</event>
<event>
 5    0  0.5619558E-005  0.2903992E+03  0.7546771E-02  0.1090141E+00
         21   -1    0    0  502  501  0.00000000000E+00  0.00000000000E+00  0.47043995803E+03  0.47043995803E+03  0.00000000000E+00 0.  1.
         21   -1    0    0  501  502 -0.00000000000E+00 -0.00000000000E+00 -0.17926127745E+03  0.17926127745E+03  0.00000000000E+00 0.  1.
         25    1    1    2    0    0  0.60227428122E+02  0.15640649359E+01  0.90049858699E+02  0.16541996992E+03  0.12500000000E+03 0.  0.
         25    1    1    2    0    0  0.14241399273E+01  0.40922118889E+02  0.28660799842E+03  0.31535026993E+03  0.12500000000E+03 0.  0.
         25    1    1    2    0    0 -0.61651568049E+02 -0.42486183825E+02 -0.85479176540E+02  0.16893099562E+03  0.12500000000E+03 0.  0.
</event>
<event>
 5    0  0.5619558E-005  0.2807595E+03  0.7546771E-02  0.1095275E+00
         21   -1    0    0  502  501  0.00000000000E+00  0.00000000000E+00  0.18402648031E+03  0.18402648031E+03  0.00000000000E+00 0. -1.
         21   -1    0    0  501  502 -0.00000000000E+00 -0.00000000000E+00 -0.42833982869E+03  0.42833982869E+03  0.00000000000E+00 0. -1.
         25    1    1    2    0    0  0.75631413321E+02 -0.53055122800E+02 -0.90382391759E+02  0.17980248462E+03  0.12500000000E+03 0.  0.
         25    1    1    2    0    0  0.69992911368E+02  0.11777540225E+03 -0.13450572661E+03  0.22910007313E+03  0.12500000000E+03 0.  0.
         25    1    1    2    0    0 -0.14562432469E+03 -0.64720279446E+02 -0.19425230010E+02  0.20346375125E+03  0.12500000000E+03 0.  0.
</event>
<event>
 5    0  0.5619558E-005  0.2572695E+03  0.7546771E-02  0.1108795E+00
         21   -1    0    0  502  501  0.00000000000E+00  0.00000000000E+00  0.70115101472E+03  0.70115101472E+03  0.00000000000E+00 0. -1.
         21   -1    0    0  501  502 -0.00000000000E+00 -0.00000000000E+00 -0.94398503836E+02  0.94398503836E+02  0.00000000000E+00 0. -1.
         25    1    1    2    0    0  0.93202020672E+00 -0.49282386899E+02  0.12961007925E+03  0.18669063973E+03  0.12500000000E+03 0.  0.
         25    1    1    2    0    0 -0.11891338052E+03  0.38506113069E+02  0.12389887916E+03  0.21586811962E+03  0.12500000000E+03 0.  0.
         25    1    1    2    0    0  0.11798136031E+03  0.10776273830E+02  0.35324355247E+03  0.39299075920E+03  0.12500000000E+03 0.  0.
</event>
<event>
 5    0  0.5619558E-005  0.3428841E+03  0.7546771E-02  0.1065574E+00
         21   -1    0    0  502  501  0.00000000000E+00  0.00000000000E+00  0.33631252891E+03  0.33631252891E+03  0.00000000000E+00 0.  1.
         21   -1    0    0  501  502 -0.00000000000E+00 -0.00000000000E+00 -0.34958400432E+03  0.34958400432E+03  0.00000000000E+00 0.  1.
         25    1    1    2    0    0 -0.12113703887E+02  0.25646319716E+03 -0.53526022023E+02  0.29053424644E+03  0.12500000000E+03 0.  0.
         25    1    1    2    0    0  0.14353826943E+02 -0.22878251864E+03  0.53852886860E+02  0.26659446094E+03  0.12500000000E+03 0.  0.
         25    1    1    2    0    0 -0.22401230555E+01 -0.27680678520E+02 -0.13598340252E+02  0.12876782584E+03  0.12500000000E+03 0.  0.
</event>
<event>
 5    0  0.5619558E-005  0.2664410E+03  0.7546771E-02  0.1103334E+00
         21   -1    0    0  502  501  0.00000000000E+00  0.00000000000E+00  0.27788888575E+02  0.27788888575E+02  0.00000000000E+00 0. -1.
         21   -1    0    0  501  502 -0.00000000000E+00 -0.00000000000E+00 -0.25546474526E+04  0.25546474526E+04  0.00000000000E+00 0. -1.
         25    1    1    2    0    0  0.24860648227E+01  0.51423072521E+02 -0.37631366601E+03  0.39985933543E+03  0.12500000000E+03 0.  0.
         25    1    1    2    0    0  0.19904073381E+02  0.89885768231E+02 -0.13908188097E+04  0.13994561747E+04  0.12500000000E+03 0.  0.
         25    1    1    2    0    0 -0.22390138204E+02 -0.14130884075E+03 -0.75972608835E+03  0.78312083109E+03  0.12500000000E+03 0.  0.
</event>
<event>
 5    0  0.5619558E-005  0.3955805E+03  0.7546771E-02  0.1045321E+00
         21   -1    0    0  502  501  0.00000000000E+00  0.00000000000E+00  0.30562116057E+03  0.30562116057E+03  0.00000000000E+00 0. -1.
         21   -1    0    0  501  502 -0.00000000000E+00 -0.00000000000E+00 -0.51201932279E+03  0.51201932279E+03  0.00000000000E+00 0. -1.
         25    1    1    2    0    0  0.95472502886E+01 -0.21156717025E+03  0.99559722711E+02  0.26530917041E+03  0.12500000000E+03 0.  0.
         25    1    1    2    0    0 -0.85539849322E+02  0.26201447466E+03 -0.22894106069E+03  0.37948341205E+03  0.12500000000E+03 0.  0.
         25    1    1    2    0    0  0.75992599033E+02 -0.50447304405E+02 -0.77016824236E+02  0.17284790090E+03  0.12500000000E+03 0.  0.
</event>
<event>
 5    0  0.5619558E-005  0.3647001E+03  0.7546771E-02  0.1056738E+00
         21   -1    0    0  502  501  0.00000000000E+00  0.00000000000E+00  0.47155095629E+03  0.47155095629E+03  0.00000000000E+00 0. -1.
         21   -1    0    0  501  502 -0.00000000000E+00 -0.00000000000E+00 -0.28206108960E+03  0.28206108960E+03  0.00000000000E+00 0. -1.
         25    1    1    2    0    0  0.29005400497E+03  0.36048545575E+02  0.19377681536E+02  0.31848283781E+03  0.12500000000E+03 0.  0.
         25    1    1    2    0    0 -0.15602725029E+03  0.90344569168E+01  0.13944861866E+03  0.24392015392E+03  0.12500000000E+03 0.  0.
         25    1    1    2    0    0 -0.13402675468E+03 -0.45083002491E+02  0.30663566506E+02  0.19120905416E+03  0.12500000000E+03 0.  0.
</event>
<event>
 5    0  0.5619558E-005  0.4517548E+03  0.7546771E-02  0.1027200E+00
         21   -1    0    0  502  501  0.00000000000E+00  0.00000000000E+00  0.48348949746E+03  0.48348949746E+03  0.00000000000E+00 0.  1.
         21   -1    0    0  501  502 -0.00000000000E+00 -0.00000000000E+00 -0.42210314950E+03  0.42210314950E+03  0.00000000000E+00 0.  1.
         25    1    1    2    0    0 -0.32211258962E+03 -0.24786249669E+02 -0.16890654136E+03  0.38538980044E+03  0.12500000000E+03 0.  0.
         25    1    1    2    0    0  0.21936714404E+03  0.99358108723E+02  0.20540388170E+03  0.34030829004E+03  0.12500000000E+03 0.  0.
         25    1    1    2    0    0  0.10274544559E+03 -0.74571859053E+02  0.24889007626E+02  0.17989455648E+03  0.12500000000E+03 0.  0.
</event>
<event>
 5    0  0.5619558E-005  0.3942966E+03  0.7546771E-02  0.1045773E+00
         21   -1    0    0  502  501  0.00000000000E+00  0.00000000000E+00  0.19511352803E+03  0.19511352803E+03  0.00000000000E+00 0. -1.
         21   -1    0    0  501  502 -0.00000000000E+00 -0.00000000000E+00 -0.79681730058E+03  0.79681730058E+03  0.00000000000E+00 0. -1.
         25    1    1    2    0    0 -0.17682060963E+03  0.17851443270E+02 -0.65990186063E+02  0.22707687393E+03  0.12500000000E+03 0.  0.
         25    1    1    2    0    0  0.26978837097E+03 -0.15726982875E+03 -0.31472719794E+03  0.46064929531E+03  0.12500000000E+03 0.  0.
         25    1    1    2    0    0 -0.92967761343E+02  0.13941838548E+03 -0.22098638855E+03  0.30420465937E+03  0.12500000000E+03 0.  0.
</event>
<event>
 5    0  0.5619558E-005  0.3690001E+03  0.7546771E-02  0.1055076E+00
         21   -1    0    0  502  501  0.00000000000E+00  0.00000000000E+00  0.37982998251E+03  0.37982998251E+03  0.00000000000E+00 0.  1.
         21   -1    0    0  501  502 -0.00000000000E+00 -0.00000000000E+00 -0.35847907152E+03  0.35847907152E+03  0.00000000000E+00 0.  1.
         25    1    1    2    0    0  0.11795178476E+03  0.24458452450E+03 -0.10681040956E+03  0.31743924890E+03  0.12500000000E+03 0.  0.
         25    1    1    2    0    0 -0.67748391500E+02 -0.80811562562E+02  0.12983020023E+03  0.20880908526E+03  0.12500000000E+03 0.  0.
         25    1    1    2    0    0 -0.50203393260E+02 -0.16377296194E+03 -0.16688796803E+01  0.21206071988E+03  0.12500000000E+03 0.  0.
</event>
<event>
 5    0  0.5619558E-005  0.2587279E+03  0.7546771E-02  0.1107910E+00
         21   -1    0    0  502  501  0.00000000000E+00  0.00000000000E+00  0.75992067179E+03  0.75992067179E+03  0.00000000000E+00 0. -1.
         21   -1    0    0  501  502 -0.00000000000E+00 -0.00000000000E+00 -0.88088277815E+02  0.88088277815E+02  0.00000000000E+00 0. -1.
         25    1    1    2    0    0 -0.72858013665E+02  0.90082015960E+01  0.15130951867E+03  0.20954476441E+03  0.12500000000E+03 0.  0.
         25    1    1    2    0    0 -0.41208601776E+02  0.10266736847E+03  0.23009238747E+03  0.28426439133E+03  0.12500000000E+03 0.  0.
         25    1    1    2    0    0  0.11406661544E+03 -0.11167557007E+03  0.29043048784E+03  0.35419979387E+03  0.12500000000E+03 0.  0.
</event>
<event>
 5    0  0.5619558E-005  0.2183333E+03  0.7546771E-02  0.1135132E+00
         21   -1    0    0  502  501  0.00000000000E+00  0.00000000000E+00  0.69238560773E+02  0.69238560773E+02  0.00000000000E+00 0. -1.
         21   -1    0    0  501  502 -0.00000000000E+00 -0.00000000000E+00 -0.68848112206E+03  0.68848112206E+03  0.00000000000E+00 0. -1.
         25    1    1    2    0    0  0.61078172448E+02 -0.42722256545E+02 -0.32157600490E+03  0.35297572336E+03  0.12500000000E+03 0.  0.
         25    1    1    2    0    0 -0.67799281190E+02  0.71546728355E+00 -0.15528512339E+03  0.21056049955E+03  0.12500000000E+03 0.  0.
         25    1    1    2    0    0  0.67211087425E+01  0.42006789262E+02 -0.14238143299E+03  0.19418345992E+03  0.12500000000E+03 0.  0.
</event>
<event>
 5    0  0.5619558E-005  0.2957189E+03  0.7546771E-02  0.1087400E+00
         21   -1    0    0  502  501  0.00000000000E+00  0.00000000000E+00  0.17325602805E+04  0.17325602805E+04  0.00000000000E+00 0. -1.
         21   -1    0    0  501  502 -0.00000000000E+00 -0.00000000000E+00 -0.50474241669E+02  0.50474241669E+02  0.00000000000E+00 0. -1.
         25    1    1    2    0    0 -0.11456688813E+03  0.94752018328E+02  0.28497922262E+03  0.34487921677E+03  0.12500000000E+03 0.  0.
         25    1    1    2    0    0  0.11060926970E+03 -0.86068140802E+02  0.53546788960E+03  0.56744426704E+03  0.12500000000E+03 0.  0.
         25    1    1    2    0    0  0.39576184298E+01 -0.86838775261E+01  0.86163892663E+03  0.87071103838E+03  0.12500000000E+03 0.  0.
</event>
<event>
 5    0  0.5619558E-005  0.2594101E+03  0.7546771E-02  0.1107498E+00
         21   -1    0    0  502  501  0.00000000000E+00  0.00000000000E+00  0.10867342885E+03  0.10867342885E+03  0.00000000000E+00 0. -1.
         21   -1    0    0  501  502 -0.00000000000E+00 -0.00000000000E+00 -0.61922795793E+03  0.61922795793E+03  0.00000000000E+00 0. -1.
         25    1    1    2    0    0  0.14203784408E+03  0.14690434409E+02 -0.29302501698E+03  0.34911204304E+03  0.12500000000E+03 0.  0.
         25    1    1    2    0    0 -0.12270446378E+03 -0.43206895621E+02 -0.12908314933E+03  0.22183480498E+03  0.12500000000E+03 0.  0.
         25    1    1    2    0    0 -0.19333380298E+02  0.28516461212E+02 -0.88446362765E+02  0.15695453877E+03  0.12500000000E+03 0.  0.
</event>
<event>
 5    0  0.5619558E-005  0.2598062E+03  0.7546771E-02  0.1107260E+00
         21   -1    0    0  502  501  0.00000000000E+00  0.00000000000E+00  0.12029814833E+03  0.12029814833E+03  0.00000000000E+00 0. -1.
         21   -1    0    0  501  502 -0.00000000000E+00 -0.00000000000E+00 -0.56109965040E+03  0.56109965040E+03  0.00000000000E+00 0. -1.
         25    1    1    2    0    0  0.15655094349E+03 -0.57553827050E+02 -0.22114395093E+03  0.30389190175E+03  0.12500000000E+03 0.  0.
         25    1    1    2    0    0 -0.10421009405E+03  0.52842367298E+02 -0.13103217739E+03  0.21551447978E+03  0.12500000000E+03 0.  0.
         25    1    1    2    0    0 -0.52340849442E+02  0.47114597523E+01 -0.88625373746E+02  0.16199141720E+03  0.12500000000E+03 0.  0.
</event>
<event>
 5    0  0.5619558E-005  0.3946853E+03  0.7546771E-02  0.1045636E+00
         21   -1    0    0  502  501  0.00000000000E+00  0.00000000000E+00  0.26126390840E+03  0.26126390840E+03  0.00000000000E+00 0. -1.
         21   -1    0    0  501  502 -0.00000000000E+00 -0.00000000000E+00 -0.59624192600E+03  0.59624192600E+03  0.00000000000E+00 0. -1.
         25    1    1    2    0    0 -0.19816327569E+02 -0.82181397733E+02 -0.10991951897E+03  0.18669164315E+03  0.12500000000E+03 0.  0.
         25    1    1    2    0    0 -0.87987039126E+02 -0.22942806895E+03 -0.13447448150E+03  0.30673660370E+03  0.12500000000E+03 0.  0.
         25    1    1    2    0    0  0.10780336670E+03  0.31160946669E+03 -0.90584017134E+02  0.36407758755E+03  0.12500000000E+03 0.  0.
</event>
<event>
 5    0  0.5619558E-005  0.4628988E+03  0.7546771E-02  0.1023944E+00
         21   -1    0    0  502  501  0.00000000000E+00  0.00000000000E+00  0.14153313680E+03  0.14153313680E+03  0.00000000000E+00 0. -1.
         21   -1    0    0  501  502 -0.00000000000E+00 -0.00000000000E+00 -0.15139588491E+04  0.15139588491E+04  0.00000000000E+00 0. -1.
         25    1    1    2    0    0  0.30970303091E+02  0.19516498075E+03 -0.66957261036E+02  0.24322171817E+03  0.12500000000E+03 0.  0.
         25    1    1    2    0    0 -0.14895883563E+03  0.15816350166E+02 -0.22383722001E+03  0.29692927223E+03  0.12500000000E+03 0.  0.
         25    1    1    2    0    0  0.11798853254E+03 -0.21098133092E+03 -0.10816312312E+04  0.11153409954E+04  0.12500000000E+03 0.  0.
</event>
<event>
 5    0  0.5619558E-005  0.3252888E+03  0.7546771E-02  0.1073241E+00
         21   -1    0    0  502  501  0.00000000000E+00  0.00000000000E+00  0.28755263699E+04  0.28755263699E+04  0.00000000000E+00 0.  1.
         21   -1    0    0  501  502 -0.00000000000E+00 -0.00000000000E+00 -0.36797725025E+02  0.36797725025E+02  0.00000000000E+00 0.  1.
         25    1    1    2    0    0  0.18262981005E+03 -0.38320889946E+02  0.14573620384E+04  0.14745681568E+04  0.12500000000E+03 0.  0.
         25    1    1    2    0    0 -0.70266321788E+02  0.28047354879E+02  0.21908142964E+03  0.26333568483E+03  0.12500000000E+03 0.  0.
         25    1    1    2    0    0 -0.11236348826E+03  0.10273535067E+02  0.11622851769E+04  0.11744202533E+04  0.12500000000E+03 0.  0.
</event>
<event>
 5    0  0.5619558E-005  0.2527107E+03  0.7546771E-02  0.1111604E+00
         21   -1    0    0  502  501  0.00000000000E+00  0.00000000000E+00  0.22495616658E+03  0.22495616658E+03  0.00000000000E+00 0.  1.
         21   -1    0    0  501  502 -0.00000000000E+00 -0.00000000000E+00 -0.28388958297E+03  0.28388958297E+03  0.00000000000E+00 0.  1.
         25    1    1    2    0    0 -0.82226034873E+02 -0.17021501358E+02 -0.10767915993E+03  0.18512334753E+03  0.12500000000E+03 0.  0.
         25    1    1    2    0    0  0.17402606533E+02 -0.38258212477E+02  0.98365133415E+02  0.16452124789E+03  0.12500000000E+03 0.  0.
         25    1    1    2    0    0  0.64823428340E+02  0.55279713835E+02 -0.49619389870E+02  0.15920115412E+03  0.12500000000E+03 0.  0.
</event>
<event>
 5    0  0.5619558E-005  0.2642485E+03  0.7546771E-02  0.1104617E+00
         21   -1    0    0  502  501  0.00000000000E+00  0.00000000000E+00  0.91346223434E+03  0.91346223434E+03  0.00000000000E+00 0. -1.
         21   -1    0    0  501  502 -0.00000000000E+00 -0.00000000000E+00 -0.76442415651E+02  0.76442415651E+02  0.00000000000E+00 0. -1.
         25    1    1    2    0    0  0.33082315257E+01  0.65684949653E+02  0.11605733386E+03  0.18281072657E+03  0.12500000000E+03 0.  0.
         25    1    1    2    0    0 -0.92193396569E+02  0.57379169625E+02  0.35193973656E+03  0.38894545845E+03  0.12500000000E+03 0.  0.
         25    1    1    2    0    0  0.88885165044E+02 -0.12306411928E+03  0.36902274827E+03  0.41814846498E+03  0.12500000000E+03 0.  0.
</event>
<event>
 5    0  0.5619558E-005  0.4974357E+03  0.7546771E-02  0.1014450E+00
         21   -1    0    0  502  501  0.00000000000E+00  0.00000000000E+00  0.15055202166E+03  0.15055202166E+03  0.00000000000E+00 0. -1.
         21   -1    0    0  501  502 -0.00000000000E+00 -0.00000000000E+00 -0.16435664670E+04  0.16435664670E+04  0.00000000000E+00 0. -1.
         25    1    1    2    0    0 -0.20688996789E+03  0.11147419252E+03 -0.98121501596E+03  0.10166798227E+04  0.12500000000E+03 0.  0.
         25    1    1    2    0    0  0.29140876453E+02 -0.22068442990E+03 -0.56825438577E+02  0.26154337833E+03  0.12500000000E+03 0.  0.
         25    1    1    2    0    0  0.17774909144E+03  0.10921023737E+03 -0.45497399076E+03  0.51589528756E+03  0.12500000000E+03 0.  0.
</event>
<event>
 5    0  0.5619558E-005  0.3227766E+03  0.7546771E-02  0.1074378E+00
         21   -1    0    0  502  501  0.00000000000E+00  0.00000000000E+00  0.23433702980E+04  0.23433702980E+04  0.00000000000E+00 0. -1.
         21   -1    0    0  501  502 -0.00000000000E+00 -0.00000000000E+00 -0.44459367320E+02  0.44459367320E+02  0.00000000000E+00 0. -1.
         25    1    1    2    0    0 -0.10281399122E+03 -0.67545265094E+01  0.49107568148E+03  0.51710411462E+03  0.12500000000E+03 0.  0.
         25    1    1    2    0    0 -0.14920835752E+03 -0.27879974389E+02  0.68464080564E+03  0.71231907154E+03  0.12500000000E+03 0.  0.
         25    1    1    2    0    0  0.25202234874E+03  0.34634500898E+02  0.11231944435E+04  0.11584064791E+04  0.12500000000E+03 0.  0.
</event>
<event>
 5    0  0.5619558E-005  0.2417477E+03  0.7546771E-02  0.1118634E+00
         21   -1    0    0  502  501  0.00000000000E+00  0.00000000000E+00  0.53743106070E+02  0.53743106070E+02  0.00000000000E+00 0. -1.
         21   -1    0    0  501  502 -0.00000000000E+00 -0.00000000000E+00 -0.10874317707E+04  0.10874317707E+04  0.00000000000E+00 0. -1.
         25    1    1    2    0    0  0.92556850203E+00  0.57100489701E+02 -0.16879401659E+03  0.21766428884E+03  0.12500000000E+03 0.  0.
         25    1    1    2    0    0 -0.63105561635E+02  0.20332959449E+01 -0.21814902075E+03  0.25923047941E+03  0.12500000000E+03 0.  0.
         25    1    1    2    0    0  0.62179993133E+02 -0.59133785646E+02 -0.64674562730E+03  0.66428010853E+03  0.12500000000E+03 0.  0.
</event>
<event>
 5    0  0.5619558E-005  0.2628883E+03  0.7546771E-02  0.1105420E+00
         21   -1    0    0  502  501  0.00000000000E+00  0.00000000000E+00  0.28087558772E+03  0.28087558772E+03  0.00000000000E+00 0.  1.
         21   -1    0    0  501  502 -0.00000000000E+00 -0.00000000000E+00 -0.24605288350E+03  0.24605288350E+03  0.00000000000E+00 0.  1.
         25    1    1    2    0    0 -0.67268043749E+02 -0.13781644500E+02  0.49453711063E+02  0.15094897473E+03  0.12500000000E+03 0.  0.
         25    1    1    2    0    0  0.41663756386E+02  0.92539735904E+02  0.97959919950E+02  0.18846914133E+03  0.12500000000E+03 0.  0.
         25    1    1    2    0    0  0.25604287363E+02 -0.78758091404E+02 -0.11259092679E+03  0.18751035515E+03  0.12500000000E+03 0.  0.
</event>
<event>
 5    0  0.5619558E-005  0.2351435E+03  0.7546771E-02  0.1123071E+00
         21   -1    0    0  502  501  0.00000000000E+00  0.00000000000E+00  0.11672700603E+04  0.11672700603E+04  0.00000000000E+00 0. -1.
         21   -1    0    0  501  502 -0.00000000000E+00 -0.00000000000E+00 -0.47369048360E+02  0.47369048360E+02  0.00000000000E+00 0. -1.
         25    1    1    2    0    0  0.87632235714E+02 -0.44954462158E+02  0.23016697456E+03  0.27982521077E+03  0.12500000000E+03 0.  0.
         25    1    1    2    0    0 -0.54510004305E+02 -0.24000079042E+02  0.38043846538E+03  0.40485277609E+03  0.12500000000E+03 0.  0.
         25    1    1    2    0    0 -0.33122231409E+02  0.68954541200E+02  0.50929557196E+03  0.52996112176E+03  0.12500000000E+03 0.  0.
</event>
<event>
 5    0  0.5619558E-005  0.2132864E+03  0.7546771E-02  0.1138990E+00
         21   -1    0    0  502  501  0.00000000000E+00  0.00000000000E+00  0.18368216034E+03  0.18368216034E+03  0.00000000000E+00 0.  1.
         21   -1    0    0  501  502 -0.00000000000E+00 -0.00000000000E+00 -0.24766193921E+03  0.24766193921E+03  0.00000000000E+00 0.  1.
         25    1    1    2    0    0 -0.25299850536E+02 -0.61004878502E+02 -0.14163369782E+02  0.14208194355E+03  0.12500000000E+03 0.  0.
         25    1    1    2    0    0  0.27946643243E+02  0.80802880119E+01 -0.78571998353E+02  0.15048210807E+03  0.12500000000E+03 0.  0.
         25    1    1    2    0    0 -0.26467927068E+01  0.52924590490E+02  0.28755589261E+02  0.13878004793E+03  0.12500000000E+03 0.  0.
</event>
<event>
 5    0  0.5619558E-005  0.2929204E+03  0.7546771E-02  0.1088834E+00
         21   -1    0    0  502  501  0.00000000000E+00  0.00000000000E+00  0.98014516403E+02  0.98014516403E+02  0.00000000000E+00 0. -1.
         21   -1    0    0  501  502 -0.00000000000E+00 -0.00000000000E+00 -0.87540464387E+03  0.87540464387E+03  0.00000000000E+00 0. -1.
         25    1    1    2    0    0  0.64910591281E+01  0.51745710929E+02 -0.10065735834E+03  0.16875027773E+03  0.12500000000E+03 0.  0.
         25    1    1    2    0    0  0.72067324705E+01 -0.16324546337E+03 -0.15803709278E+03  0.25942579093E+03  0.12500000000E+03 0.  0.
         25    1    1    2    0    0 -0.13697791599E+02  0.11149975244E+03 -0.51869567635E+03  0.54524309162E+03  0.12500000000E+03 0.  0.
</event>
<event>
 5    0  0.5619558E-005  0.3577360E+03  0.7546771E-02  0.1059484E+00
         21   -1    0    0  502  501  0.00000000000E+00  0.00000000000E+00  0.12970234854E+03  0.12970234854E+03  0.00000000000E+00 0. -1.
         21   -1    0    0  501  502 -0.00000000000E+00 -0.00000000000E+00 -0.98668234648E+03  0.98668234648E+03  0.00000000000E+00 0. -1.
         25    1    1    2    0    0  0.24095052102E+03 -0.16004429175E+01 -0.58402878117E+03  0.64402976036E+03  0.12500000000E+03 0.  0.
         25    1    1    2    0    0 -0.16938501863E+03  0.30707803897E+02 -0.24193773259E+03  0.32216939676E+03  0.12500000000E+03 0.  0.
         25    1    1    2    0    0 -0.71565502387E+02 -0.29107360980E+02 -0.31013484189E+02  0.15018553791E+03  0.12500000000E+03 0.  0.
</event>
<event>
 5    0  0.5619558E-005  0.5728244E+03  0.7546771E-02  0.9963448E-01
         21   -1    0    0  502  501  0.00000000000E+00  0.00000000000E+00  0.45500214637E+03  0.45500214637E+03  0.00000000000E+00 0.  1.
         21   -1    0    0  501  502 -0.00000000000E+00 -0.00000000000E+00 -0.72115660607E+03  0.72115660607E+03  0.00000000000E+00 0.  1.
         25    1    1    2    0    0 -0.12934855012E+03  0.92783179592E+01 -0.28035830536E+03  0.33323102194E+03  0.12500000000E+03 0.  0.
         25    1    1    2    0    0 -0.15989706514E+02  0.80943498070E+01 -0.38206016984E+03  0.40238807461E+03  0.12500000000E+03 0.  0.
         25    1    1    2    0    0  0.14533825663E+03 -0.17372667766E+02  0.39626401550E+03  0.44053965588E+03  0.12500000000E+03 0.  0.
</event>
<event>
 5    0  0.5619558E-005  0.2964790E+03  0.7546771E-02  0.1087014E+00
         21   -1    0    0  502  501  0.00000000000E+00  0.00000000000E+00  0.23552221683E+03  0.23552221683E+03  0.00000000000E+00 0.  1.
         21   -1    0    0  501  502 -0.00000000000E+00 -0.00000000000E+00 -0.37321222184E+03  0.37321222184E+03  0.00000000000E+00 0.  1.
         25    1    1    2    0    0 -0.15215101694E+03  0.14520672160E+03 -0.80956248593E+02  0.25770882433E+03  0.12500000000E+03 0.  0.
         25    1    1    2    0    0  0.62316860598E+02 -0.76105760952E+01 -0.19560529128E+02  0.14124066795E+03  0.12500000000E+03 0.  0.
         25    1    1    2    0    0  0.89834156343E+02 -0.13759614550E+03 -0.37173227284E+02  0.20978494639E+03  0.12500000000E+03 0.  0.
</event>
<event>
 5    0  0.5619558E-005  0.3363587E+03  0.7546771E-02  0.1068357E+00
         21   -1    0    0  502  501  0.00000000000E+00  0.00000000000E+00  0.17162066166E+03  0.17162066166E+03  0.00000000000E+00 0. -1.
         21   -1    0    0  501  502 -0.00000000000E+00 -0.00000000000E+00 -0.65922821350E+03  0.65922821350E+03  0.00000000000E+00 0. -1.
         25    1    1    2    0    0 -0.17622086648E+03 -0.14288732299E+02 -0.17183995290E+03  0.27642708092E+03  0.12500000000E+03 0.  0.
         25    1    1    2    0    0  0.22495212691E+03  0.80623234643E+02 -0.91465007401E+02  0.28477080775E+03  0.12500000000E+03 0.  0.
         25    1    1    2    0    0 -0.48731260426E+02 -0.66334502343E+02 -0.22430259154E+03  0.26965098649E+03  0.12500000000E+03 0.  0.
</event>
<event>
 5    0  0.5619558E-005  0.2019117E+03  0.7546771E-02  0.1148136E+00
         21   -1    0    0  502  501  0.00000000000E+00  0.00000000000E+00  0.44371745863E+02  0.44371745863E+02  0.00000000000E+00 0.  1.
         21   -1    0    0  501  502 -0.00000000000E+00 -0.00000000000E+00 -0.91879013085E+03  0.91879013085E+03  0.00000000000E+00 0.  1.
         25    1    1    2    0    0 -0.47294932599E+02  0.31910929710E+02 -0.23823995345E+03  0.27502435075E+03  0.12500000000E+03 0.  0.
         25    1    1    2    0    0 -0.26040834486E+01 -0.79484153685E+01 -0.28702607066E+03  0.31317554789E+03  0.12500000000E+03 0.  0.
         25    1    1    2    0    0  0.49899016048E+02 -0.23962514341E+02 -0.34915236087E+03  0.37496197807E+03  0.12500000000E+03 0.  0.
</event>
<event>
 5    0  0.5619558E-005  0.2993229E+03  0.7546771E-02  0.1085580E+00
         21   -1    0    0  502  501  0.00000000000E+00  0.00000000000E+00  0.11014876670E+03  0.11014876670E+03  0.00000000000E+00 0. -1.
         21   -1    0    0  501  502 -0.00000000000E+00 -0.00000000000E+00 -0.81339250057E+03  0.81339250057E+03  0.00000000000E+00 0. -1.
         25    1    1    2    0    0 -0.16912056095E+03  0.24948483065E+02 -0.24884205727E+03  0.32675917801E+03  0.12500000000E+03 0.  0.
         25    1    1    2    0    0  0.58850210182E+02  0.83776677463E+02 -0.31430512344E+03  0.35340428626E+03  0.12500000000E+03 0.  0.
         25    1    1    2    0    0  0.11027035077E+03 -0.10872516053E+03 -0.14009655316E+03  0.24337780301E+03  0.12500000000E+03 0.  0.
</event>
<event>
 5    0  0.5619558E-005  0.3118340E+03  0.7546771E-02  0.1079470E+00
         21   -1    0    0  502  501  0.00000000000E+00  0.00000000000E+00  0.18569449002E+03  0.18569449002E+03  0.00000000000E+00 0. -1.
         21   -1    0    0  501  502 -0.00000000000E+00 -0.00000000000E+00 -0.52365820076E+03  0.52365820076E+03  0.00000000000E+00 0. -1.
         25    1    1    2    0    0  0.18854219166E+03 -0.21459003801E+02 -0.51947532628E+02  0.23309267047E+03  0.12500000000E+03 0.  0.
         25    1    1    2    0    0 -0.21216516140E+03  0.39742027861E+02 -0.16046906045E+03  0.29659535372E+03  0.12500000000E+03 0.  0.
         25    1    1    2    0    0  0.23622969733E+02 -0.18283024060E+02 -0.12554711766E+03  0.17966466659E+03  0.12500000000E+03 0.  0.
</event>
<event>
 5    0  0.5619558E-005  0.2939270E+03  0.7546771E-02  0.1088316E+00
         21   -1    0    0  502  501  0.00000000000E+00  0.00000000000E+00  0.10518815477E+03  0.10518815477E+03  0.00000000000E+00 0. -1.
         21   -1    0    0  501  502 -0.00000000000E+00 -0.00000000000E+00 -0.82131959199E+03  0.82131959199E+03  0.00000000000E+00 0. -1.
         25    1    1    2    0    0 -0.63331884595E+02 -0.56351887271E+02 -0.45551078034E+01  0.15110331503E+03  0.12500000000E+03 0.  0.
         25    1    1    2    0    0 -0.13034743418E+02 -0.40770244806E+02 -0.29171608207E+03  0.32024270474E+03  0.12500000000E+03 0.  0.
         25    1    1    2    0    0  0.76366628013E+02  0.97122132078E+02 -0.41986024735E+03  0.45516172699E+03  0.12500000000E+03 0.  0.
</event>
<event>
 5    0  0.5619558E-005  0.3328109E+03  0.7546771E-02  0.1069900E+00
         21   -1    0    0  502  501  0.00000000000E+00  0.00000000000E+00  0.18515224511E+03  0.18515224511E+03  0.00000000000E+00 0. -1.
         21   -1    0    0  501  502 -0.00000000000E+00 -0.00000000000E+00 -0.59822699506E+03  0.59822699506E+03  0.00000000000E+00 0. -1.
         25    1    1    2    0    0  0.20456509156E+03  0.14928492115E+03 -0.19678095169E+03  0.34421012088E+03  0.12500000000E+03 0.  0.
         25    1    1    2    0    0 -0.11371244793E+03 -0.71061929438E+02 -0.18994301998E+03  0.26397664569E+03  0.12500000000E+03 0.  0.
         25    1    1    2    0    0 -0.90852643638E+02 -0.78222991713E+02 -0.26350778281E+02  0.17519247360E+03  0.12500000000E+03 0.  0.
</event>
<event>
 5    0  0.5619558E-005  0.2579589E+03  0.7546771E-02  0.1108376E+00
         21   -1    0    0  502  501  0.00000000000E+00  0.00000000000E+00  0.11765013915E+04  0.11765013915E+04  0.00000000000E+00 0.  1.
         21   -1    0    0  501  502 -0.00000000000E+00 -0.00000000000E+00 -0.56559906605E+02  0.56559906605E+02  0.00000000000E+00 0.  1.
         25    1    1    2    0    0  0.67896708642E+02  0.67312076160E+02  0.32400865600E+03  0.36020478593E+03  0.12500000000E+03 0.  0.
         25    1    1    2    0    0  0.22138810634E+02  0.75456794971E+02  0.35314194067E+03  0.38277680847E+03  0.12500000000E+03 0.  0.
         25    1    1    2    0    0 -0.90035519276E+02 -0.14276887113E+03  0.44279088828E+03  0.49007970376E+03  0.12500000000E+03 0.  0.
</event>
<event>
 5    0  0.5619558E-005  0.3178974E+03  0.7546771E-02  0.1076621E+00
         21   -1    0    0  502  501  0.00000000000E+00  0.00000000000E+00  0.15282939555E+03  0.15282939555E+03  0.00000000000E+00 0. -1.
         21   -1    0    0  501  502 -0.00000000000E+00 -0.00000000000E+00 -0.66125228479E+03  0.66125228479E+03  0.00000000000E+00 0. -1.
         25    1    1    2    0    0 -0.80856531676E+02  0.34427886090E+02 -0.48768297016E+03  0.51106040488E+03  0.12500000000E+03 0.  0.
         25    1    1    2    0    0  0.53489173320E+02 -0.82282039505E+02  0.20683750399E+02  0.16026304383E+03  0.12500000000E+03 0.  0.
         25    1    1    2    0    0  0.27367358356E+02  0.47854153415E+02 -0.41423669482E+02  0.14275823162E+03  0.12500000000E+03 0.  0.
</event>
<event>
 5    0  0.5619558E-005  0.3577901E+03  0.7546771E-02  0.1059462E+00
         21   -1    0    0  502  501  0.00000000000E+00  0.00000000000E+00  0.18842099695E+03  0.18842099695E+03  0.00000000000E+00 0.  1.
         21   -1    0    0  501  502 -0.00000000000E+00 -0.00000000000E+00 -0.67940289649E+03  0.67940289649E+03  0.00000000000E+00 0.  1.
         25    1    1    2    0    0 -0.41161921928E+02 -0.62960096427E+02 -0.19724369953E+03  0.24533315015E+03  0.12500000000E+03 0.  0.
         25    1    1    2    0    0 -0.11489785617E+03 -0.15891891209E+03 -0.20734561493E+03  0.31156691417E+03  0.12500000000E+03 0.  0.
         25    1    1    2    0    0  0.15605977810E+03  0.22187900852E+03 -0.86392585074E+02  0.31092382912E+03  0.12500000000E+03 0.  0.
</event>
<event>
 5    0  0.5619558E-005  0.3379053E+03  0.7546771E-02  0.1067692E+00
         21   -1    0    0  502  501  0.00000000000E+00  0.00000000000E+00  0.28628054006E+03  0.28628054006E+03  0.00000000000E+00 0.  1.
         21   -1    0    0  501  502 -0.00000000000E+00 -0.00000000000E+00 -0.39883962206E+03  0.39883962206E+03  0.00000000000E+00 0.  1.
         25    1    1    2    0    0  0.16548926431E+03 -0.28017998308E+02  0.45198779820E+02  0.21410192556E+03  0.12500000000E+03 0.  0.
         25    1    1    2    0    0  0.85814675275E+02 -0.31403000099E+02 -0.33787343270E+02  0.15848309523E+03  0.12500000000E+03 0.  0.
         25    1    1    2    0    0 -0.25130393958E+03  0.59420998406E+02 -0.12397051855E+03  0.31253514134E+03  0.12500000000E+03 0.  0.
</event>
<event>
 5    0  0.5619558E-005  0.3053406E+03  0.7546771E-02  0.1082601E+00
         21   -1    0    0  502  501  0.00000000000E+00  0.00000000000E+00  0.11119313332E+03  0.11119313332E+03  0.00000000000E+00 0. -1.
         21   -1    0    0  501  502 -0.00000000000E+00 -0.00000000000E+00 -0.83847713443E+03  0.83847713443E+03  0.00000000000E+00 0. -1.
         25    1    1    2    0    0 -0.23376834078E+02 -0.34588062294E+02 -0.29293843323E+03  0.32121758372E+03  0.12500000000E+03 0.  0.
         25    1    1    2    0    0 -0.41695051056E+02  0.26346346465E+02  0.34566315810E+02  0.13875315291E+03  0.12500000000E+03 0.  0.
         25    1    1    2    0    0  0.65071885135E+02  0.82417158290E+01 -0.46891188369E+03  0.48969953112E+03  0.12500000000E+03 0.  0.
</event>
<event>
 5    0  0.5619558E-005  0.3785258E+03  0.7546771E-02  0.1051480E+00
         21   -1    0    0  502  501  0.00000000000E+00  0.00000000000E+00  0.60029726129E+03  0.60029726129E+03  0.00000000000E+00 0. -1.
         21   -1    0    0  501  502 -0.00000000000E+00 -0.00000000000E+00 -0.23868475899E+03  0.23868475899E+03  0.00000000000E+00 0. -1.
         25    1    1    2    0    0 -0.14361291456E+03  0.69429242425E+02  0.20897212412E+03  0.29110039091E+03  0.12500000000E+03 0.  0.
         25    1    1    2    0    0  0.19486437540E+02 -0.12516481272E+03 -0.12279315830E+03  0.21621542802E+03  0.12500000000E+03 0.  0.
         25    1    1    2    0    0  0.12412647702E+03  0.55735570293E+02  0.27543353648E+03  0.33166620134E+03  0.12500000000E+03 0.  0.
</event>
<event>
 5    0  0.5619558E-005  0.3362610E+03  0.7546771E-02  0.1068400E+00
         21   -1    0    0  502  501  0.00000000000E+00  0.00000000000E+00  0.14235312638E+04  0.14235312638E+04  0.00000000000E+00 0.  1.
         21   -1    0    0  501  502 -0.00000000000E+00 -0.00000000000E+00 -0.79430241662E+02  0.79430241662E+02  0.00000000000E+00 0.  1.
         25    1    1    2    0    0 -0.13849961960E+03 -0.29512834521E+02  0.58717738790E+03  0.61681069777E+03  0.12500000000E+03 0.  0.
         25    1    1    2    0    0  0.23264159314E+03  0.58177771214E+02  0.61939685965E+03  0.67585814612E+03  0.12500000000E+03 0.  0.
         25    1    1    2    0    0 -0.94141973546E+02 -0.28664936692E+02  0.13752677456E+03  0.21029266155E+03  0.12500000000E+03 0.  0.
</event>
<event>
 5    0  0.5619558E-005  0.2771809E+03  0.7546771E-02  0.1097239E+00
         21   -1    0    0  502  501  0.00000000000E+00  0.00000000000E+00  0.15782359536E+04  0.15782359536E+04  0.00000000000E+00 0. -1.
         21   -1    0    0  501  502 -0.00000000000E+00 -0.00000000000E+00 -0.48680469055E+02  0.48680469055E+02  0.00000000000E+00 0. -1.
         25    1    1    2    0    0 -0.39976364282E+02 -0.77138558906E+02  0.17246238911E+03  0.23003639414E+03  0.12500000000E+03 0.  0.
         25    1    1    2    0    0 -0.79915816136E+02  0.42479195540E+02  0.61999189121E+03  0.63890998184E+03  0.12500000000E+03 0.  0.
         25    1    1    2    0    0  0.11989218042E+03  0.34659363366E+02  0.73710120425E+03  0.75797004670E+03  0.12500000000E+03 0.  0.
</event>
<event>
 5    0  0.5619558E-005  0.2703221E+03  0.7546771E-02  0.1101095E+00
         21   -1    0    0  502  501  0.00000000000E+00  0.00000000000E+00  0.98625536530E+03  0.98625536530E+03  0.00000000000E+00 0. -1.
         21   -1    0    0  501  502 -0.00000000000E+00 -0.00000000000E+00 -0.74092437757E+02  0.74092437757E+02  0.00000000000E+00 0. -1.
         25    1    1    2    0    0 -0.12957966432E+02  0.13773229233E+02  0.12041562061E+03  0.17459247528E+03  0.12500000000E+03 0.  0.
         25    1    1    2    0    0  0.38347306252E+02 -0.74067619439E+02  0.70344174212E+03  0.71931343148E+03  0.12500000000E+03 0.  0.
         25    1    1    2    0    0 -0.25389339820E+02  0.60294390206E+02  0.88305564808E+02  0.16644189630E+03  0.12500000000E+03 0.  0.
</event>
<event>
 5    0  0.5619558E-005  0.3777279E+03  0.7546771E-02  0.1051777E+00
         21   -1    0    0  502  501  0.00000000000E+00  0.00000000000E+00  0.80502582460E+02  0.80502582460E+02  0.00000000000E+00 0.  1.
         21   -1    0    0  501  502 -0.00000000000E+00 -0.00000000000E+00 -0.17723453746E+04  0.17723453746E+04  0.00000000000E+00 0.  1.
         25    1    1    2    0    0  0.81391076911E+01  0.90212936913E+01 -0.59003624611E+02  0.13875898721E+03  0.12500000000E+03 0.  0.
         25    1    1    2    0    0  0.14773153735E+03  0.77659461240E+02 -0.31104864418E+03  0.37447544391E+03  0.12500000000E+03 0.  0.
         25    1    1    2    0    0 -0.15587064504E+03 -0.86680754931E+02 -0.13217905233E+04  0.13396135259E+04  0.12500000000E+03 0.  0.
</event>
<event>
 5    0  0.5619558E-005  0.5793008E+03  0.7546771E-02  0.9949306E-01
         21   -1    0    0  502  501  0.00000000000E+00  0.00000000000E+00  0.49620807398E+03  0.49620807398E+03  0.00000000000E+00 0.  1.
         21   -1    0    0  501  502 -0.00000000000E+00 -0.00000000000E+00 -0.67630791778E+03  0.67630791778E+03  0.00000000000E+00 0.  1.
         25    1    1    2    0    0  0.24768537041E+03  0.38329282842E+03  0.53103392950E+02  0.47613696073E+03  0.12500000000E+03 0.  0.
         25    1    1    2    0    0 -0.20907111402E+03 -0.41631200962E+03 -0.27486901641E+03  0.55516159472E+03  0.12500000000E+03 0.  0.
         25    1    1    2    0    0 -0.38614256390E+02  0.33019181209E+02  0.41665779655E+02  0.14121743631E+03  0.12500000000E+03 0.  0.
</event>
<event>
 5    0  0.5619558E-005  0.4851754E+03  0.7546771E-02  0.1017722E+00
         21   -1    0    0  502  501  0.00000000000E+00  0.00000000000E+00  0.20302257229E+04  0.20302257229E+04  0.00000000000E+00 0.  1.
         21   -1    0    0  501  502 -0.00000000000E+00 -0.00000000000E+00 -0.11594529935E+03  0.11594529935E+03  0.00000000000E+00 0.  1.
         25    1    1    2    0    0 -0.80897915652E+02  0.31645232244E+03  0.10720262199E+04  0.11276310395E+04  0.12500000000E+03 0.  0.
         25    1    1    2    0    0  0.10411618081E+03 -0.27150120892E+03  0.82370237485E+03  0.88241922457E+03  0.12500000000E+03 0.  0.
         25    1    1    2    0    0 -0.23218265163E+02 -0.44951113524E+02  0.18551828763E+02  0.13612075813E+03  0.12500000000E+03 0.  0.
</event>
<event>
 5    0  0.5619558E-005  0.5409504E+03  0.7546771E-02  0.1003611E+00
         21   -1    0    0  502  501  0.00000000000E+00  0.00000000000E+00  0.15025515769E+04  0.15025515769E+04  0.00000000000E+00 0. -1.
         21   -1    0    0  501  502 -0.00000000000E+00 -0.00000000000E+00 -0.19475359998E+03  0.19475359998E+03  0.00000000000E+00 0. -1.
         25    1    1    2    0    0 -0.48643869009E+02  0.55479780202E+02  0.36830665547E+03  0.39587753721E+03  0.12500000000E+03 0.  0.
         25    1    1    2    0    0 -0.31019394966E+03  0.23335823535E+03  0.31430065295E+03  0.51486527641E+03  0.12500000000E+03 0.  0.
         25    1    1    2    0    0  0.35883781867E+03 -0.28883801555E+03  0.62519066854E+03  0.78656236331E+03  0.12500000000E+03 0.  0.
</event>
<event>
 5    0  0.6495169E-005  0.3159617E+03  0.7546771E-02  0.1077523E+00
         21   -1    0    0  502  501  0.00000000000E+00  0.00000000000E+00  0.54963610305E+03  0.54963610305E+03  0.00000000000E+00 0.  1.
         21   -1    0    0  501  502 -0.00000000000E+00 -0.00000000000E+00 -0.18163248020E+03  0.18163248020E+03  0.00000000000E+00 0.  1.
         25    1    1    2    0    0  0.75665384091E+02  0.85524119088E+02  0.11087566696E+03  0.20238092504E+03  0.12500000000E+03 0.  0.
         25    1    1    2    0    0 -0.16639127250E+03 -0.52225960081E+01 -0.11823178503E+02  0.20851407296E+03  0.12500000000E+03 0.  0.
         25    1    1    2    0    0  0.90725888405E+02 -0.80301523080E+02  0.26895113439E+03  0.32037358525E+03  0.12500000000E+03 0.  0.
</event>
<event>
 5    0  0.7387966E-005  0.4911094E+03  0.7546771E-02  0.1016126E+00
         21   -1    0    0  502  501  0.00000000000E+00  0.00000000000E+00  0.48923828010E+03  0.48923828010E+03  0.00000000000E+00 0.  1.
         21   -1    0    0  501  502 -0.00000000000E+00 -0.00000000000E+00 -0.49298759978E+03  0.49298759978E+03  0.00000000000E+00 0.  1.
         25    1    1    2    0    0  0.61364995158E+02 -0.24472413963E+03  0.20893349976E+02  0.28234216692E+03  0.12500000000E+03 0.  0.
         25    1    1    2    0    0 -0.19756119407E+03  0.39348453825E+02 -0.24910295810E+03  0.34388371575E+03  0.12500000000E+03 0.  0.
         25    1    1    2    0    0  0.13619619892E+03  0.20537568581E+03  0.22446028844E+03  0.35599999720E+03  0.12500000000E+03 0.  0.
</event>
<event>
 5    0  0.5619558E-005  0.2392890E+03  0.7546771E-02  0.1120267E+00
         21   -1    0    0  502  501  0.00000000000E+00  0.00000000000E+00  0.20332682029E+04  0.20332682029E+04  0.00000000000E+00 0.  1.
         21   -1    0    0  501  502 -0.00000000000E+00 -0.00000000000E+00 -0.28161180244E+02  0.28161180244E+02  0.00000000000E+00 0.  1.
         25    1    1    2    0    0 -0.58025573629E+02  0.82559089652E+02  0.73852304812E+03  0.75579379667E+03  0.12500000000E+03 0.  0.
         25    1    1    2    0    0  0.84117420597E+02 -0.57802500423E+02  0.43555787690E+03  0.46449169383E+03  0.12500000000E+03 0.  0.
         25    1    1    2    0    0 -0.26091846968E+02 -0.24756589229E+02  0.83102609761E+03  0.84114389262E+03  0.12500000000E+03 0.  0.
</event>
<event>
 5    0  0.5619558E-005  0.2310130E+03  0.7546771E-02  0.1125929E+00
         21   -1    0    0  502  501  0.00000000000E+00  0.00000000000E+00  0.26969587245E+03  0.26969587245E+03  0.00000000000E+00 0.  1.
         21   -1    0    0  501  502 -0.00000000000E+00 -0.00000000000E+00 -0.19787853692E+03  0.19787853692E+03  0.00000000000E+00 0.  1.
         25    1    1    2    0    0  0.18581107610E+02 -0.98810675375E+02  0.10328719618E+03  0.19079321797E+03  0.12500000000E+03 0.  0.
         25    1    1    2    0    0  0.16803787133E+02  0.57707356749E+02 -0.13908007109E+02  0.13939490287E+03  0.12500000000E+03 0.  0.
         25    1    1    2    0    0 -0.35384894743E+02  0.41103318626E+02 -0.17561853535E+02  0.13738628854E+03  0.12500000000E+03 0.  0.
</event>
<event>
 5    0  0.5619558E-005  0.5969163E+03  0.7546771E-02  0.9911824E-01
         21   -1    0    0  502  501  0.00000000000E+00  0.00000000000E+00  0.27223455295E+03  0.27223455295E+03  0.00000000000E+00 0. -1.
         21   -1    0    0  501  502 -0.00000000000E+00 -0.00000000000E+00 -0.13088313855E+04  0.13088313855E+04  0.00000000000E+00 0. -1.
         25    1    1    2    0    0  0.94422884047E+02 -0.13865241788E+03 -0.10720416023E+04  0.10922629588E+04  0.12500000000E+03 0.  0.
         25    1    1    2    0    0  0.13553848300E+03  0.21737236126E+02 -0.45065917444E+02  0.19104744103E+03  0.12500000000E+03 0.  0.
         25    1    1    2    0    0 -0.22996136704E+03  0.11691518175E+03  0.80510687191E+02  0.29775553867E+03  0.12500000000E+03 0.  0.
</event>
<event>
 5    0  0.5619558E-005  0.3386720E+03  0.7546771E-02  0.1067363E+00
         21   -1    0    0  502  501  0.00000000000E+00  0.00000000000E+00  0.17545311564E+03  0.17545311564E+03  0.00000000000E+00 0.  1.
         21   -1    0    0  501  502 -0.00000000000E+00 -0.00000000000E+00 -0.65372843397E+03  0.65372843397E+03  0.00000000000E+00 0.  1.
         25    1    1    2    0    0 -0.10819482133E+03 -0.60044006359E+02 -0.35419126350E+01  0.17592312869E+03  0.12500000000E+03 0.  0.
         25    1    1    2    0    0  0.16198821936E+03 -0.10838591391E+03 -0.22747615813E+03  0.32458911267E+03  0.12500000000E+03 0.  0.
         25    1    1    2    0    0 -0.53793398032E+02  0.16842992027E+03 -0.24725724757E+03  0.32866930826E+03  0.12500000000E+03 0.  0.
</event>
<event>
 5    0  0.5619558E-005  0.3168523E+03  0.7546771E-02  0.1077107E+00
         21   -1    0    0  502  501  0.00000000000E+00  0.00000000000E+00  0.26541820879E+03  0.26541820879E+03  0.00000000000E+00 0.  1.
         21   -1    0    0  501  502 -0.00000000000E+00 -0.00000000000E+00 -0.37825344844E+03  0.37825344844E+03  0.00000000000E+00 0.  1.
         25    1    1    2    0    0  0.69192917024E+02 -0.12791932656E+03  0.79508956145E+02  0.20759982655E+03  0.12500000000E+03 0.  0.
         25    1    1    2    0    0 -0.44577912557E+02 -0.37914307048E+02 -0.17967468044E+03  0.22656715507E+03  0.12500000000E+03 0.  0.
         25    1    1    2    0    0 -0.24615004468E+02  0.16583363361E+03 -0.12669515361E+02  0.20950467561E+03  0.12500000000E+03 0.  0.
</event>
<event>
 5    0  0.5619558E-005  0.4282425E+03  0.7546771E-02  0.1034417E+00
         21   -1    0    0  502  501  0.00000000000E+00  0.00000000000E+00  0.29733028929E+03  0.29733028929E+03  0.00000000000E+00 0.  1.
         21   -1    0    0  501  502 -0.00000000000E+00 -0.00000000000E+00 -0.61679433572E+03  0.61679433572E+03  0.00000000000E+00 0.  1.
         25    1    1    2    0    0 -0.13264865561E+03  0.17589528890E+02  0.25104528652E+01  0.18312935247E+03  0.12500000000E+03 0.  0.
         25    1    1    2    0    0  0.81860522623E+02  0.60364009316E+02 -0.48164537091E+03  0.50788997047E+03  0.12500000000E+03 0.  0.
         25    1    1    2    0    0  0.50788132990E+02 -0.77953538206E+02  0.15967087162E+03  0.22310530208E+03  0.12500000000E+03 0.  0.
</event>
<event>
 5    0  0.5619558E-005  0.2497689E+03  0.7546771E-02  0.1113451E+00
         21   -1    0    0  502  501  0.00000000000E+00  0.00000000000E+00  0.14661470179E+03  0.14661470179E+03  0.00000000000E+00 0.  1.
         21   -1    0    0  501  502 -0.00000000000E+00 -0.00000000000E+00 -0.42549954652E+03  0.42549954652E+03  0.00000000000E+00 0.  1.
         25    1    1    2    0    0  0.76180585690E+02 -0.55358209160E+02 -0.12412799940E+02  0.15699391886E+03  0.12500000000E+03 0.  0.
         25    1    1    2    0    0 -0.51840137788E+02  0.11484328701E+03 -0.15704584447E+03  0.23699109208E+03  0.12500000000E+03 0.  0.
         25    1    1    2    0    0 -0.24340447903E+02 -0.59485077850E+02 -0.10942620032E+03  0.17812923737E+03  0.12500000000E+03 0.  0.
</event>
<event>
 5    0  0.5855343E-005  0.3337763E+03  0.7546771E-02  0.1069478E+00
         21   -1    0    0  502  501  0.00000000000E+00  0.00000000000E+00  0.12518404396E+03  0.12518404396E+03  0.00000000000E+00 0.  1.
         21   -1    0    0  501  502 -0.00000000000E+00 -0.00000000000E+00 -0.88994274366E+03  0.88994274366E+03  0.00000000000E+00 0.  1.
         25    1    1    2    0    0  0.21045150169E+03  0.90205953663E+02 -0.33239217070E+03  0.42253580178E+03  0.12500000000E+03 0.  0.
         25    1    1    2    0    0 -0.15114588320E+03 -0.86515627838E+02 -0.39469101064E+03  0.44915033758E+03  0.12500000000E+03 0.  0.
         25    1    1    2    0    0 -0.59305618492E+02 -0.36903258246E+01 -0.37675518351E+02  0.14344064826E+03  0.12500000000E+03 0.  0.
</event>
<event>
 5    0  0.5619558E-005  0.3246612E+03  0.7546771E-02  0.1073524E+00
         21   -1    0    0  502  501  0.00000000000E+00  0.00000000000E+00  0.29455682505E+03  0.29455682505E+03  0.00000000000E+00 0.  1.
         21   -1    0    0  501  502 -0.00000000000E+00 -0.00000000000E+00 -0.35784240624E+03  0.35784240624E+03  0.00000000000E+00 0.  1.
         25    1    1    2    0    0 -0.47303958356E+02  0.14098552206E+03  0.91321534950E+02  0.21466067328E+03  0.12500000000E+03 0.  0.
         25    1    1    2    0    0  0.44335937760E+02 -0.65108247735E+01 -0.20776591143E+03  0.24657603324E+03  0.12500000000E+03 0.  0.
         25    1    1    2    0    0  0.29680205961E+01 -0.13447469729E+03  0.53158795291E+02  0.19116252476E+03  0.12500000000E+03 0.  0.
</event>
<event>
 5    0  0.5619558E-005  0.6012577E+03  0.7546771E-02  0.9902800E-01
         21   -1    0    0  502  501  0.00000000000E+00  0.00000000000E+00  0.25592863904E+03  0.25592863904E+03  0.00000000000E+00 0.  1.
         21   -1    0    0  501  502 -0.00000000000E+00 -0.00000000000E+00 -0.14125454373E+04  0.14125454373E+04  0.00000000000E+00 0.  1.
         25    1    1    2    0    0 -0.22871618622E+02  0.11712458569E+03 -0.69090131079E+03  0.71218740565E+03  0.12500000000E+03 0.  0.
         25    1    1    2    0    0  0.17136912638E+03  0.22201463854E+03 -0.47478482359E+03  0.56542329799E+03  0.12500000000E+03 0.  0.
         25    1    1    2    0    0 -0.14849750776E+03 -0.33913922424E+03  0.90693361499E+01  0.39086337266E+03  0.12500000000E+03 0.  0.
</event>
<event>
 5    0  0.5619558E-005  0.2771987E+03  0.7546771E-02  0.1097229E+00
         21   -1    0    0  502  501  0.00000000000E+00  0.00000000000E+00  0.34650081254E+02  0.34650081254E+02  0.00000000000E+00 0. -1.
         21   -1    0    0  501  502 -0.00000000000E+00 -0.00000000000E+00 -0.22175739525E+04  0.22175739525E+04  0.00000000000E+00 0. -1.
         25    1    1    2    0    0  0.28220340051E+02  0.32547138677E+02 -0.52921067220E+03  0.54547652506E+03  0.12500000000E+03 0.  0.
         25    1    1    2    0    0 -0.14885831514E+03  0.27552884025E+02 -0.12198800484E+04  0.12355769065E+04  0.12500000000E+03 0.  0.
         25    1    1    2    0    0  0.12063797509E+03 -0.60100022703E+02 -0.43383315065E+03  0.47117060219E+03  0.12500000000E+03 0.  0.
</event>
<event>
 5    0  0.5619558E-005  0.2461631E+03  0.7546771E-02  0.1115754E+00
         21   -1    0    0  502  501  0.00000000000E+00  0.00000000000E+00  0.34191310701E+03  0.34191310701E+03  0.00000000000E+00 0. -1.
         21   -1    0    0  501  502 -0.00000000000E+00 -0.00000000000E+00 -0.17722708776E+03  0.17722708776E+03  0.00000000000E+00 0. -1.
         25    1    1    2    0    0 -0.95313083997E+02 -0.31744239512E+02  0.12662692731E+03  0.20433222810E+03  0.12500000000E+03 0.  0.
         25    1    1    2    0    0 -0.29645079893E+02 -0.13521051286E+02  0.27364775897E+02  0.13204347977E+03  0.12500000000E+03 0.  0.
         25    1    1    2    0    0  0.12495816389E+03  0.45265290798E+02  0.10694316054E+02  0.18276448689E+03  0.12500000000E+03 0.  0.
</event>
<event>
 5    0  0.5871719E-005  0.2932405E+03  0.7546771E-02  0.1088669E+00
         21   -1    0    0  502  501  0.00000000000E+00  0.00000000000E+00  0.24474301288E+03  0.24474301288E+03  0.00000000000E+00 0.  1.
         21   -1    0    0  501  502 -0.00000000000E+00 -0.00000000000E+00 -0.35134798681E+03  0.35134798681E+03  0.00000000000E+00 0.  1.
         25    1    1    2    0    0  0.19431528067E+02  0.14290811640E+03  0.73639970912E+02  0.20456822659E+03  0.12500000000E+03 0.  0.
         25    1    1    2    0    0 -0.27789477419E+02 -0.11876677715E+03 -0.49583240330E+01  0.17472088423E+03  0.12500000000E+03 0.  0.
         25    1    1    2    0    0  0.83579493529E+01 -0.24141339254E+02 -0.17528662081E+03  0.21680188886E+03  0.12500000000E+03 0.  0.
</event>
<event>
 5    0  0.5619558E-005  0.2737643E+03  0.7546771E-02  0.1099144E+00
         21   -1    0    0  502  501  0.00000000000E+00  0.00000000000E+00  0.36484644513E+03  0.36484644513E+03  0.00000000000E+00 0.  1.
         21   -1    0    0  501  502 -0.00000000000E+00 -0.00000000000E+00 -0.20542040244E+03  0.20542040244E+03  0.00000000000E+00 0.  1.
         25    1    1    2    0    0  0.14803651299E+03 -0.59970135387E+02 -0.67585021627E+01  0.20293324929E+03  0.12500000000E+03 0.  0.
         25    1    1    2    0    0 -0.61951520059E+02  0.68047803081E+02  0.20090928919E+02  0.15651562148E+03  0.12500000000E+03 0.  0.
         25    1    1    2    0    0 -0.86084992936E+02 -0.80776676936E+01  0.14609361594E+03  0.21081797680E+03  0.12500000000E+03 0.  0.
</event>
<event>
 5    0  0.5619558E-005  0.2482417E+03  0.7546771E-02  0.1114421E+00
         21   -1    0    0  502  501  0.00000000000E+00  0.00000000000E+00  0.82377132954E+03  0.82377132954E+03  0.00000000000E+00 0.  1.
         21   -1    0    0  501  502 -0.00000000000E+00 -0.00000000000E+00 -0.74807067204E+02  0.74807067204E+02  0.00000000000E+00 0.  1.
         25    1    1    2    0    0 -0.45303959797E+02  0.33680830901E+02  0.16412090780E+03  0.21388669786E+03  0.12500000000E+03 0.  0.
         25    1    1    2    0    0  0.14155090330E+03 -0.33166785643E+02  0.25479305675E+03  0.31887489030E+03  0.12500000000E+03 0.  0.
         25    1    1    2    0    0 -0.96246943503E+02 -0.51404525773E+00  0.33005029779E+03  0.36581680859E+03  0.12500000000E+03 0.  0.
</event>
<event>
 5    0  0.5619558E-005  0.4442242E+03  0.7546771E-02  0.1029459E+00
         21   -1    0    0  502  501  0.00000000000E+00  0.00000000000E+00  0.65326959524E+03  0.65326959524E+03  0.00000000000E+00 0. -1.
         21   -1    0    0  501  502 -0.00000000000E+00 -0.00000000000E+00 -0.30207299847E+03  0.30207299847E+03  0.00000000000E+00 0. -1.
         25    1    1    2    0    0  0.57922890770E+02 -0.26959564114E+03  0.31904063873E+03  0.43982814843E+03  0.12500000000E+03 0.  0.
         25    1    1    2    0    0 -0.11553337252E+03  0.15157193843E+03  0.17282481735E+03  0.28603396682E+03  0.12500000000E+03 0.  0.
         25    1    1    2    0    0  0.57610481751E+02  0.11802370271E+03 -0.14066885931E+03  0.22948047845E+03  0.12500000000E+03 0.  0.
</event>
<event>
 5    0  0.5619558E-005  0.3220672E+03  0.7546771E-02  0.1074702E+00
         21   -1    0    0  502  501  0.00000000000E+00  0.00000000000E+00  0.34060192289E+03  0.34060192289E+03  0.00000000000E+00 0.  1.
         21   -1    0    0  501  502 -0.00000000000E+00 -0.00000000000E+00 -0.30454109877E+03  0.30454109877E+03  0.00000000000E+00 0.  1.
         25    1    1    2    0    0  0.77238339047E+02 -0.12662151639E+03  0.12171555164E+03  0.22899442120E+03  0.12500000000E+03 0.  0.
         25    1    1    2    0    0 -0.25897050134E+02  0.26548857008E+02 -0.18082547553E+03  0.22293127106E+03  0.12500000000E+03 0.  0.
         25    1    1    2    0    0 -0.51341288913E+02  0.10007265938E+03  0.95170748013E+02  0.19321732940E+03  0.12500000000E+03 0.  0.
</event>
<event>
 5    0  0.5619558E-005  0.2300696E+03  0.7546771E-02  0.1126591E+00
         21   -1    0    0  502  501  0.00000000000E+00  0.00000000000E+00  0.17306608851E+04  0.17306608851E+04  0.00000000000E+00 0.  1.
         21   -1    0    0  501  502 -0.00000000000E+00 -0.00000000000E+00 -0.30584866580E+02  0.30584866580E+02  0.00000000000E+00 0.  1.
         25    1    1    2    0    0 -0.23907765692E+02 -0.59103969490E+02  0.33946839297E+03  0.36732635394E+03  0.12500000000E+03 0.  0.
         25    1    1    2    0    0  0.56973660065E+02  0.96521598515E+02  0.79143640051E+03  0.80904820189E+03  0.12500000000E+03 0.  0.
         25    1    1    2    0    0 -0.33065894373E+02 -0.37417629024E+02  0.56917122505E+03  0.58487119587E+03  0.12500000000E+03 0.  0.
</event>
<event>
 5    0  0.5619558E-005  0.2908607E+03  0.7546771E-02  0.1089901E+00
         21   -1    0    0  502  501  0.00000000000E+00  0.00000000000E+00  0.41067525887E+03  0.41067525887E+03  0.00000000000E+00 0.  1.
         21   -1    0    0  501  502 -0.00000000000E+00 -0.00000000000E+00 -0.20600203141E+03  0.20600203141E+03  0.00000000000E+00 0.  1.
         25    1    1    2    0    0  0.80957838502E+02 -0.15340990573E+03  0.21332993938E+03  0.30203217350E+03  0.12500000000E+03 0.  0.
         25    1    1    2    0    0 -0.11840218219E+02  0.54493101270E+02 -0.28379444835E+02  0.13978584243E+03  0.12500000000E+03 0.  0.
         25    1    1    2    0    0 -0.69117620283E+02  0.98916804456E+02  0.19722732910E+02  0.17485927436E+03  0.12500000000E+03 0.  0.
</event>
<event>
 5    0  0.5619558E-005  0.2501306E+03  0.7546771E-02  0.1113222E+00
         21   -1    0    0  502  501  0.00000000000E+00  0.00000000000E+00  0.37236703311E+02  0.37236703311E+02  0.00000000000E+00 0. -1.
         21   -1    0    0  501  502 -0.00000000000E+00 -0.00000000000E+00 -0.16802052745E+04  0.16802052745E+04  0.00000000000E+00 0. -1.
         25    1    1    2    0    0  0.44359741118E+01  0.59625900621E+02 -0.16438137219E+03  0.21499107287E+03  0.12500000000E+03 0.  0.
         25    1    1    2    0    0 -0.11540836294E+02 -0.35065027081E+02 -0.93795456230E+03  0.94696700469E+03  0.12500000000E+03 0.  0.
         25    1    1    2    0    0  0.71048621820E+01 -0.24560873540E+02 -0.54063263666E+03  0.55548390021E+03  0.12500000000E+03 0.  0.
</event>
<event>
 5    0  0.5619558E-005  0.3058355E+03  0.7546771E-02  0.1082359E+00
         21   -1    0    0  502  501  0.00000000000E+00  0.00000000000E+00  0.50133619443E+03  0.50133619443E+03  0.00000000000E+00 0. -1.
         21   -1    0    0  501  502 -0.00000000000E+00 -0.00000000000E+00 -0.18657210124E+03  0.18657210124E+03  0.00000000000E+00 0. -1.
         25    1    1    2    0    0 -0.46417384382E+02  0.56202297627E+02 -0.11107337262E+02  0.14512630627E+03  0.12500000000E+03 0.  0.
         25    1    1    2    0    0  0.19407681375E+03 -0.18958519606E+02  0.13309869559E+03  0.26714321603E+03  0.12500000000E+03 0.  0.
         25    1    1    2    0    0 -0.14765942937E+03 -0.37243778020E+02  0.19277273486E+03  0.27563877338E+03  0.12500000000E+03 0.  0.
</event>
<event>
 5    0  0.5619558E-005  0.3075186E+03  0.7546771E-02  0.1081541E+00
         21   -1    0    0  502  501  0.00000000000E+00  0.00000000000E+00  0.44392710649E+02  0.44392710649E+02  0.00000000000E+00 0. -1.
         21   -1    0    0  501  502 -0.00000000000E+00 -0.00000000000E+00 -0.21302527957E+04  0.21302527957E+04  0.00000000000E+00 0. -1.
         25    1    1    2    0    0 -0.53187143123E+02 -0.19896113055E+03 -0.10357282468E+04  0.10633778279E+04  0.12500000000E+03 0.  0.
         25    1    1    2    0    0  0.20500412316E+02  0.16862522209E+03 -0.80885568257E+03  0.83589906547E+03  0.12500000000E+03 0.  0.
         25    1    1    2    0    0  0.32686730808E+02  0.30335908463E+02 -0.24127615572E+03  0.27536861301E+03  0.12500000000E+03 0.  0.
</event>
<event>
 5    0  0.5619558E-005  0.4554405E+03  0.7546771E-02  0.1026112E+00
         21   -1    0    0  502  501  0.00000000000E+00  0.00000000000E+00  0.51314162876E+03  0.51314162876E+03  0.00000000000E+00 0. -1.
         21   -1    0    0  501  502 -0.00000000000E+00 -0.00000000000E+00 -0.40422768394E+03  0.40422768394E+03  0.00000000000E+00 0. -1.
         25    1    1    2    0    0  0.15117509474E+03  0.71261822315E+02  0.17668859196E+03  0.27345203440E+03  0.12500000000E+03 0.  0.
         25    1    1    2    0    0 -0.32645662761E+03  0.45992579113E+02 -0.15304171175E+03  0.38436442679E+03  0.12500000000E+03 0.  0.
         25    1    1    2    0    0  0.17528153287E+03 -0.11725440143E+03  0.85267064613E+02  0.25955285151E+03  0.12500000000E+03 0.  0.
</event>
<event>
 5    0  0.5619558E-005  0.4644145E+03  0.7546771E-02  0.1023509E+00
         21   -1    0    0  502  501  0.00000000000E+00  0.00000000000E+00  0.62922339556E+03  0.62922339556E+03  0.00000000000E+00 0.  1.
         21   -1    0    0  501  502 -0.00000000000E+00 -0.00000000000E+00 -0.34277299913E+03  0.34277299913E+03  0.00000000000E+00 0.  1.
         25    1    1    2    0    0 -0.29545678454E+03  0.10979731011E+03  0.23942243249E+02  0.33992409719E+03  0.12500000000E+03 0.  0.
         25    1    1    2    0    0 -0.71290710059E+02  0.34787660180E+02  0.11943221354E+02  0.14852672210E+03  0.12500000000E+03 0.  0.
         25    1    1    2    0    0  0.36674749460E+03 -0.14458497029E+03  0.25056493183E+03  0.48354557540E+03  0.12500000000E+03 0.  0.
</event>
<event>
 5    0  0.5619558E-005  0.4123484E+03  0.7546771E-02  0.1039586E+00
         21   -1    0    0  502  501  0.00000000000E+00  0.00000000000E+00  0.31772992474E+03  0.31772992474E+03  0.00000000000E+00 0.  1.
         21   -1    0    0  501  502 -0.00000000000E+00 -0.00000000000E+00 -0.53514369480E+03  0.53514369480E+03  0.00000000000E+00 0.  1.
         25    1    1    2    0    0 -0.81674615838E+02 -0.19403842751E+03 -0.73116914386E+02  0.25552443600E+03  0.12500000000E+03 0.  0.
         25    1    1    2    0    0  0.18721088762E+03 -0.74200108197E+02 -0.15461299694E+03  0.28299072657E+03  0.12500000000E+03 0.  0.
         25    1    1    2    0    0 -0.10553627178E+03  0.26823853571E+03  0.10316141268E+02  0.31435845698E+03  0.12500000000E+03 0.  0.
</event>
<event>
 5    0  0.5619558E-005  0.2392617E+03  0.7546771E-02  0.1120286E+00
         21   -1    0    0  502  501  0.00000000000E+00  0.00000000000E+00  0.12025272057E+03  0.12025272057E+03  0.00000000000E+00 0. -1.
         21   -1    0    0  501  502 -0.00000000000E+00 -0.00000000000E+00 -0.47604877366E+03  0.47604877366E+03  0.00000000000E+00 0. -1.
         25    1    1    2    0    0  0.35138982271E+02  0.66163071440E+02 -0.12331812400E+03  0.19090484490E+03  0.12500000000E+03 0.  0.
         25    1    1    2    0    0  0.73448262995E+02  0.91044928395E+01 -0.68909627764E+02  0.16078269784E+03  0.12500000000E+03 0.  0.
         25    1    1    2    0    0 -0.10858724527E+03 -0.75267564279E+02 -0.16356830132E+03  0.24461395149E+03  0.12500000000E+03 0.  0.
</event>
<event>
 5    0  0.5619558E-005  0.3491933E+03  0.7546771E-02  0.1062947E+00
         21   -1    0    0  502  501  0.00000000000E+00  0.00000000000E+00  0.46473104628E+03  0.46473104628E+03  0.00000000000E+00 0.  1.
         21   -1    0    0  501  502 -0.00000000000E+00 -0.00000000000E+00 -0.26237966493E+03  0.26237966493E+03  0.00000000000E+00 0.  1.
         25    1    1    2    0    0 -0.69648663352E+02  0.11360220800E+03 -0.66691393158E+02  0.19449714623E+03  0.12500000000E+03 0.  0.
         25    1    1    2    0    0 -0.53139149059E+02 -0.12036933281E+03  0.30377213300E+03  0.35385739251E+03  0.12500000000E+03 0.  0.
         25    1    1    2    0    0  0.12278781241E+03  0.67671248113E+01 -0.34729358503E+02  0.17875617247E+03  0.12500000000E+03 0.  0.
</event>
<event>
 5    0  0.5619558E-005  0.3787305E+03  0.7546771E-02  0.1051404E+00
         21   -1    0    0  502  501  0.00000000000E+00  0.00000000000E+00  0.11662502518E+03  0.11662502518E+03  0.00000000000E+00 0. -1.
         21   -1    0    0  501  502 -0.00000000000E+00 -0.00000000000E+00 -0.12298974822E+04  0.12298974822E+04  0.00000000000E+00 0. -1.
         25    1    1    2    0    0  0.64369084923E+02 -0.28845998742E+03 -0.59748143718E+03  0.67820469713E+03  0.12500000000E+03 0.  0.
         25    1    1    2    0    0 -0.46036961300E+02  0.32675373484E+02 -0.13435498444E+03  0.19199829083E+03  0.12500000000E+03 0.  0.
         25    1    1    2    0    0 -0.18332123623E+02  0.25578461393E+03 -0.38143603539E+03  0.47631951941E+03  0.12500000000E+03 0.  0.
</event>
<event>
 5    0  0.5619558E-005  0.3214317E+03  0.7546771E-02  0.1074992E+00
         21   -1    0    0  502  501  0.00000000000E+00  0.00000000000E+00  0.16733425171E+03  0.16733425171E+03  0.00000000000E+00 0. -1.
         21   -1    0    0  501  502 -0.00000000000E+00 -0.00000000000E+00 -0.61743687702E+03  0.61743687702E+03  0.00000000000E+00 0. -1.
         25    1    1    2    0    0 -0.74639575219E+02 -0.67791910445E+02 -0.80142952554E+02  0.17948454573E+03  0.12500000000E+03 0.  0.
         25    1    1    2    0    0  0.10903128318E+03  0.21422615307E+03 -0.14535134149E+03  0.30746166890E+03  0.12500000000E+03 0.  0.
         25    1    1    2    0    0 -0.34391707960E+02 -0.14643424263E+03 -0.22460833127E+03  0.29782491411E+03  0.12500000000E+03 0.  0.
</event>
<event>
 5    0  0.5619558E-005  0.2912360E+03  0.7546771E-02  0.1089706E+00
         21   -1    0    0  502  501  0.00000000000E+00  0.00000000000E+00  0.49291845771E+02  0.49291845771E+02  0.00000000000E+00 0. -1.
         21   -1    0    0  501  502 -0.00000000000E+00 -0.00000000000E+00 -0.17207396772E+04  0.17207396772E+04  0.00000000000E+00 0. -1.
         25    1    1    2    0    0  0.11969420470E+02 -0.49237031771E+02 -0.15703445146E+03  0.20700814300E+03  0.12500000000E+03 0.  0.
         25    1    1    2    0    0 -0.77797900302E+02 -0.84177470447E+02 -0.44750957263E+03  0.47856888472E+03  0.12500000000E+03 0.  0.
         25    1    1    2    0    0  0.65828479831E+02  0.13341450222E+03 -0.10669038073E+04  0.10844544952E+04  0.12500000000E+03 0.  0.
</event>
<event>
 5    0  0.5619558E-005  0.3667738E+03  0.7546771E-02  0.1055933E+00
         21   -1    0    0  502  501  0.00000000000E+00  0.00000000000E+00  0.67207443366E+02  0.67207443366E+02  0.00000000000E+00 0.  1.
         21   -1    0    0  501  502 -0.00000000000E+00 -0.00000000000E+00 -0.20016087838E+04  0.20016087838E+04  0.00000000000E+00 0.  1.
         25    1    1    2    0    0  0.75203242142E+02  0.25108854008E+03 -0.11064733289E+04  0.11439445835E+04  0.12500000000E+03 0.  0.
         25    1    1    2    0    0 -0.13257185404E+03 -0.16833136744E+03 -0.56101513919E+03  0.61341155202E+03  0.12500000000E+03 0.  0.
         25    1    1    2    0    0  0.57368611898E+02 -0.82757172645E+02 -0.26691287232E+03  0.31146009161E+03  0.12500000000E+03 0.  0.
</event>
<event>
 5    0  0.5619558E-005  0.2085257E+03  0.7546771E-02  0.1142739E+00
         21   -1    0    0  502  501  0.00000000000E+00  0.00000000000E+00  0.60315905081E+02  0.60315905081E+02  0.00000000000E+00 0. -1.
         21   -1    0    0  501  502 -0.00000000000E+00 -0.00000000000E+00 -0.72092038096E+03  0.72092038096E+03  0.00000000000E+00 0. -1.
         25    1    1    2    0    0 -0.77228223526E+01  0.52425780164E+01 -0.14492164110E+03  0.19161004323E+03  0.12500000000E+03 0.  0.
         25    1    1    2    0    0 -0.16998988856E+01  0.58643599646E+02 -0.32086575416E+03  0.34931618003E+03  0.12500000000E+03 0.  0.
         25    1    1    2    0    0  0.94227212383E+01 -0.63886177663E+02 -0.19481708061E+03  0.24031006277E+03  0.12500000000E+03 0.  0.
</event>
<event>
 5    0  0.5619558E-005  0.2885379E+03  0.7546771E-02  0.1091115E+00
         21   -1    0    0  502  501  0.00000000000E+00  0.00000000000E+00  0.20408290921E+03  0.20408290921E+03  0.00000000000E+00 0.  1.
         21   -1    0    0  501  502 -0.00000000000E+00 -0.00000000000E+00 -0.40794259314E+03  0.40794259314E+03  0.00000000000E+00 0.  1.
         25    1    1    2    0    0 -0.98241418715E+02 -0.10439034475E+03 -0.86949200832E+02  0.20912647836E+03  0.12500000000E+03 0.  0.
         25    1    1    2    0    0  0.15464662282E+03  0.14037869503E+03 -0.82437843491E+02  0.25698784797E+03  0.12500000000E+03 0.  0.
         25    1    1    2    0    0 -0.56405204101E+02 -0.35988350280E+02 -0.34472639609E+02  0.14591117602E+03  0.12500000000E+03 0.  0.
</event>
<event>
 5    0  0.5619558E-005  0.4486112E+03  0.7546771E-02  0.1028137E+00
         21   -1    0    0  502  501  0.00000000000E+00  0.00000000000E+00  0.84457422331E+03  0.84457422331E+03  0.00000000000E+00 0. -1.
         21   -1    0    0  501  502 -0.00000000000E+00 -0.00000000000E+00 -0.23828814092E+03  0.23828814092E+03  0.00000000000E+00 0. -1.
         25    1    1    2    0    0 -0.72258177792E+02  0.16929627223E+03 -0.72844341270E+02  0.23412340785E+03  0.12500000000E+03 0.  0.
         25    1    1    2    0    0  0.20392864724E+03 -0.11024861634E+03  0.57223119451E+03  0.62993268731E+03  0.12500000000E+03 0.  0.
         25    1    1    2    0    0 -0.13167046945E+03 -0.59047655889E+02  0.10689922915E+03  0.21880626907E+03  0.12500000000E+03 0.  0.
</event>
<event>
 5    0  0.5619558E-005  0.3040042E+03  0.7546771E-02  0.1083256E+00
         21   -1    0    0  502  501  0.00000000000E+00  0.00000000000E+00  0.95578705606E+02  0.95578705606E+02  0.00000000000E+00 0.  1.
         21   -1    0    0  501  502 -0.00000000000E+00 -0.00000000000E+00 -0.96693690827E+03  0.96693690827E+03  0.00000000000E+00 0.  1.
         25    1    1    2    0    0 -0.80135448893E+02 -0.24718095756E+02 -0.15318313798E+03  0.21476207344E+03  0.12500000000E+03 0.  0.
         25    1    1    2    0    0  0.12603442592E+02 -0.14951358257E+03 -0.48976342009E+03  0.52726308973E+03  0.12500000000E+03 0.  0.
         25    1    1    2    0    0  0.67532006301E+02  0.17423167832E+03 -0.22841164460E+03  0.32049045071E+03  0.12500000000E+03 0.  0.
</event>
<event>
 5    0  0.5619558E-005  0.2908001E+03  0.7546771E-02  0.1089932E+00
         21   -1    0    0  502  501  0.00000000000E+00  0.00000000000E+00  0.89218745319E+02  0.89218745319E+02  0.00000000000E+00 0.  1.
         21   -1    0    0  501  502 -0.00000000000E+00 -0.00000000000E+00 -0.94783549438E+03  0.94783549438E+03  0.00000000000E+00 0.  1.
         25    1    1    2    0    0 -0.44761574571E+02  0.55924029866E+02 -0.22213875844E+03  0.26476730099E+03  0.12500000000E+03 0.  0.
         25    1    1    2    0    0  0.19825843488E+03 -0.27108827344E+02 -0.37532165124E+03  0.44332001693E+03  0.12500000000E+03 0.  0.
         25    1    1    2    0    0 -0.15349686031E+03 -0.28815202522E+02 -0.26115633938E+03  0.32896692177E+03  0.12500000000E+03 0.  0.
</event>
<event>
 5    0  0.5619558E-005  0.4095969E+03  0.7546771E-02  0.1040506E+00
         21   -1    0    0  502  501  0.00000000000E+00  0.00000000000E+00  0.46582808374E+02  0.46582808374E+02  0.00000000000E+00 0. -1.
         21   -1    0    0  501  502 -0.00000000000E+00 -0.00000000000E+00 -0.36015345502E+04  0.36015345502E+04  0.00000000000E+00 0. -1.
         25    1    1    2    0    0  0.23395211786E+02  0.12316043090E+03 -0.16940834663E+04  0.17033084331E+04  0.12500000000E+03 0.  0.
         25    1    1    2    0    0 -0.10675777977E+03 -0.17356474802E+02 -0.16760506975E+04  0.16841821194E+04  0.12500000000E+03 0.  0.
         25    1    1    2    0    0  0.83362567979E+02 -0.10580395610E+03 -0.18481757807E+03  0.26062680604E+03  0.12500000000E+03 0.  0.
</event>
<event>
 5    0  0.5619558E-005  0.3209459E+03  0.7546771E-02  0.1075215E+00
         21   -1    0    0  502  501  0.00000000000E+00  0.00000000000E+00  0.79300603901E+03  0.79300603901E+03  0.00000000000E+00 0.  1.
         21   -1    0    0  501  502 -0.00000000000E+00 -0.00000000000E+00 -0.12989338861E+03  0.12989338861E+03  0.00000000000E+00 0.  1.
         25    1    1    2    0    0 -0.70623776355E+02  0.18423793231E+03  0.14861016898E+03  0.27684168005E+03  0.12500000000E+03 0.  0.
         25    1    1    2    0    0  0.19459982897E+02 -0.15671085856E+03  0.45173523366E+03  0.49459751865E+03  0.12500000000E+03 0.  0.
         25    1    1    2    0    0  0.51163793458E+02 -0.27527073751E+02  0.62767247756E+02  0.15146022891E+03  0.12500000000E+03 0.  0.
</event>
<event>
 5    0  0.5619558E-005  0.4075028E+03  0.7546771E-02  0.1041212E+00
         21   -1    0    0  502  501  0.00000000000E+00  0.00000000000E+00  0.10099505677E+04  0.10099505677E+04  0.00000000000E+00 0. -1.
         21   -1    0    0  501  502 -0.00000000000E+00 -0.00000000000E+00 -0.16442246988E+03  0.16442246988E+03  0.00000000000E+00 0. -1.
         25    1    1    2    0    0 -0.17330790883E+03  0.30519741487E+01  0.85876855634E+02  0.23031452438E+03  0.12500000000E+03 0.  0.
         25    1    1    2    0    0  0.24102155411E+03 -0.11373175997E+03  0.19938367751E+03  0.35553502447E+03  0.12500000000E+03 0.  0.
         25    1    1    2    0    0 -0.67713645285E+02  0.11067978582E+03  0.56026756464E+03  0.58852348869E+03  0.12500000000E+03 0.  0.
</event>
<event>
 5    0  0.5619558E-005  0.2535856E+03  0.7546771E-02  0.1111060E+00
         21   -1    0    0  502  501  0.00000000000E+00  0.00000000000E+00  0.93698408446E+02  0.93698408446E+02  0.00000000000E+00 0.  1.
         21   -1    0    0  501  502 -0.00000000000E+00 -0.00000000000E+00 -0.68630492992E+03  0.68630492992E+03  0.00000000000E+00 0.  1.
         25    1    1    2    0    0 -0.12047747000E+03  0.10404243183E+03 -0.18662792461E+03  0.27530824659E+03  0.12500000000E+03 0.  0.
         25    1    1    2    0    0  0.55203568402E+02 -0.74861795813E+02 -0.20831385225E+03  0.26013723969E+03  0.12500000000E+03 0.  0.
         25    1    1    2    0    0  0.65273901597E+02 -0.29180636022E+02 -0.19766474462E+03  0.24455785208E+03  0.12500000000E+03 0.  0.
</event>
<event>
 5    0  0.5619558E-005  0.2152362E+03  0.7546771E-02  0.1137485E+00
         21   -1    0    0  502  501  0.00000000000E+00  0.00000000000E+00  0.12166293295E+03  0.12166293295E+03  0.00000000000E+00 0.  1.
         21   -1    0    0  501  502 -0.00000000000E+00 -0.00000000000E+00 -0.38077859749E+03  0.38077859749E+03  0.00000000000E+00 0.  1.
         25    1    1    2    0    0 -0.52108344892E+02 -0.16813203991E+02 -0.17384447889E+03  0.22100874706E+03  0.12500000000E+03 0.  0.
         25    1    1    2    0    0  0.55247363069E+02 -0.19038169495E+02 -0.48462615281E+02  0.14624755760E+03  0.12500000000E+03 0.  0.
         25    1    1    2    0    0 -0.31390181774E+01  0.35851373486E+02 -0.36808570360E+02  0.13518522578E+03  0.12500000000E+03 0.  0.
</event>
<event>
 5    0  0.5619558E-005  0.2203060E+03  0.7546771E-02  0.1133655E+00
         21   -1    0    0  502  501  0.00000000000E+00  0.00000000000E+00  0.32941426226E+03  0.32941426226E+03  0.00000000000E+00 0.  1.
         21   -1    0    0  501  502 -0.00000000000E+00 -0.00000000000E+00 -0.14733642831E+03  0.14733642831E+03  0.00000000000E+00 0.  1.
         25    1    1    2    0    0  0.34071052436E+01 -0.34219957484E+02  0.76994981852E+02  0.15078408764E+03  0.12500000000E+03 0.  0.
         25    1    1    2    0    0 -0.44102333587E+02  0.77784208237E+02  0.26491658805E+01  0.15371212366E+03  0.12500000000E+03 0.  0.
         25    1    1    2    0    0  0.40695228344E+02 -0.43564250753E+02  0.10243368622E+03  0.17225447926E+03  0.12500000000E+03 0.  0.
</event>
<event>
 5    0  0.5619558E-005  0.2790544E+03  0.7546771E-02  0.1096207E+00
         21   -1    0    0  502  501  0.00000000000E+00  0.00000000000E+00  0.56946854206E+03  0.56946854206E+03  0.00000000000E+00 0. -1.
         21   -1    0    0  501  502 -0.00000000000E+00 -0.00000000000E+00 -0.13674394037E+03  0.13674394037E+03  0.00000000000E+00 0. -1.
         25    1    1    2    0    0  0.15113643620E+02  0.92589352571E+02  0.38934709192E+02  0.16106558296E+03  0.12500000000E+03 0.  0.
         25    1    1    2    0    0 -0.46361216858E+02  0.84065407609E+02  0.18167324917E+03  0.24051304465E+03  0.12500000000E+03 0.  0.
         25    1    1    2    0    0  0.31247573237E+02 -0.17665476018E+03  0.21211664333E+03  0.30463385482E+03  0.12500000000E+03 0.  0.
</event>
<event>
 5    0  0.5619558E-005  0.3595037E+03  0.7546771E-02  0.1058781E+00
         21   -1    0    0  502  501  0.00000000000E+00  0.00000000000E+00  0.30431182774E+03  0.30431182774E+03  0.00000000000E+00 0.  1.
         21   -1    0    0  501  502 -0.00000000000E+00 -0.00000000000E+00 -0.42470544740E+03  0.42470544740E+03  0.00000000000E+00 0.  1.
         25    1    1    2    0    0 -0.14991444366E+03  0.21732052056E+01 -0.12009692917E+03  0.22918842823E+03  0.12500000000E+03 0.  0.
         25    1    1    2    0    0  0.38320449812E+02  0.43702408033E+02 -0.19504989434E+03  0.23884685182E+03  0.12500000000E+03 0.  0.
         25    1    1    2    0    0  0.11159399385E+03 -0.45875613239E+02  0.19475320385E+03  0.26098199509E+03  0.12500000000E+03 0.  0.
</event>
<event>
 5    0  0.5619558E-005  0.3686548E+03  0.7546771E-02  0.1055209E+00
         21   -1    0    0  502  501  0.00000000000E+00  0.00000000000E+00  0.42897245238E+03  0.42897245238E+03  0.00000000000E+00 0. -1.
         21   -1    0    0  501  502 -0.00000000000E+00 -0.00000000000E+00 -0.31681836235E+03  0.31681836235E+03  0.00000000000E+00 0. -1.
         25    1    1    2    0    0 -0.10934440454E+03  0.92953591839E+02 -0.30651629038E+02  0.19277212299E+03  0.12500000000E+03 0.  0.
         25    1    1    2    0    0  0.17423749602E+03 -0.24474287178E+03  0.65045653106E+02  0.33183386701E+03  0.12500000000E+03 0.  0.
         25    1    1    2    0    0 -0.64893091480E+02  0.15178927994E+03  0.77760065959E+02  0.22118482472E+03  0.12500000000E+03 0.  0.
</event>
<event>
 5    0  0.5619558E-005  0.2349956E+03  0.7546771E-02  0.1123172E+00
         21   -1    0    0  502  501  0.00000000000E+00  0.00000000000E+00  0.76800230662E+02  0.76800230662E+02  0.00000000000E+00 0. -1.
         21   -1    0    0  501  502 -0.00000000000E+00 -0.00000000000E+00 -0.71904646067E+03  0.71904646067E+03  0.00000000000E+00 0. -1.
         25    1    1    2    0    0  0.52840995166E+02 -0.49144489542E+02 -0.98164214015E+02  0.17455246929E+03  0.12500000000E+03 0.  0.
         25    1    1    2    0    0  0.23356084774E+00  0.69978520395E+02 -0.16734510591E+03  0.22028715882E+03  0.12500000000E+03 0.  0.
         25    1    1    2    0    0 -0.53074556013E+02 -0.20834030852E+02 -0.37673691008E+03  0.40100706322E+03  0.12500000000E+03 0.  0.
</event>
<event>
 5    0  0.5619558E-005  0.2564695E+03  0.7546771E-02  0.1109283E+00
         21   -1    0    0  502  501  0.00000000000E+00  0.00000000000E+00  0.55679147509E+03  0.55679147509E+03  0.00000000000E+00 0.  1.
         21   -1    0    0  501  502 -0.00000000000E+00 -0.00000000000E+00 -0.11813510812E+03  0.11813510812E+03  0.00000000000E+00 0.  1.
         25    1    1    2    0    0  0.43262898789E+02 -0.93681470807E+02  0.23017279026E+03  0.28151804518E+03  0.12500000000E+03 0.  0.
         25    1    1    2    0    0  0.58509934030E+01 -0.25695935275E+02  0.16474719094E+03  0.20847338472E+03  0.12500000000E+03 0.  0.
         25    1    1    2    0    0 -0.49113892192E+02  0.11937740608E+03  0.43736385771E+02  0.18493515331E+03  0.12500000000E+03 0.  0.
</event>
<event>
 5    0  0.5619558E-005  0.2069695E+03  0.7546771E-02  0.1143989E+00
         21   -1    0    0  502  501  0.00000000000E+00  0.00000000000E+00  0.10468512142E+04  0.10468512142E+04  0.00000000000E+00 0.  1.
         21   -1    0    0  501  502 -0.00000000000E+00 -0.00000000000E+00 -0.40919242607E+02  0.40919242607E+02  0.00000000000E+00 0.  1.
         25    1    1    2    0    0 -0.74527406466E+01  0.25059452364E+02  0.34509229035E+03  0.36796359651E+03  0.12500000000E+03 0.  0.
         25    1    1    2    0    0 -0.44388455611E+02  0.63057173497E+01  0.43352468279E+03  0.45340792633E+03  0.12500000000E+03 0.  0.
         25    1    1    2    0    0  0.51841196257E+02 -0.31365169714E+02  0.22731499843E+03  0.26639893395E+03  0.12500000000E+03 0.  0.
</event>
<event>
 5    0  0.5619558E-005  0.2898560E+03  0.7546771E-02  0.1090424E+00
         21   -1    0    0  502  501  0.00000000000E+00  0.00000000000E+00  0.51240720919E+02  0.51240720919E+02  0.00000000000E+00 0.  1.
         21   -1    0    0  501  502 -0.00000000000E+00 -0.00000000000E+00 -0.16396433951E+04  0.16396433951E+04  0.00000000000E+00 0.  1.
         25    1    1    2    0    0  0.36902356973E+02  0.27140169491E+02 -0.49266128688E+03  0.51033177085E+03  0.12500000000E+03 0.  0.
         25    1    1    2    0    0 -0.46578785399E+02  0.11032518451E+03 -0.19480383015E+03  0.26060460823E+03  0.12500000000E+03 0.  0.
         25    1    1    2    0    0  0.96764284266E+01 -0.13746535401E+03 -0.90093755712E+03  0.91994773691E+03  0.12500000000E+03 0.  0.
</event>
<event>
 5    0  0.5619558E-005  0.3613255E+03  0.7546771E-02  0.1058060E+00
         21   -1    0    0  502  501  0.00000000000E+00  0.00000000000E+00  0.21343218212E+03  0.21343218212E+03  0.00000000000E+00 0.  1.
         21   -1    0    0  501  502 -0.00000000000E+00 -0.00000000000E+00 -0.61169846252E+03  0.61169846252E+03  0.00000000000E+00 0.  1.
         25    1    1    2    0    0  0.87360103930E+02 -0.91369569348E+02 -0.30028232844E+03  0.34896226549E+03  0.12500000000E+03 0.  0.
         25    1    1    2    0    0 -0.45386070726E+01  0.22658764342E+03 -0.19547270213E+02  0.25955665061E+03  0.12500000000E+03 0.  0.
         25    1    1    2    0    0 -0.82821496857E+02 -0.13521807407E+03 -0.78436681747E+02  0.21661172854E+03  0.12500000000E+03 0.  0.
</event>
<event>
 5    0  0.5799328E-005  0.3223815E+03  0.7546771E-02  0.1074558E+00
         21   -1    0    0  502  501  0.00000000000E+00  0.00000000000E+00  0.50432585155E+03  0.50432585155E+03  0.00000000000E+00 0. -1.
         21   -1    0    0  501  502 -0.00000000000E+00 -0.00000000000E+00 -0.20607669339E+03  0.20607669339E+03  0.00000000000E+00 0. -1.
         25    1    1    2    0    0 -0.39247635805E+02  0.14195334055E+03  0.89390691751E+02  0.21285399593E+03  0.12500000000E+03 0.  0.
         25    1    1    2    0    0  0.63858100362E+02  0.13311792174E+02 -0.67174186971E+02  0.15618076766E+03  0.12500000000E+03 0.  0.
         25    1    1    2    0    0 -0.24610464557E+02 -0.15526513273E+03  0.27603265339E+03  0.34136778135E+03  0.12500000000E+03 0.  0.
</event>
<event>
 5    0  0.5619558E-005  0.2541958E+03  0.7546771E-02  0.1110682E+00
         21   -1    0    0  502  501  0.00000000000E+00  0.00000000000E+00  0.15109498027E+03  0.15109498027E+03  0.00000000000E+00 0. -1.
         21   -1    0    0  501  502 -0.00000000000E+00 -0.00000000000E+00 -0.42764818407E+03  0.42764818407E+03  0.00000000000E+00 0. -1.
         25    1    1    2    0    0  0.46369201749E+02  0.79172599004E+02 -0.36232169950E+01  0.15510167957E+03  0.12500000000E+03 0.  0.
         25    1    1    2    0    0 -0.94519873646E+02 -0.72605966477E+02 -0.84289914086E+02  0.19218590609E+03  0.12500000000E+03 0.  0.
         25    1    1    2    0    0  0.48150671896E+02 -0.65666325270E+01 -0.18864007272E+03  0.23145557868E+03  0.12500000000E+03 0.  0.
</event>
<event>
 5    0  0.5619558E-005  0.2771535E+03  0.7546771E-02  0.1097254E+00
         21   -1    0    0  502  501  0.00000000000E+00  0.00000000000E+00  0.70882929131E+02  0.70882929131E+02  0.00000000000E+00 0.  1.
         21   -1    0    0  501  502 -0.00000000000E+00 -0.00000000000E+00 -0.10836754267E+04  0.10836754267E+04  0.00000000000E+00 0.  1.
         25    1    1    2    0    0  0.48000062258E+02 -0.13151744620E+02 -0.27248620723E+03  0.30389259203E+03  0.12500000000E+03 0.  0.
         25    1    1    2    0    0  0.47032172820E+02 -0.11296207150E+03 -0.53584187182E+03  0.56367008655E+03  0.12500000000E+03 0.  0.
         25    1    1    2    0    0 -0.95032235078E+02  0.12611381612E+03 -0.20446441853E+03  0.28699567726E+03  0.12500000000E+03 0.  0.
</event>
<event>
 5    0  0.5619558E-005  0.4235074E+03  0.7546771E-02  0.1035931E+00
         21   -1    0    0  502  501  0.00000000000E+00  0.00000000000E+00  0.19714084192E+03  0.19714084192E+03  0.00000000000E+00 0. -1.
         21   -1    0    0  501  502 -0.00000000000E+00 -0.00000000000E+00 -0.90979893938E+03  0.90979893938E+03  0.00000000000E+00 0. -1.
         25    1    1    2    0    0 -0.15485689904E+03  0.43515649828E+02 -0.51384170779E+03  0.55275000825E+03  0.12500000000E+03 0.  0.
         25    1    1    2    0    0  0.35032271527E+02  0.22937903943E+02  0.12458270386E+03  0.18138152493E+03  0.12500000000E+03 0.  0.
         25    1    1    2    0    0  0.11982462752E+03 -0.66453553771E+02 -0.32339909353E+03  0.37280824812E+03  0.12500000000E+03 0.  0.
</event>
<event>
 5    0  0.5619558E-005  0.4697530E+03  0.7546771E-02  0.1021990E+00
         21   -1    0    0  502  501  0.00000000000E+00  0.00000000000E+00  0.12613219486E+04  0.12613219486E+04  0.00000000000E+00 0. -1.
         21   -1    0    0  501  502 -0.00000000000E+00 -0.00000000000E+00 -0.17494970518E+03  0.17494970518E+03  0.00000000000E+00 0. -1.
         25    1    1    2    0    0 -0.27551395173E+03  0.20818904279E+02  0.30633260733E+02  0.30480282321E+03  0.12500000000E+03 0.  0.
         25    1    1    2    0    0  0.10434805236E+03 -0.76841894910E+02  0.58707384169E+03  0.61406342379E+03  0.12500000000E+03 0.  0.
         25    1    1    2    0    0  0.17116589936E+03  0.56022990631E+02  0.46866514097E+03  0.51740540676E+03  0.12500000000E+03 0.  0.
</event>
<event>
 5    0  0.5619558E-005  0.3427775E+03  0.7546771E-02  0.1065619E+00
         21   -1    0    0  502  501  0.00000000000E+00  0.00000000000E+00  0.79813532919E+03  0.79813532919E+03  0.00000000000E+00 0. -1.
         21   -1    0    0  501  502 -0.00000000000E+00 -0.00000000000E+00 -0.14721363348E+03  0.14721363348E+03  0.00000000000E+00 0. -1.
         25    1    1    2    0    0 -0.87603600466E+02 -0.81231916133E+02  0.50766577812E+03  0.53630453782E+03  0.12500000000E+03 0.  0.
         25    1    1    2    0    0  0.49256989957E+02 -0.11707496289E+02  0.19798077096E+03  0.23955104299E+03  0.12500000000E+03 0.  0.
         25    1    1    2    0    0  0.38346610509E+02  0.92939412423E+02 -0.54724853367E+02  0.16949338186E+03  0.12500000000E+03 0.  0.
</event>
<event>
 5    0  0.5867735E-005  0.3379642E+03  0.7546771E-02  0.1067666E+00
         21   -1    0    0  502  501  0.00000000000E+00  0.00000000000E+00  0.21075016848E+03  0.21075016848E+03  0.00000000000E+00 0. -1.
         21   -1    0    0  501  502 -0.00000000000E+00 -0.00000000000E+00 -0.54196762975E+03  0.54196762975E+03  0.00000000000E+00 0. -1.
         25    1    1    2    0    0 -0.12631371946E+03  0.48202822249E+02 -0.63625873968E+02  0.19481252433E+03  0.12500000000E+03 0.  0.
         25    1    1    2    0    0  0.38890935276E+02  0.11005505803E+03 -0.29029967868E+03  0.33693252156E+03  0.12500000000E+03 0.  0.
         25    1    1    2    0    0  0.87422784183E+02 -0.15825788028E+03  0.22708091384E+02  0.22097275234E+03  0.12500000000E+03 0.  0.
</event>
<event>
 5    0  0.6008150E-005  0.2848358E+03  0.7546771E-02  0.1093077E+00
         21   -1    0    0  502  501  0.00000000000E+00  0.00000000000E+00  0.14405606042E+03  0.14405606042E+03  0.00000000000E+00 0.  1.
         21   -1    0    0  501  502 -0.00000000000E+00 -0.00000000000E+00 -0.56319331395E+03  0.56319331395E+03  0.00000000000E+00 0.  1.
         25    1    1    2    0    0  0.26138429292E+02 -0.97885068590E+02 -0.62112680811E+02  0.17247518446E+03  0.12500000000E+03 0.  0.
         25    1    1    2    0    0 -0.86505171457E+02 -0.43972073311E+02 -0.44206027494E+02  0.16430417154E+03  0.12500000000E+03 0.  0.
         25    1    1    2    0    0  0.60366742165E+02  0.14185714190E+03 -0.31281854522E+03  0.37047001836E+03  0.12500000000E+03 0.  0.
</event>
<event>
 5    0  0.5619558E-005  0.3364403E+03  0.7546771E-02  0.1068322E+00
         21   -1    0    0  502  501  0.00000000000E+00  0.00000000000E+00  0.21659972016E+03  0.21659972016E+03  0.00000000000E+00 0. -1.
         21   -1    0    0  501  502 -0.00000000000E+00 -0.00000000000E+00 -0.52258642192E+03  0.52258642192E+03  0.00000000000E+00 0. -1.
         25    1    1    2    0    0  0.23803427933E+03  0.18286293658E+02 -0.20939542411E+03  0.34127137341E+03  0.12500000000E+03 0.  0.
         25    1    1    2    0    0 -0.18223108654E+03 -0.37153383504E+02 -0.12536220390E+03  0.25676686892E+03  0.12500000000E+03 0.  0.
         25    1    1    2    0    0 -0.55803192785E+02  0.18867089846E+02  0.28770926253E+02  0.14114789974E+03  0.12500000000E+03 0.  0.
</event>
<event>
 5    0  0.5619558E-005  0.2405385E+03  0.7546771E-02  0.1119435E+00
         21   -1    0    0  502  501  0.00000000000E+00  0.00000000000E+00  0.70399229206E+03  0.70399229206E+03  0.00000000000E+00 0. -1.
         21   -1    0    0  501  502 -0.00000000000E+00 -0.00000000000E+00 -0.82186650564E+02  0.82186650564E+02  0.00000000000E+00 0. -1.
         25    1    1    2    0    0 -0.31773991895E+02  0.11288713435E+03  0.23730229011E+03  0.29272934351E+03  0.12500000000E+03 0.  0.
         25    1    1    2    0    0  0.47514550141E+02 -0.28015768015E+02  0.94678318812E+02  0.16622725344E+03  0.12500000000E+03 0.  0.
         25    1    1    2    0    0 -0.15740558246E+02 -0.84871366340E+02  0.28982503257E+03  0.32722234567E+03  0.12500000000E+03 0.  0.
</event>
<event>
 5    0  0.5619558E-005  0.2674120E+03  0.7546771E-02  0.1102770E+00
         21   -1    0    0  502  501  0.00000000000E+00  0.00000000000E+00  0.81535168454E+03  0.81535168454E+03  0.00000000000E+00 0. -1.
         21   -1    0    0  501  502 -0.00000000000E+00 -0.00000000000E+00 -0.87703504255E+02  0.87703504255E+02  0.00000000000E+00 0. -1.
         25    1    1    2    0    0  0.97670846307E+02 -0.28134693842E+02  0.29201896187E+03  0.33351346195E+03  0.12500000000E+03 0.  0.
         25    1    1    2    0    0 -0.16558446606E+03 -0.31152852163E+02  0.21483901667E+03  0.30028239823E+03  0.12500000000E+03 0.  0.
         25    1    1    2    0    0  0.67913619753E+02  0.59287546005E+02  0.22079020174E+03  0.26925932861E+03  0.12500000000E+03 0.  0.
</event>
<event>
 5    0  0.5619558E-005  0.2450624E+03  0.7546771E-02  0.1116466E+00
         21   -1    0    0  502  501  0.00000000000E+00  0.00000000000E+00  0.11334207721E+04  0.11334207721E+04  0.00000000000E+00 0.  1.
         21   -1    0    0  501  502 -0.00000000000E+00 -0.00000000000E+00 -0.52986109810E+02  0.52986109810E+02  0.00000000000E+00 0.  1.
         25    1    1    2    0    0  0.20986527432E+02 -0.34606412719E+02  0.26089547472E+03  0.29211211352E+03  0.12500000000E+03 0.  0.
         25    1    1    2    0    0 -0.53056943241E+02  0.13234969646E+03  0.35684275365E+03  0.40409557312E+03  0.12500000000E+03 0.  0.
         25    1    1    2    0    0  0.32070415809E+02 -0.97743283744E+02  0.46269643393E+03  0.49019919529E+03  0.12500000000E+03 0.  0.
</event>
<event>
 5    0  0.5619558E-005  0.4517949E+03  0.7546771E-02  0.1027188E+00
         21   -1    0    0  502  501  0.00000000000E+00  0.00000000000E+00  0.15628716106E+03  0.15628716106E+03  0.00000000000E+00 0. -1.
         21   -1    0    0  501  502 -0.00000000000E+00 -0.00000000000E+00 -0.13060484520E+04  0.13060484520E+04  0.00000000000E+00 0.  1.
         25    1    1    2    0    0 -0.19433922169E+02 -0.79420486624E+02 -0.59750200313E+02  0.16087379359E+03  0.12500000000E+03 0.  0.
         25    1    1    2    0    0 -0.23055820627E+03  0.25623876935E+03 -0.44498653706E+03  0.57658773102E+03  0.12500000000E+03 0.  0.
         25    1    1    2    0    0  0.24999212844E+03 -0.17681828273E+03 -0.64502455358E+03  0.72487408845E+03  0.12500000000E+03 0.  0.
</event>
<event>
 5    0  0.5619558E-005  0.2272404E+03  0.7546771E-02  0.1128597E+00
         21   -1    0    0  502  501  0.00000000000E+00  0.00000000000E+00  0.38011771782E+03  0.38011771782E+03  0.00000000000E+00 0. -1.
         21   -1    0    0  501  502 -0.00000000000E+00 -0.00000000000E+00 -0.13584795530E+03  0.13584795530E+03  0.00000000000E+00 0. -1.
         25    1    1    2    0    0 -0.15669408080E+02  0.25778672464E+02  0.10686850346E+03  0.16720032098E+03  0.12500000000E+03 0.  0.
         25    1    1    2    0    0  0.25778141073E+02 -0.11044403313E+03  0.81812096508E+02  0.18756496513E+03  0.12500000000E+03 0.  0.
         25    1    1    2    0    0 -0.10108732993E+02  0.84665360661E+02  0.55589162544E+02  0.16120038701E+03  0.12500000000E+03 0.  0.
</event>
<event>
 5    0  0.5619558E-005  0.3176532E+03  0.7546771E-02  0.1076734E+00
         21   -1    0    0  502  501  0.00000000000E+00  0.00000000000E+00  0.21013453253E+04  0.21013453253E+04  0.00000000000E+00 0.  1.
         21   -1    0    0  501  502 -0.00000000000E+00 -0.00000000000E+00 -0.48018540761E+02  0.48018540761E+02  0.00000000000E+00 0.  1.
         25    1    1    2    0    0  0.44126404644E+02  0.14215860136E+03  0.22488221591E+03  0.29724269303E+03  0.12500000000E+03 0.  0.
         25    1    1    2    0    0 -0.38629591644E+02 -0.89160980386E+02  0.10591640100E+04  0.10709319893E+04  0.12500000000E+03 0.  0.
         25    1    1    2    0    0 -0.54968129999E+01 -0.52997620974E+02  0.76928055864E+03  0.78118918367E+03  0.12500000000E+03 0.  0.
</event>
<event>
 5    0  0.5619558E-005  0.2893113E+03  0.7546771E-02  0.1090709E+00
         21   -1    0    0  502  501  0.00000000000E+00  0.00000000000E+00  0.35091010368E+03  0.35091010368E+03  0.00000000000E+00 0.  1.
         21   -1    0    0  501  502 -0.00000000000E+00 -0.00000000000E+00 -0.23852551234E+03  0.23852551234E+03  0.00000000000E+00 0.  1.
         25    1    1    2    0    0  0.22266782930E+02  0.52890227989E+02  0.89998304986E+02  0.16437116760E+03  0.12500000000E+03 0.  0.
         25    1    1    2    0    0  0.80913537970E+02 -0.93891903496E+02  0.13640488702E+03  0.22269706638E+03  0.12500000000E+03 0.  0.
         25    1    1    2    0    0 -0.10318032090E+03  0.41001675507E+02 -0.11401860067E+03  0.20236738204E+03  0.12500000000E+03 0.  0.
</event>
<event>
 5    0  0.5619558E-005  0.2520510E+03  0.7546771E-02  0.1112015E+00
         21   -1    0    0  502  501  0.00000000000E+00  0.00000000000E+00  0.72760703313E+02  0.72760703313E+02  0.00000000000E+00 0.  1.
         21   -1    0    0  501  502 -0.00000000000E+00 -0.00000000000E+00 -0.87313179501E+03  0.87313179501E+03  0.00000000000E+00 0.  1.
         25    1    1    2    0    0 -0.78670857405E+02 -0.41560094740E+02 -0.39256311351E+03  0.42148207954E+03  0.12500000000E+03 0.  0.
         25    1    1    2    0    0 -0.21509009053E+02 -0.37182652535E+02 -0.26381406469E+03  0.29507295343E+03  0.12500000000E+03 0.  0.
         25    1    1    2    0    0  0.10017986646E+03  0.78742747274E+02 -0.14399391350E+03  0.22933746536E+03  0.12500000000E+03 0.  0.
</event>
<event>
 5    0  0.5619558E-005  0.4737110E+03  0.7546771E-02  0.1020878E+00
         21   -1    0    0  502  501  0.00000000000E+00  0.00000000000E+00  0.55106197412E+03  0.55106197412E+03  0.00000000000E+00 0.  1.
         21   -1    0    0  501  502 -0.00000000000E+00 -0.00000000000E+00 -0.40721751003E+03  0.40721751003E+03  0.00000000000E+00 0.  1.
         25    1    1    2    0    0 -0.15160459030E+02 -0.13967370578E+03 -0.78464922369E+02  0.20376537402E+03  0.12500000000E+03 0.  0.
         25    1    1    2    0    0 -0.21786223747E+03 -0.17754821652E+03  0.10805334758E+03  0.32601817377E+03  0.12500000000E+03 0.  0.
         25    1    1    2    0    0  0.23302269650E+03  0.31722192230E+03  0.11425603887E+03  0.42849593637E+03  0.12500000000E+03 0.  0.
</event>
<event>
 5    0  0.5619558E-005  0.2612337E+03  0.7546771E-02  0.1106404E+00
         21   -1    0    0  502  501  0.00000000000E+00  0.00000000000E+00  0.21636587873E+03  0.21636587873E+03  0.00000000000E+00 0. -1.
         21   -1    0    0  501  502 -0.00000000000E+00 -0.00000000000E+00 -0.31540573780E+03  0.31540573780E+03  0.00000000000E+00 0. -1.
         25    1    1    2    0    0 -0.14261963538E+02  0.30253219203E+02  0.22171553638E+01  0.12941629207E+03  0.12500000000E+03 0.  0.
         25    1    1    2    0    0  0.58800327921E+02  0.11284463814E+01 -0.19348235930E+03  0.23773761863E+03  0.12500000000E+03 0.  0.
         25    1    1    2    0    0 -0.44538364383E+02 -0.31381665584E+02  0.92225344865E+02  0.16461770583E+03  0.12500000000E+03 0.  0.
</event>
<event>
 5    0  0.5619558E-005  0.2322830E+03  0.7546771E-02  0.1125043E+00
         21   -1    0    0  502  501  0.00000000000E+00  0.00000000000E+00  0.91325232223E+03  0.91325232223E+03  0.00000000000E+00 0. -1.
         21   -1    0    0  501  502 -0.00000000000E+00 -0.00000000000E+00 -0.59080493429E+02  0.59080493429E+02  0.00000000000E+00 0. -1.
         25    1    1    2    0    0 -0.55562213727E+02 -0.61057103861E+02  0.17335501849E+03  0.22911152734E+03  0.12500000000E+03 0.  0.
         25    1    1    2    0    0  0.78814239193E+02 -0.16850067743E+02  0.32445397253E+03  0.35691874338E+03  0.12500000000E+03 0.  0.
         25    1    1    2    0    0 -0.23252025466E+02  0.77907171604E+02  0.35636283778E+03  0.38630254494E+03  0.12500000000E+03 0.  0.
</event>
<event>
 5    0  0.5619558E-005  0.2601355E+03  0.7546771E-02  0.1107062E+00
         21   -1    0    0  502  501  0.00000000000E+00  0.00000000000E+00  0.94233095812E+02  0.94233095812E+02  0.00000000000E+00 0. -1.
         21   -1    0    0  501  502 -0.00000000000E+00 -0.00000000000E+00 -0.71811783557E+03  0.71811783557E+03  0.00000000000E+00 0. -1.
         25    1    1    2    0    0  0.39660386705E+02  0.48227854308E+01 -0.18998745985E+03  0.23090353057E+03  0.12500000000E+03 0.  0.
         25    1    1    2    0    0 -0.15910074876E+03 -0.43044840728E+02 -0.19670167709E+03  0.28545132043E+03  0.12500000000E+03 0.  0.
         25    1    1    2    0    0  0.11944036205E+03  0.38222055297E+02 -0.23719560283E+03  0.29599608038E+03  0.12500000000E+03 0.  0.
</event>
<event>
 5    0  0.5619558E-005  0.2482235E+03  0.7546771E-02  0.1114433E+00
         21   -1    0    0  502  501  0.00000000000E+00  0.00000000000E+00  0.30917195244E+03  0.30917195244E+03  0.00000000000E+00 0. -1.
         21   -1    0    0  501  502 -0.00000000000E+00 -0.00000000000E+00 -0.19929016869E+03  0.19929016869E+03  0.00000000000E+00 0. -1.
         25    1    1    2    0    0  0.12764194345E+03  0.56321874195E+02 -0.13721782829E+02  0.18782413733E+03  0.12500000000E+03 0.  0.
         25    1    1    2    0    0 -0.10192576950E+03 -0.44877396385E+02  0.62715752969E+02  0.17877670112E+03  0.12500000000E+03 0.  0.
         25    1    1    2    0    0 -0.25716173949E+02 -0.11444477810E+02  0.60887813610E+02  0.14186128267E+03  0.12500000000E+03 0.  0.
</event>
<event>
 5    0  0.5619558E-005  0.2473534E+03  0.7546771E-02  0.1114989E+00
         21   -1    0    0  502  501  0.00000000000E+00  0.00000000000E+00  0.70944023722E+03  0.70944023722E+03  0.00000000000E+00 0. -1.
         21   -1    0    0  501  502 -0.00000000000E+00 -0.00000000000E+00 -0.86242223493E+02  0.86242223493E+02  0.00000000000E+00 0. -1.
         25    1    1    2    0    0  0.64118232372E+01  0.11546533234E+03  0.12726130440E+03  0.21258832058E+03  0.12500000000E+03 0.  0.
         25    1    1    2    0    0  0.45676687597E+02 -0.26130933128E+02  0.15794542541E+03  0.20818487664E+03  0.12500000000E+03 0.  0.
         25    1    1    2    0    0 -0.52088510834E+02 -0.89334399215E+02  0.33799128391E+03  0.37490926348E+03  0.12500000000E+03 0.  0.
</event>
<event>
 5    0  0.5619558E-005  0.3092983E+03  0.7546771E-02  0.1080683E+00
         21   -1    0    0  502  501  0.00000000000E+00  0.00000000000E+00  0.11019052294E+03  0.11019052294E+03  0.00000000000E+00 0.  1.
         21   -1    0    0  501  502 -0.00000000000E+00 -0.00000000000E+00 -0.86818187203E+03  0.86818187203E+03  0.00000000000E+00 0.  1.
         25    1    1    2    0    0 -0.10029805527E+03  0.10756469907E+02 -0.16038873422E+03  0.22699107383E+03  0.12500000000E+03 0.  0.
         25    1    1    2    0    0  0.12789318992E+03 -0.41812214082E+02 -0.59167677412E+03  0.61952508772E+03  0.12500000000E+03 0.  0.
         25    1    1    2    0    0 -0.27595134655E+02  0.31055744175E+02 -0.59258407449E+01  0.13185623342E+03  0.12500000000E+03 0.  0.
</event>
<event>
 5    0  0.5619558E-005  0.3050656E+03  0.7546771E-02  0.1082735E+00
         21   -1    0    0  502  501  0.00000000000E+00  0.00000000000E+00  0.29771016343E+03  0.29771016343E+03  0.00000000000E+00 0.  1.
         21   -1    0    0  501  502 -0.00000000000E+00 -0.00000000000E+00 -0.31260284767E+03  0.31260284767E+03  0.00000000000E+00 0.  1.
         25    1    1    2    0    0 -0.38481624781E+02 -0.58064455419E+02 -0.45466163857E+02  0.15014822172E+03  0.12500000000E+03 0.  0.
         25    1    1    2    0    0  0.75422057886E+02 -0.14219909806E+02  0.19123714918E+03  0.24101315291E+03  0.12500000000E+03 0.  0.
         25    1    1    2    0    0 -0.36940433105E+02  0.72284365226E+02 -0.16066366956E+03  0.21915163648E+03  0.12500000000E+03 0.  0.
</event>
<event>
 5    0  0.6217912E-005  0.3077616E+03  0.7546771E-02  0.1081424E+00
         21   -1    0    0  502  501  0.00000000000E+00  0.00000000000E+00  0.16419508963E+03  0.16419508963E+03  0.00000000000E+00 0.  1.
         21   -1    0    0  501  502 -0.00000000000E+00 -0.00000000000E+00 -0.57685776059E+03  0.57685776059E+03  0.00000000000E+00 0.  1.
         25    1    1    2    0    0 -0.45254545042E+02 -0.11695163065E+03 -0.16749731167E+03  0.24373347570E+03  0.12500000000E+03 0.  0.
         25    1    1    2    0    0  0.25811695992E+02  0.22480154085E+03 -0.10190520910E+03  0.27786984014E+03  0.12500000000E+03 0.  0.
         25    1    1    2    0    0  0.19442849050E+02 -0.10784991020E+03 -0.14326015018E+03  0.21944953438E+03  0.12500000000E+03 0.  0.
</event>
<event>
 5    0  0.5619558E-005  0.2249549E+03  0.7546771E-02  0.1130242E+00
         21   -1    0    0  502  501  0.00000000000E+00  0.00000000000E+00  0.20899195750E+03  0.20899195750E+03  0.00000000000E+00 0.  1.
         21   -1    0    0  501  502 -0.00000000000E+00 -0.00000000000E+00 -0.24213719943E+03  0.24213719943E+03  0.00000000000E+00 0.  1.
         25    1    1    2    0    0 -0.47001875550E+02 -0.98689982600E+01  0.61834602907E+02  0.14749607299E+03  0.12500000000E+03 0.  0.
         25    1    1    2    0    0  0.83010267290E+02 -0.22099252937E+02 -0.71333687068E+02  0.16760840184E+03  0.12500000000E+03 0.  0.
         25    1    1    2    0    0 -0.36008391740E+02  0.31968251197E+02 -0.23646157769E+02  0.13602468209E+03  0.12500000000E+03 0.  0.
</event>
<event>
 5    0  0.5619558E-005  0.5446073E+03  0.7546771E-02  0.1002750E+00
         21   -1    0    0  502  501  0.00000000000E+00  0.00000000000E+00  0.45316931193E+03  0.45316931193E+03  0.00000000000E+00 0. -1.
         21   -1    0    0  501  502 -0.00000000000E+00 -0.00000000000E+00 -0.65449504810E+03  0.65449504810E+03  0.00000000000E+00 0. -1.
         25    1    1    2    0    0  0.16522402451E+02  0.19831840459E+02  0.15715699651E+03  0.20245891739E+03  0.12500000000E+03 0.  0.
         25    1    1    2    0    0 -0.21306324398E+03  0.15567887237E+03 -0.50155442042E+03  0.58035652308E+03  0.12500000000E+03 0.  0.
         25    1    1    2    0    0  0.19654084153E+03 -0.17551071283E+03  0.14307168774E+03  0.32484891956E+03  0.12500000000E+03 0.  0.
</event>
<event>
 5    0  0.5619558E-005  0.2824746E+03  0.7546771E-02  0.1094345E+00
         21   -1    0    0  502  501  0.00000000000E+00  0.00000000000E+00  0.38512747590E+03  0.38512747590E+03  0.00000000000E+00 0.  1.
         21   -1    0    0  501  502 -0.00000000000E+00 -0.00000000000E+00 -0.20718313050E+03  0.20718313050E+03  0.00000000000E+00 0.  1.
         25    1    1    2    0    0 -0.11472814862E+02 -0.96113979572E+02 -0.23247284207E+01  0.15811365188E+03  0.12500000000E+03 0.  0.
         25    1    1    2    0    0 -0.12327005766E+03  0.36758477892E+01  0.13996810018E+03  0.22455531176E+03  0.12500000000E+03 0.  0.
         25    1    1    2    0    0  0.13474287252E+03  0.92438131783E+02  0.40300973644E+02  0.20964164276E+03  0.12500000000E+03 0.  0.
</event>
<event>
 5    0  0.5619558E-005  0.3743254E+03  0.7546771E-02  0.1053051E+00
         21   -1    0    0  502  501  0.00000000000E+00  0.00000000000E+00  0.43526195896E+03  0.43526195896E+03  0.00000000000E+00 0. -1.
         21   -1    0    0  501  502 -0.00000000000E+00 -0.00000000000E+00 -0.32191987981E+03  0.32191987981E+03  0.00000000000E+00 0. -1.
         25    1    1    2    0    0 -0.12075290677E+03  0.20507339068E+03 -0.14068509401E+03  0.30340345373E+03  0.12500000000E+03 0.  0.
         25    1    1    2    0    0  0.10392287293E+03 -0.44349010052E+02  0.14446277337E+03  0.22194884794E+03  0.12500000000E+03 0.  0.
         25    1    1    2    0    0  0.16830033837E+02 -0.16072438063E+03  0.10956439979E+03  0.23182953710E+03  0.12500000000E+03 0.  0.
</event>
<event>
 5    0  0.5619558E-005  0.3350604E+03  0.7546771E-02  0.1068920E+00
         21   -1    0    0  502  501  0.00000000000E+00  0.00000000000E+00  0.17115369954E+03  0.17115369954E+03  0.00000000000E+00 0. -1.
         21   -1    0    0  501  502 -0.00000000000E+00 -0.00000000000E+00 -0.65593351420E+03  0.65593351420E+03  0.00000000000E+00 0. -1.
         25    1    1    2    0    0  0.31154699364E+02 -0.32458282905E+02 -0.15728281680E+03  0.20588113047E+03  0.12500000000E+03 0.  0.
         25    1    1    2    0    0  0.12736931507E+03  0.27710445797E+02 -0.37281026933E+03  0.41425029649E+03  0.12500000000E+03 0.  0.
         25    1    1    2    0    0 -0.15852401443E+03  0.47478371081E+01  0.45313271473E+02  0.20695578678E+03  0.12500000000E+03 0.  0.
</event>
<event>
 5    0  0.5899513E-005  0.3432681E+03  0.7546771E-02  0.1065412E+00
         21   -1    0    0  502  501  0.00000000000E+00  0.00000000000E+00  0.27678288346E+03  0.27678288346E+03  0.00000000000E+00 0. -1.
         21   -1    0    0  501  502 -0.00000000000E+00 -0.00000000000E+00 -0.42572348205E+03  0.42572348205E+03  0.00000000000E+00 0. -1.
         25    1    1    2    0    0 -0.62714104227E+02 -0.56300534267E+02  0.88144669917E+02  0.17463473842E+03  0.12500000000E+03 0.  0.
         25    1    1    2    0    0 -0.62302709290E+02 -0.14654801618E+03 -0.10760001180E+03  0.22926122911E+03  0.12500000000E+03 0.  0.
         25    1    1    2    0    0  0.12501681352E+03  0.20284855045E+03 -0.12948525670E+03  0.29861039798E+03  0.12500000000E+03 0.  0.
</event>
<event>
 5    0  0.5619558E-005  0.2743853E+03  0.7546771E-02  0.1098796E+00
         21   -1    0    0  502  501  0.00000000000E+00  0.00000000000E+00  0.19406188105E+03  0.19406188105E+03  0.00000000000E+00 0.  1.
         21   -1    0    0  501  502 -0.00000000000E+00 -0.00000000000E+00 -0.38795517255E+03  0.38795517255E+03  0.00000000000E+00 0.  1.
         25    1    1    2    0    0  0.66126475783E+01  0.90432041755E+02 -0.12268983412E+03  0.19722950256E+03  0.12500000000E+03 0.  0.
         25    1    1    2    0    0 -0.73983322029E+02 -0.11217618405E+03  0.57072965712E+02  0.19219612801E+03  0.12500000000E+03 0.  0.
         25    1    1    2    0    0  0.67370674451E+02  0.21744142296E+02 -0.12827642310E+03  0.19259142303E+03  0.12500000000E+03 0.  0.
</event>
<event>
 5    0  0.5619558E-005  0.2696476E+03  0.7546771E-02  0.1101481E+00
         21   -1    0    0  502  501  0.00000000000E+00  0.00000000000E+00  0.73585766386E+02  0.73585766386E+02  0.00000000000E+00 0.  1.
         21   -1    0    0  501  502 -0.00000000000E+00 -0.00000000000E+00 -0.98809643710E+03  0.98809643710E+03  0.00000000000E+00 0.  1.
         25    1    1    2    0    0 -0.23813635892E+02  0.33548999773E+02 -0.46218852953E+03  0.48055786485E+03  0.12500000000E+03 0.  0.
         25    1    1    2    0    0  0.17450738266E+02  0.69796780104E+02 -0.37411270779E+03  0.40095066642E+03  0.12500000000E+03 0.  0.
         25    1    1    2    0    0  0.63628976256E+01 -0.10334577988E+03 -0.78209433391E+02  0.18017367221E+03  0.12500000000E+03 0.  0.
</event>
<event>
 5    0  0.5619558E-005  0.4032196E+03  0.7546771E-02  0.1042671E+00
         21   -1    0    0  502  501  0.00000000000E+00  0.00000000000E+00  0.11637724628E+03  0.11637724628E+03  0.00000000000E+00 0. -1.
         21   -1    0    0  501  502 -0.00000000000E+00 -0.00000000000E+00 -0.13970604082E+04  0.13970604082E+04  0.00000000000E+00 0. -1.
         25    1    1    2    0    0  0.11336149106E+03  0.18888157162E+03 -0.88286337418E+03  0.91847689858E+03  0.12500000000E+03 0.  0.
         25    1    1    2    0    0  0.55218804608E+01  0.20398082678E+02 -0.26327834973E+03  0.29221064727E+03  0.12500000000E+03 0.  0.
         25    1    1    2    0    0 -0.11888337152E+03 -0.20927965430E+03 -0.13454143801E+03  0.30275010862E+03  0.12500000000E+03 0.  0.
</event>
<event>
 5    0  0.5619558E-005  0.2896159E+03  0.7546771E-02  0.1090550E+00
         21   -1    0    0  502  501  0.00000000000E+00  0.00000000000E+00  0.68337456278E+03  0.68337456278E+03  0.00000000000E+00 0. -1.
         21   -1    0    0  501  502 -0.00000000000E+00 -0.00000000000E+00 -0.12273992649E+03  0.12273992649E+03  0.00000000000E+00 0. -1.
         25    1    1    2    0    0  0.11336126709E+03  0.23387108033E+02  0.56248137365E+02  0.17940620573E+03  0.12500000000E+03 0.  0.
         25    1    1    2    0    0  0.58415344869E+02 -0.58114439692E+02  0.14908587235E+03  0.21128473194E+03  0.12500000000E+03 0.  0.
         25    1    1    2    0    0 -0.17177661196E+03  0.34727331658E+02  0.35530062657E+03  0.41542355160E+03  0.12500000000E+03 0.  0.
</event>
<event>
 5    0  0.5619558E-005  0.2855244E+03  0.7546771E-02  0.1092709E+00
         21   -1    0    0  502  501  0.00000000000E+00  0.00000000000E+00  0.25693503554E+03  0.25693503554E+03  0.00000000000E+00 0. -1.
         21   -1    0    0  501  502 -0.00000000000E+00 -0.00000000000E+00 -0.31729488993E+03  0.31729488993E+03  0.00000000000E+00 0. -1.
         25    1    1    2    0    0 -0.35118451567E+02  0.13876050677E+03  0.53389625430E+02  0.19739107372E+03  0.12500000000E+03 0.  0.
         25    1    1    2    0    0  0.98592219410E+01  0.32485139366E+02 -0.98603481738E+02  0.16278862106E+03  0.12500000000E+03 0.  0.
         25    1    1    2    0    0  0.25259229626E+02 -0.17124564614E+03 -0.15145998081E+02  0.21405023070E+03  0.12500000000E+03 0.  0.
</event>
<event>
 5    0  0.5801812E-005  0.3105833E+03  0.7546771E-02  0.1080067E+00
         21   -1    0    0  502  501  0.00000000000E+00  0.00000000000E+00  0.77306468240E+03  0.77306468240E+03  0.00000000000E+00 0. -1.
         21   -1    0    0  501  502 -0.00000000000E+00 -0.00000000000E+00 -0.12477865756E+03  0.12477865756E+03  0.00000000000E+00 0. -1.
         25    1    1    2    0    0 -0.20526730948E+02 -0.12410157915E+03  0.17283285898E+03  0.24762622191E+03  0.12500000000E+03 0.  0.
         25    1    1    2    0    0 -0.72353510510E+02  0.21032603535E+03  0.34699305494E+03  0.43069856258E+03  0.12500000000E+03 0.  0.
         25    1    1    2    0    0  0.92880241458E+02 -0.86224456205E+02  0.12846011092E+03  0.21951855548E+03  0.12500000000E+03 0.  0.
</event>
<event>
 5    0  0.5619558E-005  0.3011616E+03  0.7546771E-02  0.1084661E+00
         21   -1    0    0  502  501  0.00000000000E+00  0.00000000000E+00  0.46263257852E+02  0.46263257852E+02  0.00000000000E+00 0. -1.
         21   -1    0    0  501  502 -0.00000000000E+00 -0.00000000000E+00 -0.19604820643E+04  0.19604820643E+04  0.00000000000E+00 0. -1.
         25    1    1    2    0    0 -0.23519323132E+02 -0.14166085590E+02 -0.40988800792E+03  0.42940309219E+03  0.12500000000E+03 0.  0.
         25    1    1    2    0    0  0.17510676835E+03 -0.58554579593E+02 -0.10954595967E+04  0.11179211721E+04  0.12500000000E+03 0.  0.
         25    1    1    2    0    0 -0.15158744522E+03  0.72720665183E+02 -0.40887120185E+03  0.45942105785E+03  0.12500000000E+03 0.  0.
</event>
<event>
 5    0  0.5619558E-005  0.2311830E+03  0.7546771E-02  0.1125810E+00
         21   -1    0    0  502  501  0.00000000000E+00  0.00000000000E+00  0.67122736037E+03  0.67122736037E+03  0.00000000000E+00 0. -1.
         21   -1    0    0  501  502 -0.00000000000E+00 -0.00000000000E+00 -0.79623652230E+02  0.79623652230E+02  0.00000000000E+00 0. -1.
         25    1    1    2    0    0  0.98043790941E+02  0.23021517740E+02  0.26974656343E+03  0.31389613521E+03  0.12500000000E+03 0.  0.
         25    1    1    2    0    0 -0.58120543657E+02  0.18160023361E+02  0.84713269773E+02  0.16281622192E+03  0.12500000000E+03 0.  0.
         25    1    1    2    0    0 -0.39923247284E+02 -0.41181541102E+02  0.23714387494E+03  0.27413865547E+03  0.12500000000E+03 0.  0.
</event>
<event>
 5    0  0.5619558E-005  0.2812471E+03  0.7546771E-02  0.1095010E+00
         21   -1    0    0  502  501  0.00000000000E+00  0.00000000000E+00  0.18885630810E+03  0.18885630810E+03  0.00000000000E+00 0.  1.
         21   -1    0    0  501  502 -0.00000000000E+00 -0.00000000000E+00 -0.41883672513E+03  0.41883672513E+03  0.00000000000E+00 0.  1.
         25    1    1    2    0    0 -0.28716695231E+02  0.16712613188E+02 -0.16142779754E+03  0.20685234793E+03  0.12500000000E+03 0.  0.
         25    1    1    2    0    0  0.10313069276E+03 -0.13224396361E+03 -0.35515428609E+02  0.21215737406E+03  0.12500000000E+03 0.  0.
         25    1    1    2    0    0 -0.74413997532E+02  0.11553135042E+03 -0.33037190886E+02  0.18868331124E+03  0.12500000000E+03 0.  0.
</event>
<event>
 5    0  0.5619558E-005  0.2747483E+03  0.7546771E-02  0.1098592E+00
         21   -1    0    0  502  501  0.00000000000E+00  0.00000000000E+00  0.72264523739E+03  0.72264523739E+03  0.00000000000E+00 0.  1.
         21   -1    0    0  501  502 -0.00000000000E+00 -0.00000000000E+00 -0.10445875894E+03  0.10445875894E+03  0.00000000000E+00 0.  1.
         25    1    1    2    0    0 -0.53235158433E+01  0.11448339065E+02 -0.52299563852E+01  0.12574480797E+03  0.12500000000E+03 0.  0.
         25    1    1    2    0    0 -0.29625210260E+02  0.89779349915E+02  0.30669455240E+03  0.34441912436E+03  0.12500000000E+03 0.  0.
         25    1    1    2    0    0  0.34948726103E+02 -0.10122768898E+03  0.31672188244E+03  0.35694006400E+03  0.12500000000E+03 0.  0.
</event>
<event>
 5    0  0.5619558E-005  0.3977727E+03  0.7546771E-02  0.1044554E+00
         21   -1    0    0  502  501  0.00000000000E+00  0.00000000000E+00  0.69223769771E+02  0.69223769771E+02  0.00000000000E+00 0.  1.
         21   -1    0    0  501  502 -0.00000000000E+00 -0.00000000000E+00 -0.22856762386E+04  0.22856762386E+04  0.00000000000E+00 0.  1.
         25    1    1    2    0    0  0.24577107932E+02  0.47242913733E+02 -0.36743924272E+03  0.39175569457E+03  0.12500000000E+03 0.  0.
         25    1    1    2    0    0  0.17671587556E+03  0.19312188087E+03 -0.11625148075E+04  0.11981611909E+04  0.12500000000E+03 0.  0.
         25    1    1    2    0    0 -0.20129298349E+03 -0.24036479461E+03 -0.68649841856E+03  0.76498312293E+03  0.12500000000E+03 0.  0.
</event>
<event>
 5    0  0.5619558E-005  0.3663303E+03  0.7546771E-02  0.1056105E+00
         21   -1    0    0  502  501  0.00000000000E+00  0.00000000000E+00  0.36877862067E+03  0.36877862067E+03  0.00000000000E+00 0.  1.
         21   -1    0    0  501  502 -0.00000000000E+00 -0.00000000000E+00 -0.36389831144E+03  0.36389831144E+03  0.00000000000E+00 0.  1.
         25    1    1    2    0    0  0.17915972930E+00  0.16554868207E+03 -0.70692057144E+02  0.21915466040E+03  0.12500000000E+03 0.  0.
         25    1    1    2    0    0 -0.11925610111E+03 -0.20816149873E+03 -0.74776784913E+02  0.28065957095E+03  0.12500000000E+03 0.  0.
         25    1    1    2    0    0  0.11907694138E+03  0.42612816661E+02  0.15034915129E+03  0.23286270076E+03  0.12500000000E+03 0.  0.
</event>
<event>
 5    0  0.5619558E-005  0.2603547E+03  0.7546771E-02  0.1106930E+00
         21   -1    0    0  502  501  0.00000000000E+00  0.00000000000E+00  0.45173047654E+03  0.45173047654E+03  0.00000000000E+00 0.  1.
         21   -1    0    0  501  502 -0.00000000000E+00 -0.00000000000E+00 -0.15005536058E+03  0.15005536058E+03  0.00000000000E+00 0.  1.
         25    1    1    2    0    0  0.21816205842E+02  0.63779400984E+02  0.12110821605E+03  0.18664393594E+03  0.12500000000E+03 0.  0.
         25    1    1    2    0    0  0.77106309755E+02 -0.10484845578E+03  0.17357096923E+03  0.25038063631E+03  0.12500000000E+03 0.  0.
         25    1    1    2    0    0 -0.98922515598E+02  0.41069054792E+02  0.69959306797E+01  0.16476126486E+03  0.12500000000E+03 0.  0.
</event>
<event>
 5    0  0.5619558E-005  0.3854299E+03  0.7546771E-02  0.1048945E+00
         21   -1    0    0  502  501  0.00000000000E+00  0.00000000000E+00  0.15727952292E+03  0.15727952292E+03  0.00000000000E+00 0. -1.
         21   -1    0    0  501  502 -0.00000000000E+00 -0.00000000000E+00 -0.94453612990E+03  0.94453612990E+03  0.00000000000E+00 0. -1.
         25    1    1    2    0    0 -0.14982622273E+03  0.78315027406E+02 -0.10729578419E+02  0.21052616082E+03  0.12500000000E+03 0.  0.
         25    1    1    2    0    0 -0.86548236779E+02  0.16969298645E+02 -0.29550965862E+03  0.33276044345E+03  0.12500000000E+03 0.  0.
         25    1    1    2    0    0  0.23637445951E+03 -0.95284326050E+02 -0.48101736994E+03  0.55852904856E+03  0.12500000000E+03 0.  0.
</event>
<event>
 5    0  0.5619558E-005  0.3159641E+03  0.7546771E-02  0.1077522E+00
         21   -1    0    0  502  501  0.00000000000E+00  0.00000000000E+00  0.41002833090E+03  0.41002833090E+03  0.00000000000E+00 0. -1.
         21   -1    0    0  501  502 -0.00000000000E+00 -0.00000000000E+00 -0.24347900552E+03  0.24347900552E+03  0.00000000000E+00 0. -1.
         25    1    1    2    0    0 -0.83424465286E+02  0.21691840928E+03  0.70040746729E+01  0.26398351228E+03  0.12500000000E+03 0.  0.
         25    1    1    2    0    0  0.73621891379E+02 -0.99954371746E+02  0.40455584899E+02  0.18075595058E+03  0.12500000000E+03 0.  0.
         25    1    1    2    0    0  0.98025739074E+01 -0.11696403753E+03  0.11908966580E+03  0.20876787356E+03  0.12500000000E+03 0.  0.
</event>
<event>
 5    0  0.5619558E-005  0.3507048E+03  0.7546771E-02  0.1062326E+00
         21   -1    0    0  502  501  0.00000000000E+00  0.00000000000E+00  0.98668884418E+03  0.98668884418E+03  0.00000000000E+00 0. -1.
         21   -1    0    0  501  502 -0.00000000000E+00 -0.00000000000E+00 -0.12465316648E+03  0.12465316648E+03  0.00000000000E+00 0. -1.
         25    1    1    2    0    0 -0.80107761184E+00  0.17688815922E+03  0.18122083399E+03  0.28241114226E+03  0.12500000000E+03 0.  0.
         25    1    1    2    0    0  0.17066951684E+03 -0.71830334855E+02  0.43141436488E+03  0.48583025350E+03  0.12500000000E+03 0.  0.
         25    1    1    2    0    0 -0.16986843923E+03 -0.10505782437E+03  0.24940047882E+03  0.34310061490E+03  0.12500000000E+03 0.  0.
</event>
<event>
 5    0  0.5619558E-005  0.2668042E+03  0.7546771E-02  0.1103123E+00
         21   -1    0    0  502  501  0.00000000000E+00  0.00000000000E+00  0.74286093090E+02  0.74286093090E+02  0.00000000000E+00 0. -1.
         21   -1    0    0  501  502 -0.00000000000E+00 -0.00000000000E+00 -0.95824810040E+03  0.95824810040E+03  0.00000000000E+00 0.  1.
         25    1    1    2    0    0 -0.16181959794E+03 -0.26826479848E+02 -0.29844820804E+03  0.36276931400E+03  0.12500000000E+03 0.  0.
         25    1    1    2    0    0  0.12255157648E+03 -0.18550443527E+02 -0.40921797846E+03  0.44547431098E+03  0.12500000000E+03 0.  0.
         25    1    1    2    0    0  0.39268021462E+02  0.45376923374E+02 -0.17629582081E+03  0.22429056851E+03  0.12500000000E+03 0.  0.
</event>
<event>
 5    0  0.5619558E-005  0.2267571E+03  0.7546771E-02  0.1128943E+00
         21   -1    0    0  502  501  0.00000000000E+00  0.00000000000E+00  0.11965019740E+03  0.11965019740E+03  0.00000000000E+00 0.  1.
         21   -1    0    0  501  502 -0.00000000000E+00 -0.00000000000E+00 -0.42974260093E+03  0.42974260093E+03  0.00000000000E+00 0.  1.
         25    1    1    2    0    0  0.78056699210E+02  0.53973720236E+02 -0.10714950726E+03  0.19003164913E+03  0.12500000000E+03 0.  0.
         25    1    1    2    0    0 -0.12176837828E+02 -0.43061227834E+01 -0.16020211141E+03  0.20360877823E+03  0.12500000000E+03 0.  0.
         25    1    1    2    0    0 -0.65879861382E+02 -0.49667597452E+02 -0.42740784863E+02  0.15575237097E+03  0.12500000000E+03 0.  0.
</event>
<event>
 5    0  0.5619558E-005  0.2090843E+03  0.7546771E-02  0.1142293E+00
         21   -1    0    0  502  501  0.00000000000E+00  0.00000000000E+00  0.13553125976E+04  0.13553125976E+04  0.00000000000E+00 0. -1.
         21   -1    0    0  501  502 -0.00000000000E+00 -0.00000000000E+00 -0.32255474780E+02  0.32255474780E+02  0.00000000000E+00 0. -1.
         25    1    1    2    0    0  0.21711573764E+02 -0.11068019457E+01  0.33345411868E+03  0.35677621377E+03  0.12500000000E+03 0.  0.
         25    1    1    2    0    0 -0.45975221391E+02 -0.37351190825E+01  0.72455749177E+03  0.73670633972E+03  0.12500000000E+03 0.  0.
         25    1    1    2    0    0  0.24263647627E+02  0.48419210281E+01  0.26504551234E+03  0.29408551886E+03  0.12500000000E+03 0.  0.
</event>
<event>
 5    0  0.5619558E-005  0.2563180E+03  0.7546771E-02  0.1109376E+00
         21   -1    0    0  502  501  0.00000000000E+00  0.00000000000E+00  0.33688315760E+03  0.33688315760E+03  0.00000000000E+00 0.  1.
         21   -1    0    0  501  502 -0.00000000000E+00 -0.00000000000E+00 -0.19501987871E+03  0.19501987871E+03  0.00000000000E+00 0.  1.
         25    1    1    2    0    0  0.49739975914E+01 -0.12474853037E+03  0.58349888959E+02  0.18605549178E+03  0.12500000000E+03 0.  0.
         25    1    1    2    0    0 -0.27748140545E+02  0.29344451207E+02  0.12531873213E+03  0.18155120695E+03  0.12500000000E+03 0.  0.
         25    1    1    2    0    0  0.22774142954E+02  0.95404079159E+02 -0.41805342200E+02  0.16429633759E+03  0.12500000000E+03 0.  0.
</event>
<event>
 5    0  0.5619558E-005  0.3381978E+03  0.7546771E-02  0.1067566E+00
         21   -1    0    0  502  501  0.00000000000E+00  0.00000000000E+00  0.17948762232E+03  0.17948762232E+03  0.00000000000E+00 0. -1.
         21   -1    0    0  501  502 -0.00000000000E+00 -0.00000000000E+00 -0.63724589926E+03  0.63724589926E+03  0.00000000000E+00 0. -1.
         25    1    1    2    0    0  0.14754494020E+02 -0.15058402369E+03 -0.43856188164E+03  0.48047348242E+03  0.12500000000E+03 0.  0.
         25    1    1    2    0    0 -0.55601489254E+02  0.10191426338E+03 -0.73677036271E+02  0.18582612400E+03  0.12500000000E+03 0.  0.
         25    1    1    2    0    0  0.40846995234E+02  0.48669760302E+02  0.54480640974E+02  0.15043391515E+03  0.12500000000E+03 0.  0.
</event>
<event>
 5    0  0.5619558E-005  0.3221127E+03  0.7546771E-02  0.1074681E+00
         21   -1    0    0  502  501  0.00000000000E+00  0.00000000000E+00  0.27091738612E+03  0.27091738612E+03  0.00000000000E+00 0. -1.
         21   -1    0    0  501  502 -0.00000000000E+00 -0.00000000000E+00 -0.38298231939E+03  0.38298231939E+03  0.00000000000E+00 0. -1.
         25    1    1    2    0    0  0.24522934329E+03  0.21406129301E+02 -0.65261773306E+02  0.28368953495E+03  0.12500000000E+03 0.  0.
         25    1    1    2    0    0 -0.15980502104E+03  0.23117102308E+02 -0.57192136161E+02  0.21205656229E+03  0.12500000000E+03 0.  0.
         25    1    1    2    0    0 -0.85424322249E+02 -0.44523231609E+02  0.10388976198E+02  0.15815360828E+03  0.12500000000E+03 0.  0.
</event>
<event>
 5    0  0.5619558E-005  0.2501853E+03  0.7546771E-02  0.1113188E+00
         21   -1    0    0  502  501  0.00000000000E+00  0.00000000000E+00  0.32443680586E+03  0.32443680586E+03  0.00000000000E+00 0.  1.
         21   -1    0    0  501  502 -0.00000000000E+00 -0.00000000000E+00 -0.19292712495E+03  0.19292712495E+03  0.00000000000E+00 0.  1.
         25    1    1    2    0    0  0.25767950694E+02 -0.19103299465E+02  0.14806591642E+02  0.12989672240E+03  0.12500000000E+03 0.  0.
         25    1    1    2    0    0 -0.14195199226E+03 -0.66392948171E+01  0.21810480095E+02  0.19051284834E+03  0.12500000000E+03 0.  0.
         25    1    1    2    0    0  0.11618404157E+03  0.25742594283E+02  0.94892609174E+02  0.19695436007E+03  0.12500000000E+03 0.  0.
</event>
<event>
 5    0  0.5619558E-005  0.5024009E+03  0.7546771E-02  0.1013154E+00
         21   -1    0    0  502  501  0.00000000000E+00  0.00000000000E+00  0.14419136978E+03  0.14419136978E+03  0.00000000000E+00 0. -1.
         21   -1    0    0  501  502 -0.00000000000E+00 -0.00000000000E+00 -0.17504978370E+04  0.17504978370E+04  0.00000000000E+00 0. -1.
         25    1    1    2    0    0  0.23505062014E+03 -0.12818007825E+03 -0.56949481942E+03  0.64158263368E+03  0.12500000000E+03 0.  0.
         25    1    1    2    0    0 -0.91018226287E+02 -0.20114437728E+03 -0.70124956299E+03  0.74573408640E+03  0.12500000000E+03 0.  0.
         25    1    1    2    0    0 -0.14403239386E+03  0.32932445553E+03 -0.33556208477E+03  0.50737248667E+03  0.12500000000E+03 0.  0.
</event>
<event>
 5    0  0.5619558E-005  0.2342335E+03  0.7546771E-02  0.1123695E+00
         21   -1    0    0  502  501  0.00000000000E+00  0.00000000000E+00  0.38017454742E+03  0.38017454742E+03  0.00000000000E+00 0.  1.
         21   -1    0    0  501  502 -0.00000000000E+00 -0.00000000000E+00 -0.14431614963E+03  0.14431614963E+03  0.00000000000E+00 0.  1.
         25    1    1    2    0    0 -0.10041906814E+03 -0.74740380251E+02  0.93404058339E+02  0.20004857360E+03  0.12500000000E+03 0.  0.
         25    1    1    2    0    0  0.71846940637E+02  0.25814958035E+01  0.65109075700E+02  0.15821769414E+03  0.12500000000E+03 0.  0.
         25    1    1    2    0    0  0.28572127508E+02  0.72158884448E+02  0.77345263750E+02  0.16622442931E+03  0.12500000000E+03 0.  0.
</event>
<event>
 5    0  0.5619558E-005  0.4753015E+03  0.7546771E-02  0.1020434E+00
         21   -1    0    0  502  501  0.00000000000E+00  0.00000000000E+00  0.10609473297E+04  0.10609473297E+04  0.00000000000E+00 0. -1.
         21   -1    0    0  501  502 -0.00000000000E+00 -0.00000000000E+00 -0.21293379707E+03  0.21293379707E+03  0.00000000000E+00 0. -1.
         25    1    1    2    0    0 -0.36494909281E+02 -0.25928378724E+03  0.45821097761E+03  0.54234883676E+03  0.12500000000E+03 0.  0.
         25    1    1    2    0    0  0.20465449064E+03  0.29744970386E+03  0.14911859881E+03  0.41014770922E+03  0.12500000000E+03 0.  0.
         25    1    1    2    0    0 -0.16815958136E+03 -0.38165916614E+02  0.24068395618E+03  0.32138458077E+03  0.12500000000E+03 0.  0.
</event>
<event>
 5    0  0.5619558E-005  0.2791046E+03  0.7546771E-02  0.1096179E+00
         21   -1    0    0  502  501  0.00000000000E+00  0.00000000000E+00  0.94715289184E+02  0.94715289184E+02  0.00000000000E+00 0. -1.
         21   -1    0    0  501  502 -0.00000000000E+00 -0.00000000000E+00 -0.82245844206E+03  0.82245844206E+03  0.00000000000E+00 0.  1.
         25    1    1    2    0    0 -0.11586340893E+03  0.13996005791E+03 -0.30041645308E+03  0.37267706210E+03  0.12500000000E+03 0.  0.
         25    1    1    2    0    0  0.11705110870E+03 -0.11102085012E+03 -0.21522177072E+03  0.29660074477E+03  0.12500000000E+03 0.  0.
         25    1    1    2    0    0 -0.11876997684E+01 -0.28939207791E+02 -0.21210492908E+03  0.24789592437E+03  0.12500000000E+03 0.  0.
</event>
<event>
 5    0  0.5935664E-005  0.2946242E+03  0.7546771E-02  0.1087959E+00
         21   -1    0    0  502  501  0.00000000000E+00  0.00000000000E+00  0.17718093919E+03  0.17718093919E+03  0.00000000000E+00 0. -1.
         21   -1    0    0  501  502 -0.00000000000E+00 -0.00000000000E+00 -0.48991395292E+03  0.48991395292E+03  0.00000000000E+00 0. -1.
         25    1    1    2    0    0 -0.34758805104E+02  0.13531341296E+03 -0.12146912816E+03  0.22337780408E+03  0.12500000000E+03 0.  0.
         25    1    1    2    0    0  0.98300304149E+02  0.99798211341E+01 -0.18156135963E+03  0.24156173939E+03  0.12500000000E+03 0.  0.
         25    1    1    2    0    0 -0.63541499045E+02 -0.14529323410E+03 -0.97025259312E+01  0.20215534864E+03  0.12500000000E+03 0.  0.
</event>
<event>
 5    0  0.5619558E-005  0.2048631E+03  0.7546771E-02  0.1145700E+00
         21   -1    0    0  502  501  0.00000000000E+00  0.00000000000E+00  0.13229480592E+04  0.13229480592E+04  0.00000000000E+00 0.  1.
         21   -1    0    0  501  502 -0.00000000000E+00 -0.00000000000E+00 -0.31723759778E+02  0.31723759778E+02  0.00000000000E+00 0.  1.
         25    1    1    2    0    0  0.13579823289E+02 -0.81164445237E+01  0.33347304809E+03  0.35648220443E+03  0.12500000000E+03 0.  0.
         25    1    1    2    0    0 -0.57190697892E+02 -0.72046307793E+01  0.61996979849E+03  0.63506710958E+03  0.12500000000E+03 0.  0.
         25    1    1    2    0    0  0.43610874603E+02  0.15321075303E+02  0.33778145285E+03  0.36312250498E+03  0.12500000000E+03 0.  0.
</event>
<event>
 5    0  0.5619558E-005  0.2291433E+03  0.7546771E-02  0.1127244E+00
         21   -1    0    0  502  501  0.00000000000E+00  0.00000000000E+00  0.94170799546E+03  0.94170799546E+03  0.00000000000E+00 0. -1.
         21   -1    0    0  501  502 -0.00000000000E+00 -0.00000000000E+00 -0.55756832576E+02  0.55756832576E+02  0.00000000000E+00 0. -1.
         25    1    1    2    0    0  0.23940636701E+02 -0.84794281043E+02  0.27308549739E+03  0.31299187381E+03  0.12500000000E+03 0.  0.
         25    1    1    2    0    0  0.24497408962E+02  0.73160803415E+02  0.44911712954E+03  0.47252917608E+03  0.12500000000E+03 0.  0.
         25    1    1    2    0    0 -0.48438045663E+02  0.11633477627E+02  0.16374853595E+03  0.21194377815E+03  0.12500000000E+03 0.  0.
</event>
<event>
 5    0  0.6857395E-005  0.4841654E+03  0.7546771E-02  0.1017997E+00
         21   -1    0    0  502  501  0.00000000000E+00  0.00000000000E+00  0.20000937036E+03  0.20000937036E+03  0.00000000000E+00 0. -1.
         21   -1    0    0  501  502 -0.00000000000E+00 -0.00000000000E+00 -0.11720256928E+04  0.11720256928E+04  0.00000000000E+00 0. -1.
         25    1    1    2    0    0 -0.56370851094E+02 -0.25497509401E+03 -0.58951345461E+03  0.65676562379E+03  0.12500000000E+03 0.  0.
         25    1    1    2    0    0  0.13623884743E+03  0.24591656909E+03 -0.45551759299E+03  0.54968832990E+03  0.12500000000E+03 0.  0.
         25    1    1    2    0    0 -0.79867996339E+02  0.90585249137E+01  0.73014725186E+02  0.16558110945E+03  0.12500000000E+03 0.  0.
</event>
<event>
 5    0  0.5619558E-005  0.2869998E+03  0.7546771E-02  0.1091926E+00
         21   -1    0    0  502  501  0.00000000000E+00  0.00000000000E+00  0.16648574751E+04  0.16648574751E+04  0.00000000000E+00 0.  1.
         21   -1    0    0  501  502 -0.00000000000E+00 -0.00000000000E+00 -0.49475027902E+02  0.49475027902E+02  0.00000000000E+00 0.  1.
         25    1    1    2    0    0 -0.12190701575E+03 -0.91351464266E+02  0.68642805849E+03  0.71415326786E+03  0.12500000000E+03 0.  0.
         25    1    1    2    0    0  0.13797896542E+03  0.86182801729E+02  0.33381685360E+03  0.39182184977E+03  0.12500000000E+03 0.  0.
         25    1    1    2    0    0 -0.16071949671E+02  0.51686625367E+01  0.59513753510E+03  0.60835738536E+03  0.12500000000E+03 0.  0.
</event>
<event>
 5    0  0.5619558E-005  0.3045023E+03  0.7546771E-02  0.1083011E+00
         21   -1    0    0  502  501  0.00000000000E+00  0.00000000000E+00  0.94802209653E+02  0.94802209653E+02  0.00000000000E+00 0. -1.
         21   -1    0    0  501  502 -0.00000000000E+00 -0.00000000000E+00 -0.97805380441E+03  0.97805380441E+03  0.00000000000E+00 0. -1.
         25    1    1    2    0    0  0.68166866030E+02 -0.15547232257E+03 -0.37685093128E+03  0.43181013086E+03  0.12500000000E+03 0.  0.
         25    1    1    2    0    0 -0.15165560817E+03  0.36192788270E+02 -0.28467532269E+03  0.34781371560E+03  0.12500000000E+03 0.  0.
         25    1    1    2    0    0  0.83488742141E+02  0.11927953430E+03 -0.22172534079E+03  0.29323216760E+03  0.12500000000E+03 0.  0.
</event>
<event>
 5    0  0.5619558E-005  0.2705195E+03  0.7546771E-02  0.1100983E+00
         21   -1    0    0  502  501  0.00000000000E+00  0.00000000000E+00  0.15301044079E+03  0.15301044079E+03  0.00000000000E+00 0.  1.
         21   -1    0    0  501  502 -0.00000000000E+00 -0.00000000000E+00 -0.47827335645E+03  0.47827335645E+03  0.00000000000E+00 0.  1.
         25    1    1    2    0    0  0.16725507989E+03 -0.76494573317E+02 -0.17131013685E+03  0.28070953757E+03  0.12500000000E+03 0.  0.
         25    1    1    2    0    0 -0.82442126496E+02  0.30223936088E+02 -0.10430412457E+03  0.18497173010E+03  0.12500000000E+03 0.  0.
         25    1    1    2    0    0 -0.84812953395E+02  0.46270637229E+02 -0.49648654240E+02  0.16560252957E+03  0.12500000000E+03 0.  0.
</event>
<event>
 5    0  0.5619558E-005  0.2234565E+03  0.7546771E-02  0.1131332E+00
         21   -1    0    0  502  501  0.00000000000E+00  0.00000000000E+00  0.12612398908E+04  0.12612398908E+04  0.00000000000E+00 0. -1.
         21   -1    0    0  501  502 -0.00000000000E+00 -0.00000000000E+00 -0.39590239229E+02  0.39590239229E+02  0.00000000000E+00 0. -1.
         25    1    1    2    0    0  0.74412399305E+02 -0.67745693848E+02  0.42238289486E+03  0.45183956675E+03  0.12500000000E+03 0.  0.
         25    1    1    2    0    0 -0.36688153084E+01  0.38767069584E+02  0.48300688222E+03  0.50043680336E+03  0.12500000000E+03 0.  0.
         25    1    1    2    0    0 -0.70743583997E+02  0.28978624264E+02  0.31625987448E+03  0.34855375991E+03  0.12500000000E+03 0.  0.
</event>
<event>
 5    0  0.6558423E-005  0.3221999E+03  0.7546771E-02  0.1074641E+00
         21   -1    0    0  502  501  0.00000000000E+00  0.00000000000E+00  0.54269400752E+03  0.54269400752E+03  0.00000000000E+00 0.  1.
         21   -1    0    0  501  502 -0.00000000000E+00 -0.00000000000E+00 -0.19129156214E+03  0.19129156214E+03  0.00000000000E+00 0.  1.
         25    1    1    2    0    0 -0.95907043325E+02  0.93443672796E+02  0.26107221810E+03  0.31892567160E+03  0.12500000000E+03 0.  0.
         25    1    1    2    0    0  0.10956303054E+03 -0.18463037155E+03  0.72011615940E+02  0.25865634458E+03  0.12500000000E+03 0.  0.
         25    1    1    2    0    0 -0.13655987214E+02  0.91186698756E+02  0.18318611339E+02  0.15640355347E+03  0.12500000000E+03 0.  0.
</event>
<event>
 5    0  0.5619558E-005  0.3253453E+03  0.7546771E-02  0.1073215E+00
         21   -1    0    0  502  501  0.00000000000E+00  0.00000000000E+00  0.29837239690E+03  0.29837239690E+03  0.00000000000E+00 0.  1.
         21   -1    0    0  501  502 -0.00000000000E+00 -0.00000000000E+00 -0.35475656794E+03  0.35475656794E+03  0.00000000000E+00 0.  1.
         25    1    1    2    0    0  0.10611974462E+03 -0.16540318530E+03 -0.29857633633E+02  0.23481075825E+03  0.12500000000E+03 0.  0.
         25    1    1    2    0    0  0.64149354340E+02  0.38581895762E+02  0.59465250694E+02  0.15736841609E+03  0.12500000000E+03 0.  0.
         25    1    1    2    0    0 -0.17026909896E+03  0.12682128954E+03 -0.85991788107E+02  0.26094979050E+03  0.12500000000E+03 0.  0.
</event>
<event>
 5    0  0.5619558E-005  0.2641169E+03  0.7546771E-02  0.1104695E+00
         21   -1    0    0  502  501  0.00000000000E+00  0.00000000000E+00  0.43496128849E+03  0.43496128849E+03  0.00000000000E+00 0.  1.
         21   -1    0    0  501  502 -0.00000000000E+00 -0.00000000000E+00 -0.16037683688E+03  0.16037683688E+03  0.00000000000E+00 0.  1.
         25    1    1    2    0    0 -0.35911351557E+02  0.91885651213E+02  0.18017985269E+03  0.24046283993E+03  0.12500000000E+03 0.  0.
         25    1    1    2    0    0  0.11248350727E+03  0.10763296886E+01  0.38492468265E+02  0.17251193584E+03  0.12500000000E+03 0.  0.
         25    1    1    2    0    0 -0.76572155716E+02 -0.92961980901E+02  0.55912130646E+02  0.18236334960E+03  0.12500000000E+03 0.  0.
</event>
<event>
 5    0  0.5619558E-005  0.3387393E+03  0.7546771E-02  0.1067334E+00
         21   -1    0    0  502  501  0.00000000000E+00  0.00000000000E+00  0.97309827411E+02  0.97309827411E+02  0.00000000000E+00 0. -1.
         21   -1    0    0  501  502 -0.00000000000E+00 -0.00000000000E+00 -0.11791645045E+04  0.11791645045E+04  0.00000000000E+00 0. -1.
         25    1    1    2    0    0 -0.20885249569E+03  0.51502995871E+02 -0.31734006224E+03  0.40323893493E+03  0.12500000000E+03 0.  0.
         25    1    1    2    0    0  0.18718425228E+03  0.80246016069E+02 -0.44281085630E+03  0.50317374917E+03  0.12500000000E+03 0.  0.
         25    1    1    2    0    0  0.21668243416E+02 -0.13174901194E+03 -0.32170375857E+03  0.37006164783E+03  0.12500000000E+03 0.  0.
</event>
<event>
 5    0  0.5619558E-005  0.2905627E+03  0.7546771E-02  0.1090056E+00
         21   -1    0    0  502  501  0.00000000000E+00  0.00000000000E+00  0.94033696442E+03  0.94033696442E+03  0.00000000000E+00 0. -1.
         21   -1    0    0  501  502 -0.00000000000E+00 -0.00000000000E+00 -0.89783409268E+02  0.89783409268E+02  0.00000000000E+00 0. -1.
         25    1    1    2    0    0  0.29845306574E+02  0.13013874130E+03  0.37168873786E+03  0.41425155662E+03  0.12500000000E+03 0.  0.
         25    1    1    2    0    0 -0.55531498579E+02 -0.14330767626E+03  0.11278582945E+03  0.22796157732E+03  0.12500000000E+03 0.  0.
         25    1    1    2    0    0  0.25686192006E+02  0.13168934959E+02  0.36607898784E+03  0.38790723975E+03  0.12500000000E+03 0.  0.
</event>
<event>
 5    0  0.5619558E-005  0.2306446E+03  0.7546771E-02  0.1126187E+00
         21   -1    0    0  502  501  0.00000000000E+00  0.00000000000E+00  0.76558598292E+03  0.76558598292E+03  0.00000000000E+00 0.  1.
         21   -1    0    0  501  502 -0.00000000000E+00 -0.00000000000E+00 -0.69485264395E+02  0.69485264395E+02  0.00000000000E+00 0.  1.
         25    1    1    2    0    0  0.10026714777E+03 -0.15831638428E+01  0.16940396218E+03  0.23319243069E+03  0.12500000000E+03 0.  0.
         25    1    1    2    0    0 -0.67677499891E+02  0.32562034039E+01  0.16503503649E+03  0.21783574115E+03  0.12500000000E+03 0.  0.
         25    1    1    2    0    0 -0.32589647880E+02 -0.16730395612E+01  0.36166171986E+03  0.38404307548E+03  0.12500000000E+03 0.  0.
</event>
<event>
 5    0  0.5619558E-005  0.2715749E+03  0.7546771E-02  0.1100382E+00
         21   -1    0    0  502  501  0.00000000000E+00  0.00000000000E+00  0.74911046429E+03  0.74911046429E+03  0.00000000000E+00 0. -1.
         21   -1    0    0  501  502 -0.00000000000E+00 -0.00000000000E+00 -0.98453985576E+02  0.98453985576E+02  0.00000000000E+00 0. -1.
         25    1    1    2    0    0  0.17765881225E+01  0.25497252438E+02  0.47862354136E+03  0.49533701708E+03  0.12500000000E+03 0.  0.
         25    1    1    2    0    0  0.48096128670E+02  0.32735770268E+02  0.15034190622E+03  0.20399156113E+03  0.12500000000E+03 0.  0.
         25    1    1    2    0    0 -0.49872716793E+02 -0.58233022706E+02  0.21691031140E+02  0.14823587166E+03  0.12500000000E+03 0.  0.
</event>
<event>
 5    0  0.5619558E-005  0.3196075E+03  0.7546771E-02  0.1075830E+00
         21   -1    0    0  502  501  0.00000000000E+00  0.00000000000E+00  0.57911426615E+03  0.57911426615E+03  0.00000000000E+00 0.  1.
         21   -1    0    0  501  502 -0.00000000000E+00 -0.00000000000E+00 -0.17638827507E+03  0.17638827507E+03  0.00000000000E+00 0.  1.
         25    1    1    2    0    0  0.86711504533E+02  0.83003343876E+02  0.64906433267E+02  0.18505751861E+03  0.12500000000E+03 0.  0.
         25    1    1    2    0    0  0.72231006823E+02  0.58401375676E+02  0.45833077950E+01  0.15580130211E+03  0.12500000000E+03 0.  0.
         25    1    1    2    0    0 -0.15894251136E+03 -0.14140471955E+03  0.33323625002E+03  0.41464372051E+03  0.12500000000E+03 0.  0.
</event>
<event>
 5    0  0.5619558E-005  0.2947149E+03  0.7546771E-02  0.1087913E+00
         21   -1    0    0  502  501  0.00000000000E+00  0.00000000000E+00  0.57516690511E+03  0.57516690511E+03  0.00000000000E+00 0. -1.
         21   -1    0    0  501  502 -0.00000000000E+00 -0.00000000000E+00 -0.15101161958E+03  0.15101161958E+03  0.00000000000E+00 0. -1.
         25    1    1    2    0    0  0.97160659349E+02  0.11947253838E+03  0.69787790364E+02  0.21025987928E+03  0.12500000000E+03 0.  0.
         25    1    1    2    0    0 -0.12760119039E+03 -0.14369492651E+03  0.29106012792E+03  0.37050140858E+03  0.12500000000E+03 0.  0.
         25    1    1    2    0    0  0.30440531041E+02  0.24222388127E+02  0.63307367250E+02  0.14541723682E+03  0.12500000000E+03 0.  0.
</event>
<event>
 5    0  0.5619558E-005  0.2852530E+03  0.7546771E-02  0.1092854E+00
         21   -1    0    0  502  501  0.00000000000E+00  0.00000000000E+00  0.55501712134E+02  0.55501712134E+02  0.00000000000E+00 0. -1.
         21   -1    0    0  501  502 -0.00000000000E+00 -0.00000000000E+00 -0.14660679999E+04  0.14660679999E+04  0.00000000000E+00 0. -1.
         25    1    1    2    0    0 -0.35281863573E+02 -0.12740411541E+03 -0.63193979887E+03  0.65760894757E+03  0.12500000000E+03 0.  0.
         25    1    1    2    0    0 -0.60036892164E+01  0.15036858362E+03 -0.24324064724E+03  0.31215023257E+03  0.12500000000E+03 0.  0.
         25    1    1    2    0    0  0.41285552789E+02 -0.22964468203E+02 -0.53538584163E+03  0.55181053187E+03  0.12500000000E+03 0.  0.
</event>
<event>
 5    0  0.5619558E-005  0.2672184E+03  0.7546771E-02  0.1102882E+00
         21   -1    0    0  502  501  0.00000000000E+00  0.00000000000E+00  0.16321315469E+04  0.16321315469E+04  0.00000000000E+00 0. -1.
         21   -1    0    0  501  502 -0.00000000000E+00 -0.00000000000E+00 -0.43749940195E+02  0.43749940195E+02  0.00000000000E+00 0. -1.
         25    1    1    2    0    0 -0.59794344677E+02 -0.14088820332E+03  0.85695431295E+03  0.87944331481E+03  0.12500000000E+03 0.  0.
         25    1    1    2    0    0  0.66778810391E+02  0.12345805810E+03  0.46489842895E+03  0.50145473462E+03  0.12500000000E+03 0.  0.
         25    1    1    2    0    0 -0.69844657149E+01  0.17430145213E+02  0.26652886484E+03  0.29498343770E+03  0.12500000000E+03 0.  0.
</event>
<event>
 5    0  0.5619558E-005  0.3023911E+03  0.7546771E-02  0.1084051E+00
         21   -1    0    0  502  501  0.00000000000E+00  0.00000000000E+00  0.10085433372E+03  0.10085433372E+03  0.00000000000E+00 0.  1.
         21   -1    0    0  501  502 -0.00000000000E+00 -0.00000000000E+00 -0.90665801659E+03  0.90665801659E+03  0.00000000000E+00 0.  1.
         25    1    1    2    0    0  0.13051530451E+03  0.87694551979E+02 -0.11208283924E+03  0.23002639416E+03  0.12500000000E+03 0.  0.
         25    1    1    2    0    0  0.12819840500E+02 -0.39415662817E+02 -0.42374922840E+03  0.44374131130E+03  0.12500000000E+03 0.  0.
         25    1    1    2    0    0 -0.14333514501E+03 -0.48278889162E+02 -0.26997161523E+03  0.33374464485E+03  0.12500000000E+03 0.  0.
</event>
<event>
 5    0  0.5619558E-005  0.2993345E+03  0.7546771E-02  0.1085574E+00
         21   -1    0    0  502  501  0.00000000000E+00  0.00000000000E+00  0.36990648856E+03  0.36990648856E+03  0.00000000000E+00 0.  1.
         21   -1    0    0  501  502 -0.00000000000E+00 -0.00000000000E+00 -0.24222653345E+03  0.24222653345E+03  0.00000000000E+00 0.  1.
         25    1    1    2    0    0 -0.32312271029E+02  0.83649272843E+02  0.58235346883E+02  0.16449206465E+03  0.12500000000E+03 0.  0.
         25    1    1    2    0    0 -0.36295115313E+02  0.18727126238E+02 -0.12795581758E+03  0.18348223866E+03  0.12500000000E+03 0.  0.
         25    1    1    2    0    0  0.68607386342E+02 -0.10237639908E+03  0.19740042581E+03  0.26415871869E+03  0.12500000000E+03 0.  0.
</event>
<event>
 5    0  0.5937102E-005  0.5212430E+03  0.7546771E-02  0.1008378E+00
         21   -1    0    0  502  501  0.00000000000E+00  0.00000000000E+00  0.81045401368E+03  0.81045401368E+03  0.00000000000E+00 0. -1.
         21   -1    0    0  501  502 -0.00000000000E+00 -0.00000000000E+00 -0.33523707595E+03  0.33523707595E+03  0.00000000000E+00 0. -1.
         25    1    1    2    0    0  0.66555579022E+01  0.34104667248E+03  0.98694310118E+02  0.37646074976E+03  0.12500000000E+03 0.  0.
         25    1    1    2    0    0  0.19310112984E+03 -0.31934291947E+03  0.10155678709E+03  0.40645630462E+03  0.12500000000E+03 0.  0.
         25    1    1    2    0    0 -0.19975668774E+03 -0.21703753017E+02  0.27496584053E+03  0.36277403525E+03  0.12500000000E+03 0.  0.
</event>
<event>
 5    0  0.5619558E-005  0.4269025E+03  0.7546771E-02  0.1034843E+00
         21   -1    0    0  502  501  0.00000000000E+00  0.00000000000E+00  0.10658824149E+04  0.10658824149E+04  0.00000000000E+00 0.  1.
         21   -1    0    0  501  502 -0.00000000000E+00 -0.00000000000E+00 -0.17098111946E+03  0.17098111946E+03  0.00000000000E+00 0.  1.
         25    1    1    2    0    0 -0.54006649430E+02  0.13364242022E+03 -0.55004571664E+02  0.19856363607E+03  0.12500000000E+03 0.  0.
         25    1    1    2    0    0 -0.26219947805E+02 -0.91646040461E+02  0.82470451756E+03  0.83955287128E+03  0.12500000000E+03 0.  0.
         25    1    1    2    0    0  0.80226597235E+02 -0.41996379754E+02  0.12520134954E+03  0.19874702701E+03  0.12500000000E+03 0.  0.
</event>
<event>
 5    0  0.5619558E-005  0.2801848E+03  0.7546771E-02  0.1095588E+00
         21   -1    0    0  502  501  0.00000000000E+00  0.00000000000E+00  0.14291899614E+03  0.14291899614E+03  0.00000000000E+00 0.  1.
         21   -1    0    0  501  502 -0.00000000000E+00 -0.00000000000E+00 -0.54928692049E+03  0.54928692049E+03  0.00000000000E+00 0.  1.
         25    1    1    2    0    0  0.13243375291E+02 -0.15211209299E+03 -0.10749107040E+03  0.22470604362E+03  0.12500000000E+03 0.  0.
         25    1    1    2    0    0 -0.94713094999E+02  0.23604129170E+02 -0.16813042026E+03  0.23112888936E+03  0.12500000000E+03 0.  0.
         25    1    1    2    0    0  0.81469719708E+02  0.12850796382E+03 -0.13074643368E+03  0.23637098366E+03  0.12500000000E+03 0.  0.
</event>
<event>
 5    0  0.5619558E-005  0.5616919E+03  0.7546771E-02  0.9988234E-01
         21   -1    0    0  502  501  0.00000000000E+00  0.00000000000E+00  0.12083901894E+03  0.12083901894E+03  0.00000000000E+00 0. -1.
         21   -1    0    0  501  502 -0.00000000000E+00 -0.00000000000E+00 -0.26108930604E+04  0.26108930604E+04  0.00000000000E+00 0. -1.
         25    1    1    2    0    0  0.21398951637E+03  0.60940432663E+02 -0.72908895163E+03  0.77246420554E+03  0.12500000000E+03 0.  0.
         25    1    1    2    0    0 -0.50770781774E+03 -0.17232850807E+02 -0.12518812211E+04  0.13567961494E+04  0.12500000000E+03 0.  0.
         25    1    1    2    0    0  0.29371830137E+03 -0.43707581856E+02 -0.50908386873E+03  0.60247172437E+03  0.12500000000E+03 0.  0.
</event>
<event>
 5    0  0.5619558E-005  0.2594383E+03  0.7546771E-02  0.1107481E+00
         21   -1    0    0  502  501  0.00000000000E+00  0.00000000000E+00  0.39102660664E+03  0.39102660664E+03  0.00000000000E+00 0.  1.
         21   -1    0    0  501  502 -0.00000000000E+00 -0.00000000000E+00 -0.17213209882E+03  0.17213209882E+03  0.00000000000E+00 0.  1.
         25    1    1    2    0    0 -0.78414414066E+02  0.64307109402E+02  0.74141416885E+02  0.17721787255E+03  0.12500000000E+03 0.  0.
         25    1    1    2    0    0 -0.12715385466E+01 -0.12019970806E+03  0.14723954295E+03  0.22749520794E+03  0.12500000000E+03 0.  0.
         25    1    1    2    0    0  0.79685952613E+02  0.55892598654E+02 -0.24864520101E+01  0.15844562497E+03  0.12500000000E+03 0.  0.
</event>
<event>
 5    0  0.5619558E-005  0.3376753E+03  0.7546771E-02  0.1067790E+00
         21   -1    0    0  502  501  0.00000000000E+00  0.00000000000E+00  0.28970372681E+03  0.28970372681E+03  0.00000000000E+00 0. -1.
         21   -1    0    0  501  502 -0.00000000000E+00 -0.00000000000E+00 -0.39359042550E+03  0.39359042550E+03  0.00000000000E+00 0. -1.
         25    1    1    2    0    0 -0.74491228676E+02 -0.23124592601E+03  0.54183116593E+02  0.27853982044E+03  0.12500000000E+03 0.  0.
         25    1    1    2    0    0 -0.18693251193E+02  0.14816079935E+03 -0.99057066083E+02  0.21849110381E+03  0.12500000000E+03 0.  0.
         25    1    1    2    0    0  0.93184479869E+02  0.83085126656E+02 -0.59012749195E+02  0.18626322806E+03  0.12500000000E+03 0.  0.
</event>
<event>
 5    0  0.5619558E-005  0.3284686E+03  0.7546771E-02  0.1071816E+00
         21   -1    0    0  502  501  0.00000000000E+00  0.00000000000E+00  0.43176762377E+03  0.43176762377E+03  0.00000000000E+00 0. -1.
         21   -1    0    0  501  502 -0.00000000000E+00 -0.00000000000E+00 -0.24988356247E+03  0.24988356247E+03  0.00000000000E+00 0. -1.
         25    1    1    2    0    0 -0.23006202205E+02 -0.23018807325E+03  0.63684525349E+02  0.27054861518E+03  0.12500000000E+03 0.  0.
         25    1    1    2    0    0  0.36163898758E+02  0.19818973604E+03  0.14602501125E+03  0.27845161690E+03  0.12500000000E+03 0.  0.
         25    1    1    2    0    0 -0.13157696553E+02  0.31998337207E+02 -0.27825475299E+02  0.13265095415E+03  0.12500000000E+03 0.  0.
</event>
<event>
 5    0  0.5619558E-005  0.3536985E+03  0.7546771E-02  0.1061107E+00
         21   -1    0    0  502  501  0.00000000000E+00  0.00000000000E+00  0.11043576478E+03  0.11043576478E+03  0.00000000000E+00 0.  1.
         21   -1    0    0  501  502 -0.00000000000E+00 -0.00000000000E+00 -0.11328090691E+04  0.11328090691E+04  0.00000000000E+00 0.  1.
         25    1    1    2    0    0  0.20796807293E+03 -0.15804824190E+03 -0.58653281869E+03  0.65412209374E+03  0.12500000000E+03 0.  0.
         25    1    1    2    0    0 -0.79838785333E+02  0.15839990738E+03 -0.25135758342E+03  0.33206986771E+03  0.12500000000E+03 0.  0.
         25    1    1    2    0    0 -0.12812928760E+03 -0.35166548112E+00 -0.18448290216E+03  0.25705287238E+03  0.12500000000E+03 0.  0.
</event>
<event>
 5    0  0.5619558E-005  0.2266765E+03  0.7546771E-02  0.1129001E+00
         21   -1    0    0  502  501  0.00000000000E+00  0.00000000000E+00  0.23199634308E+02  0.23199634308E+02  0.00000000000E+00 0. -1.
         21   -1    0    0  501  502 -0.00000000000E+00 -0.00000000000E+00 -0.22147857848E+04  0.22147857848E+04  0.00000000000E+00 0. -1.
         25    1    1    2    0    0  0.22111451755E+02 -0.34960451228E+01 -0.12579648465E+04  0.12643582141E+04  0.12500000000E+03 0.  0.
         25    1    1    2    0    0 -0.15802973791E+02 -0.47607433871E+02 -0.56974386360E+03  0.58544792412E+03  0.12500000000E+03 0.  0.
         25    1    1    2    0    0 -0.63084779640E+01  0.51103478993E+02 -0.36387744042E+03  0.38817928088E+03  0.12500000000E+03 0.  0.
</event>
<event>
 5    0  0.5619558E-005  0.2523011E+03  0.7546771E-02  0.1111859E+00
         21   -1    0    0  502  501  0.00000000000E+00  0.00000000000E+00  0.30624382960E+03  0.30624382960E+03  0.00000000000E+00 0. -1.
         21   -1    0    0  501  502 -0.00000000000E+00 -0.00000000000E+00 -0.20786008981E+03  0.20786008981E+03  0.00000000000E+00 0. -1.
         25    1    1    2    0    0 -0.74161774575E+02  0.19450375774E+02 -0.73104294064E+02  0.16385213986E+03  0.12500000000E+03 0.  0.
         25    1    1    2    0    0 -0.36104159076E+02 -0.42823528779E+02  0.81575607872E+02  0.15942692595E+03  0.12500000000E+03 0.  0.
         25    1    1    2    0    0  0.11026593365E+03  0.23373153005E+02  0.89912425976E+02  0.19082485360E+03  0.12500000000E+03 0.  0.
</event>
<event>
 5    0  0.5619558E-005  0.2419923E+03  0.7546771E-02  0.1118473E+00
         21   -1    0    0  502  501  0.00000000000E+00  0.00000000000E+00  0.15229971609E+03  0.15229971609E+03  0.00000000000E+00 0. -1.
         21   -1    0    0  501  502 -0.00000000000E+00 -0.00000000000E+00 -0.38450689024E+03  0.38450689024E+03  0.00000000000E+00 0. -1.
         25    1    1    2    0    0 -0.51029022193E+02 -0.95232990988E+02 -0.94084722646E+02  0.19013210858E+03  0.12500000000E+03 0.  0.
         25    1    1    2    0    0 -0.23003893982E+01 -0.15970904633E+02 -0.11302014553E+03  0.16928944114E+03  0.12500000000E+03 0.  0.
         25    1    1    2    0    0  0.53329411591E+02  0.11120389562E+03 -0.25102305976E+02  0.17738505661E+03  0.12500000000E+03 0.  0.
</event>
<event>
 5    0  0.5619558E-005  0.3113974E+03  0.7546771E-02  0.1079678E+00
         21   -1    0    0  502  501  0.00000000000E+00  0.00000000000E+00  0.32706217253E+03  0.32706217253E+03  0.00000000000E+00 0. -1.
         21   -1    0    0  501  502 -0.00000000000E+00 -0.00000000000E+00 -0.29648283798E+03  0.29648283798E+03  0.00000000000E+00 0. -1.
         25    1    1    2    0    0  0.23394171237E+03 -0.34254789823E+02 -0.28667529017E+02  0.26897758760E+03  0.12500000000E+03 0.  0.
         25    1    1    2    0    0 -0.15552080802E+03  0.24787485338E+02  0.23413995616E+02  0.20242123492E+03  0.12500000000E+03 0.  0.
         25    1    1    2    0    0 -0.78420904348E+02  0.94673044850E+01  0.35832867948E+02  0.15214618798E+03  0.12500000000E+03 0.  0.
</event>
<event>
 5    0  0.5619558E-005  0.2930416E+03  0.7546771E-02  0.1088772E+00
         21   -1    0    0  502  501  0.00000000000E+00  0.00000000000E+00  0.21219585659E+03  0.21219585659E+03  0.00000000000E+00 0. -1.
         21   -1    0    0  501  502 -0.00000000000E+00 -0.00000000000E+00 -0.40468912240E+03  0.40468912240E+03  0.00000000000E+00 0. -1.
         25    1    1    2    0    0 -0.17960843391E+03 -0.15207882367E+02 -0.10154889231E+02  0.21958731974E+03  0.12500000000E+03 0.  0.
         25    1    1    2    0    0  0.17827570808E+03 -0.23187249380E+02 -0.13978252578E+03  0.25977688722E+03  0.12500000000E+03 0.  0.
         25    1    1    2    0    0  0.13327258288E+01  0.38395131747E+02 -0.42555850807E+02  0.13752077202E+03  0.12500000000E+03 0.  0.
</event>
<event>
 5    0  0.6542846E-005  0.3648029E+03  0.7546771E-02  0.1056698E+00
         21   -1    0    0  502  501  0.00000000000E+00  0.00000000000E+00  0.22108251728E+03  0.22108251728E+03  0.00000000000E+00 0.  1.
         21   -1    0    0  501  502 -0.00000000000E+00 -0.00000000000E+00 -0.60195257347E+03  0.60195257347E+03  0.00000000000E+00 0.  1.
         25    1    1    2    0    0 -0.72961028674E+02 -0.32206194644E+02  0.11774634478E+03  0.18934030840E+03  0.12500000000E+03 0.  0.
         25    1    1    2    0    0 -0.14456069835E+02 -0.11109684452E+03 -0.30720711432E+03  0.35007527463E+03  0.12500000000E+03 0.  0.
         25    1    1    2    0    0  0.87417098509E+02  0.14330303916E+03 -0.19140928664E+03  0.28361950772E+03  0.12500000000E+03 0.  0.
</event>
<event>
 5    0  0.5619558E-005  0.3055820E+03  0.7546771E-02  0.1082483E+00
         21   -1    0    0  502  501  0.00000000000E+00  0.00000000000E+00  0.21226401091E+03  0.21226401091E+03  0.00000000000E+00 0. -1.
         21   -1    0    0  501  502 -0.00000000000E+00 -0.00000000000E+00 -0.43992548391E+03  0.43992548391E+03  0.00000000000E+00 0. -1.
         25    1    1    2    0    0  0.77064221504E+01  0.81328141291E+01 -0.11778604633E+03  0.17211648474E+03  0.12500000000E+03 0.  0.
         25    1    1    2    0    0  0.99639948214E+01 -0.18901092707E+03  0.13701903709E+02  0.22723809960E+03  0.12500000000E+03 0.  0.
         25    1    1    2    0    0 -0.17670416972E+02  0.18087811294E+03 -0.12357733037E+03  0.25283491048E+03  0.12500000000E+03 0.  0.
</event>
<event>
 5    0  0.5619558E-005  0.3307630E+03  0.7546771E-02  0.1070800E+00
         21   -1    0    0  502  501  0.00000000000E+00  0.00000000000E+00  0.46707489192E+02  0.46707489192E+02  0.00000000000E+00 0. -1.
         21   -1    0    0  501  502 -0.00000000000E+00 -0.00000000000E+00 -0.23423255011E+04  0.23423255011E+04  0.00000000000E+00 0. -1.
         25    1    1    2    0    0 -0.19454664864E+02 -0.23665974822E+02 -0.94696560205E+03  0.95567118499E+03  0.12500000000E+03 0.  0.
         25    1    1    2    0    0  0.69310826447E+02 -0.18693816145E+03 -0.67475130360E+03  0.71460771657E+03  0.12500000000E+03 0.  0.
         25    1    1    2    0    0 -0.49856161583E+02  0.21060413627E+03 -0.67390110628E+03  0.71875408876E+03  0.12500000000E+03 0.  0.
</event>
<event>
 5    0  0.5619558E-005  0.4442240E+03  0.7546771E-02  0.1029459E+00
         21   -1    0    0  502  501  0.00000000000E+00  0.00000000000E+00  0.93625249772E+03  0.93625249772E+03  0.00000000000E+00 0.  1.
         21   -1    0    0  501  502 -0.00000000000E+00 -0.00000000000E+00 -0.21077109920E+03  0.21077109920E+03  0.00000000000E+00 0.  1.
         25    1    1    2    0    0  0.57973103053E+02 -0.15694687247E+03  0.75850661047E+03  0.78673405899E+03  0.12500000000E+03 0.  0.
         25    1    1    2    0    0 -0.77455760090E+02 -0.11137299996E+02 -0.26359997296E+02  0.14981082631E+03  0.12500000000E+03 0.  0.
         25    1    1    2    0    0  0.19482657037E+02  0.16808417247E+03 -0.66652146499E+01  0.21047871162E+03  0.12500000000E+03 0.  0.
</event>
<event>
 5    0  0.5619558E-005  0.3307007E+03  0.7546771E-02  0.1070827E+00
         21   -1    0    0  502  501  0.00000000000E+00  0.00000000000E+00  0.66028701593E+02  0.66028701593E+02  0.00000000000E+00 0.  1.
         21   -1    0    0  501  502 -0.00000000000E+00 -0.00000000000E+00 -0.16562942280E+04  0.16562942280E+04  0.00000000000E+00 0.  1.
         25    1    1    2    0    0 -0.17465783541E+01  0.10135961604E+03 -0.20564050557E+03  0.26113184377E+03  0.12500000000E+03 0.  0.
         25    1    1    2    0    0 -0.11928607806E+03 -0.18584717236E+03 -0.98581750347E+03  0.10179535795E+04  0.12500000000E+03 0.  0.
         25    1    1    2    0    0  0.12103265642E+03  0.84487556324E+02 -0.39880751739E+03  0.44323750633E+03  0.12500000000E+03 0.  0.
</event>
<event>
 5    0  0.5812067E-005  0.3235510E+03  0.7546771E-02  0.1074027E+00
         21   -1    0    0  502  501  0.00000000000E+00  0.00000000000E+00  0.73610540678E+03  0.73610540678E+03  0.00000000000E+00 0. -1.
         21   -1    0    0  501  502 -0.00000000000E+00 -0.00000000000E+00 -0.14221498572E+03  0.14221498572E+03  0.00000000000E+00 0. -1.
         25    1    1    2    0    0 -0.96173069132E+02 -0.11998977509E+03  0.22682867240E+03  0.30120267591E+03  0.12500000000E+03 0.  0.
         25    1    1    2    0    0 -0.26174761080E+02  0.23740506182E+02  0.35396094351E+03  0.37704386918E+03  0.12500000000E+03 0.  0.
         25    1    1    2    0    0  0.12234783021E+03  0.96249268911E+02  0.13100805137E+02  0.20007384741E+03  0.12500000000E+03 0.  0.
</event>
<event>
 5    0  0.5619558E-005  0.3246158E+03  0.7546771E-02  0.1073544E+00
         21   -1    0    0  502  501  0.00000000000E+00  0.00000000000E+00  0.23822274728E+03  0.23822274728E+03  0.00000000000E+00 0. -1.
         21   -1    0    0  501  502 -0.00000000000E+00 -0.00000000000E+00 -0.44233987108E+03  0.44233987108E+03  0.00000000000E+00 0. -1.
         25    1    1    2    0    0 -0.36477683110E+01  0.55458998975E+02 -0.11208669920E+03  0.17685427594E+03  0.12500000000E+03 0.  0.
         25    1    1    2    0    0  0.62192295423E+02  0.13973202938E+03 -0.16106861674E+03  0.25487452000E+03  0.12500000000E+03 0.  0.
         25    1    1    2    0    0 -0.58544527112E+02 -0.19519102836E+03  0.69038192136E+02  0.24883382242E+03  0.12500000000E+03 0.  0.
</event>
<event>
 5    0  0.5619558E-005  0.2631898E+03  0.7546771E-02  0.1105242E+00
         21   -1    0    0  502  501  0.00000000000E+00  0.00000000000E+00  0.49862702870E+03  0.49862702870E+03  0.00000000000E+00 0. -1.
         21   -1    0    0  501  502 -0.00000000000E+00 -0.00000000000E+00 -0.13891922335E+03  0.13891922335E+03  0.00000000000E+00 0. -1.
         25    1    1    2    0    0  0.91588077985E+02 -0.95386098515E+02  0.10912975554E+03  0.21218196757E+03  0.12500000000E+03 0.  0.
         25    1    1    2    0    0 -0.56757123155E+01  0.10982601762E+03  0.20942742008E+03  0.26754216890E+03  0.12500000000E+03 0.  0.
         25    1    1    2    0    0 -0.85912365669E+02 -0.14439919110E+02  0.41150629730E+02  0.15782211558E+03  0.12500000000E+03 0.  0.
</event>
<event>
 5    0  0.5619558E-005  0.2138728E+03  0.7546771E-02  0.1138535E+00
         21   -1    0    0  502  501  0.00000000000E+00  0.00000000000E+00  0.16289416968E+04  0.16289416968E+04  0.00000000000E+00 0.  1.
         21   -1    0    0  501  502 -0.00000000000E+00 -0.00000000000E+00 -0.28080557975E+02  0.28080557975E+02  0.00000000000E+00 0.  1.
         25    1    1    2    0    0 -0.67362738215E+02 -0.98465094675E+01  0.45336686687E+03  0.47518544614E+03  0.12500000000E+03 0.  0.
         25    1    1    2    0    0  0.71046540766E+02  0.48110672658E+02  0.58304523004E+03  0.60243587879E+03  0.12500000000E+03 0.  0.
         25    1    1    2    0    0 -0.36838025509E+01 -0.38264163191E+02  0.56444904188E+03  0.57940092981E+03  0.12500000000E+03 0.  0.
</event>
<event>
 5    0  0.5619558E-005  0.3013852E+03  0.7546771E-02  0.1084550E+00
         21   -1    0    0  502  501  0.00000000000E+00  0.00000000000E+00  0.21839420548E+03  0.21839420548E+03  0.00000000000E+00 0. -1.
         21   -1    0    0  501  502 -0.00000000000E+00 -0.00000000000E+00 -0.41591331924E+03  0.41591331924E+03  0.00000000000E+00 0. -1.
         25    1    1    2    0    0  0.14873172921E+03  0.39909166728E+02 -0.16744089153E+03  0.25956756543E+03  0.12500000000E+03 0.  0.
         25    1    1    2    0    0 -0.18270385222E+03  0.17259690287E+02 -0.60034693614E+02  0.23001686669E+03  0.12500000000E+03 0.  0.
         25    1    1    2    0    0  0.33972123010E+02 -0.57168857015E+02  0.29956471385E+02  0.14472309260E+03  0.12500000000E+03 0.  0.
</event>
<event>
 5    0  0.5619558E-005  0.3186765E+03  0.7546771E-02  0.1076260E+00
         21   -1    0    0  502  501  0.00000000000E+00  0.00000000000E+00  0.41096816584E+03  0.41096816584E+03  0.00000000000E+00 0.  1.
         21   -1    0    0  501  502 -0.00000000000E+00 -0.00000000000E+00 -0.24711088774E+03  0.24711088774E+03  0.00000000000E+00 0.  1.
         25    1    1    2    0    0  0.11531401034E+03  0.34258203469E+02  0.19357531774E+03  0.25993720227E+03  0.12500000000E+03 0.  0.
         25    1    1    2    0    0 -0.91957423443E+02 -0.15658205557E+03 -0.11407404907E+02  0.22074699713E+03  0.12500000000E+03 0.  0.
         25    1    1    2    0    0 -0.23356586894E+02  0.12232385210E+03 -0.18310634736E+02  0.17739485418E+03  0.12500000000E+03 0.  0.
</event>
<event>
 5    0  0.5619558E-005  0.3881479E+03  0.7546771E-02  0.1047963E+00
         21   -1    0    0  502  501  0.00000000000E+00  0.00000000000E+00  0.89219834369E+03  0.89219834369E+03  0.00000000000E+00 0. -1.
         21   -1    0    0  501  502 -0.00000000000E+00 -0.00000000000E+00 -0.16886245203E+03  0.16886245203E+03  0.00000000000E+00 0. -1.
         25    1    1    2    0    0 -0.42534404374E+02  0.25897862594E+03  0.49166246218E+03  0.57117079841E+03  0.12500000000E+03 0.  0.
         25    1    1    2    0    0  0.86125263002E+00 -0.39872683358E+02 -0.18111776415E+02  0.13245228982E+03  0.12500000000E+03 0.  0.
         25    1    1    2    0    0  0.41673151744E+02 -0.21910594258E+03  0.24978520589E+03  0.35743770749E+03  0.12500000000E+03 0.  0.
</event>
<event>
 5    0  0.5619558E-005  0.3406368E+03  0.7546771E-02  0.1066525E+00
         21   -1    0    0  502  501  0.00000000000E+00  0.00000000000E+00  0.15307256418E+04  0.15307256418E+04  0.00000000000E+00 0.  1.
         21   -1    0    0  501  502 -0.00000000000E+00 -0.00000000000E+00 -0.75802899627E+02  0.75802899627E+02  0.00000000000E+00 0.  1.
         25    1    1    2    0    0 -0.30870364578E+02  0.13214154587E+03  0.10997479995E+04  0.11151165993E+04  0.12500000000E+03 0.  0.
         25    1    1    2    0    0 -0.55657991084E+02 -0.11755014561E+02  0.95312195491E+02  0.16716879777E+03  0.12500000000E+03 0.  0.
         25    1    1    2    0    0  0.86528355662E+02 -0.12038653131E+03  0.25986254718E+03  0.32424314438E+03  0.12500000000E+03 0.  0.
</event>
<event>
 5    0  0.6997176E-005  0.3517870E+03  0.7546771E-02  0.1061884E+00
         21   -1    0    0  502  501  0.00000000000E+00  0.00000000000E+00  0.52947232334E+03  0.52947232334E+03  0.00000000000E+00 0. -1.
         21   -1    0    0  501  502 -0.00000000000E+00 -0.00000000000E+00 -0.23373093180E+03  0.23373093180E+03  0.00000000000E+00 0. -1.
         25    1    1    2    0    0 -0.66532948613E+02  0.54047949411E+02 -0.12515247369E+03  0.19656031074E+03  0.12500000000E+03 0.  0.
         25    1    1    2    0    0 -0.10239795881E+03 -0.17813027798E+02  0.22101709909E+03  0.27436509257E+03  0.12500000000E+03 0.  0.
         25    1    1    2    0    0  0.16893090743E+03 -0.36234921613E+02  0.19987676615E+03  0.29227785183E+03  0.12500000000E+03 0.  0.
</event>
<event>
 5    0  0.5619558E-005  0.2733749E+03  0.7546771E-02  0.1099363E+00
         21   -1    0    0  502  501  0.00000000000E+00  0.00000000000E+00  0.50113656922E+03  0.50113656922E+03  0.00000000000E+00 0. -1.
         21   -1    0    0  501  502 -0.00000000000E+00 -0.00000000000E+00 -0.14912873434E+03  0.14912873434E+03  0.00000000000E+00 0. -1.
         25    1    1    2    0    0 -0.58331676113E+02  0.87929722394E+02  0.12145421199E+03  0.20374087987E+03  0.12500000000E+03 0.  0.
         25    1    1    2    0    0 -0.90219961074E+02  0.27373578006E+02  0.96957949605E+02  0.18415970824E+03  0.12500000000E+03 0.  0.
         25    1    1    2    0    0  0.14855163719E+03 -0.11530330040E+03  0.13359567329E+03  0.26236471545E+03  0.12500000000E+03 0.  0.
</event>
<event>
 5    0  0.5801463E-005  0.3461575E+03  0.7546771E-02  0.1064203E+00
         21   -1    0    0  502  501  0.00000000000E+00  0.00000000000E+00  0.50524035597E+03  0.50524035597E+03  0.00000000000E+00 0.  1.
         21   -1    0    0  501  502 -0.00000000000E+00 -0.00000000000E+00 -0.23716439190E+03  0.23716439190E+03  0.00000000000E+00 0.  1.
         25    1    1    2    0    0 -0.12552734116E+03 -0.17418749714E+03  0.10670506982E+03  0.27038744325E+03  0.12500000000E+03 0.  0.
         25    1    1    2    0    0  0.82961886561E+02  0.99947615159E+02 -0.71730082368E+02  0.19401650732E+03  0.12500000000E+03 0.  0.
         25    1    1    2    0    0  0.42565454601E+02  0.74239881984E+02  0.23310097661E+03  0.27800079730E+03  0.12500000000E+03 0.  0.
</event>
<event>
 5    0  0.5619558E-005  0.3562199E+03  0.7546771E-02  0.1060091E+00
         21   -1    0    0  502  501  0.00000000000E+00  0.00000000000E+00  0.41633289001E+03  0.41633289001E+03  0.00000000000E+00 0. -1.
         21   -1    0    0  501  502 -0.00000000000E+00 -0.00000000000E+00 -0.30478643711E+03  0.30478643711E+03  0.00000000000E+00 0. -1.
         25    1    1    2    0    0  0.19230772069E+03 -0.18883199268E+03 -0.16054774231E+02  0.29752737130E+03  0.12500000000E+03 0.  0.
         25    1    1    2    0    0 -0.12036391441E+03  0.16821818801E+03  0.13661744430E+03  0.27762232755E+03  0.12500000000E+03 0.  0.
         25    1    1    2    0    0 -0.71943806280E+02  0.20613804676E+02 -0.90162171684E+01  0.14596962827E+03  0.12500000000E+03 0.  0.
</event>
<event>
 5    0  0.5619558E-005  0.3890940E+03  0.7546771E-02  0.1047623E+00
         21   -1    0    0  502  501  0.00000000000E+00  0.00000000000E+00  0.56243036086E+02  0.56243036086E+02  0.00000000000E+00 0.  1.
         21   -1    0    0  501  502 -0.00000000000E+00 -0.00000000000E+00 -0.26917851300E+04  0.26917851300E+04  0.00000000000E+00 0.  1.
         25    1    1    2    0    0  0.84326542214E+02  0.32503838995E+02 -0.12069849254E+04  0.12168011651E+04  0.12500000000E+03 0.  0.
         25    1    1    2    0    0  0.70778912691E+02 -0.11571218437E+03 -0.12101639094E+04  0.12241407810E+04  0.12500000000E+03 0.  0.
         25    1    1    2    0    0 -0.15510545490E+03  0.83208345375E+02 -0.21839325917E+03  0.30708622003E+03  0.12500000000E+03 0.  0.
</event>
<event>
 5    0  0.5619558E-005  0.2931468E+03  0.7546771E-02  0.1088718E+00
         21   -1    0    0  502  501  0.00000000000E+00  0.00000000000E+00  0.13177413361E+04  0.13177413361E+04  0.00000000000E+00 0. -1.
         21   -1    0    0  501  502 -0.00000000000E+00 -0.00000000000E+00 -0.65213883655E+02  0.65213883655E+02  0.00000000000E+00 0. -1.
         25    1    1    2    0    0  0.31399380430E+02 -0.73074331172E+02  0.30168401606E+03  0.33610121171E+03  0.12500000000E+03 0.  0.
         25    1    1    2    0    0  0.10027668461E+03  0.98816828920E+02  0.20303508514E+03  0.27689063717E+03  0.12500000000E+03 0.  0.
         25    1    1    2    0    0 -0.13167606504E+03 -0.25742497748E+02  0.74780835128E+03  0.76996337090E+03  0.12500000000E+03 0.  0.
</event>
<event>
 5    0  0.5619558E-005  0.3800550E+03  0.7546771E-02  0.1050913E+00
         21   -1    0    0  502  501  0.00000000000E+00  0.00000000000E+00  0.63095158875E+03  0.63095158875E+03  0.00000000000E+00 0.  1.
         21   -1    0    0  501  502 -0.00000000000E+00 -0.00000000000E+00 -0.22892689759E+03  0.22892689759E+03  0.00000000000E+00 0.  1.
         25    1    1    2    0    0 -0.10674033313E+03 -0.10840622495E+03 -0.97823163686E+02  0.21986309304E+03  0.12500000000E+03 0.  0.
         25    1    1    2    0    0  0.12295987847E+03  0.15741426266E+01  0.42277004843E+03  0.45769107866E+03  0.12500000000E+03 0.  0.
         25    1    1    2    0    0 -0.16219545337E+02  0.10683208233E+03  0.77077806419E+02  0.18232431464E+03  0.12500000000E+03 0.  0.
</event>
<event>
 5    0  0.5619558E-005  0.3052721E+03  0.7546771E-02  0.1082634E+00
         21   -1    0    0  502  501  0.00000000000E+00  0.00000000000E+00  0.38732922386E+03  0.38732922386E+03  0.00000000000E+00 0.  1.
         21   -1    0    0  501  502 -0.00000000000E+00 -0.00000000000E+00 -0.24059912284E+03  0.24059912284E+03  0.00000000000E+00 0.  1.
         25    1    1    2    0    0 -0.93621710150E+02  0.64183189219E+02  0.14868641991E+03  0.22498257234E+03  0.12500000000E+03 0.  0.
         25    1    1    2    0    0 -0.86252879041E+02 -0.84243616756E+02  0.41906503715E+02  0.17865525786E+03  0.12500000000E+03 0.  0.
         25    1    1    2    0    0  0.17987458919E+03  0.20060427536E+02 -0.43862822598E+02  0.22429051651E+03  0.12500000000E+03 0.  0.
</event>
<event>
 5    0  0.5619558E-005  0.2719524E+03  0.7546771E-02  0.1100167E+00
         21   -1    0    0  502  501  0.00000000000E+00  0.00000000000E+00  0.32209429841E+03  0.32209429841E+03  0.00000000000E+00 0. -1.
         21   -1    0    0  501  502 -0.00000000000E+00 -0.00000000000E+00 -0.22961638394E+03  0.22961638394E+03  0.00000000000E+00 0. -1.
         25    1    1    2    0    0  0.12285971604E+03 -0.13494056585E+02 -0.69358209128E+02  0.18897661380E+03  0.12500000000E+03 0.  0.
         25    1    1    2    0    0 -0.37699870978E+02 -0.87012967433E+01 -0.11811413214E+02  0.13138303665E+03  0.12500000000E+03 0.  0.
         25    1    1    2    0    0 -0.85159845062E+02  0.22195353329E+02  0.17364753682E+03  0.23135103190E+03  0.12500000000E+03 0.  0.
</event>
<event>
 5    0  0.5619558E-005  0.3138348E+03  0.7546771E-02  0.1078522E+00
         21   -1    0    0  502  501  0.00000000000E+00  0.00000000000E+00  0.15984214079E+03  0.15984214079E+03  0.00000000000E+00 0. -1.
         21   -1    0    0  501  502 -0.00000000000E+00 -0.00000000000E+00 -0.61618476017E+03  0.61618476017E+03  0.00000000000E+00 0. -1.
         25    1    1    2    0    0  0.80924236929E+02 -0.10941432498E+03 -0.10431306371E+02  0.18507846657E+03  0.12500000000E+03 0.  0.
         25    1    1    2    0    0  0.88176666664E+02  0.17692255674E+02 -0.13662689429E+03  0.20586415108E+03  0.12500000000E+03 0.  0.
         25    1    1    2    0    0 -0.16910090359E+03  0.91722069310E+02 -0.30928441872E+03  0.38508428332E+03  0.12500000000E+03 0.  0.
</event>
<event>
 5    0  0.5619558E-005  0.3355049E+03  0.7546771E-02  0.1068727E+00
         21   -1    0    0  502  501  0.00000000000E+00  0.00000000000E+00  0.22558100005E+03  0.22558100005E+03  0.00000000000E+00 0. -1.
         21   -1    0    0  501  502 -0.00000000000E+00 -0.00000000000E+00 -0.49899394906E+03  0.49899394906E+03  0.00000000000E+00 0. -1.
         25    1    1    2    0    0 -0.11038122439E+03  0.17531045356E+03 -0.70969202022E+01  0.24206019107E+03  0.12500000000E+03 0.  0.
         25    1    1    2    0    0  0.11380124931E+03 -0.11572906296E+03 -0.27862792720E+02  0.20674930611E+03  0.12500000000E+03 0.  0.
         25    1    1    2    0    0 -0.34200249211E+01 -0.59581390601E+02 -0.23845323609E+03  0.27576545193E+03  0.12500000000E+03 0.  0.
</event>
<event>
 5    0  0.6808836E-005  0.3338341E+03  0.7546771E-02  0.1069453E+00
         21   -1    0    0  502  501  0.00000000000E+00  0.00000000000E+00  0.25282739910E+03  0.25282739910E+03  0.00000000000E+00 0.  1.
         21   -1    0    0  501  502 -0.00000000000E+00 -0.00000000000E+00 -0.44079561669E+03  0.44079561669E+03  0.00000000000E+00 0.  1.
         25    1    1    2    0    0  0.55025892986E+02 -0.37203510493E+02  0.11446848129E+03  0.18204390487E+03  0.12500000000E+03 0.  0.
         25    1    1    2    0    0  0.81740884264E+02 -0.65549879252E+02 -0.24095759764E+03  0.29097065606E+03  0.12500000000E+03 0.  0.
         25    1    1    2    0    0 -0.13676677725E+03  0.10275338975E+03 -0.61479101241E+02  0.22060845485E+03  0.12500000000E+03 0.  0.
</event>
<event>
 5    0  0.5619558E-005  0.2731048E+03  0.7546771E-02  0.1099516E+00
         21   -1    0    0  502  501  0.00000000000E+00  0.00000000000E+00  0.42961912625E+02  0.42961912625E+02  0.00000000000E+00 0.  1.
         21   -1    0    0  501  502 -0.00000000000E+00 -0.00000000000E+00 -0.17361007589E+04  0.17361007589E+04  0.00000000000E+00 0.  1.
         25    1    1    2    0    0  0.58393132988E+02  0.70578156307E+02 -0.31013553670E+03  0.34669883941E+03  0.12500000000E+03 0.  0.
         25    1    1    2    0    0 -0.11850642674E+03  0.21508440672E+02 -0.99682487655E+03  0.10118256869E+04  0.12500000000E+03 0.  0.
         25    1    1    2    0    0  0.60113293756E+02 -0.92086596980E+02 -0.38617843306E+03  0.42053814522E+03  0.12500000000E+03 0.  0.
</event>
<event>
 5    0  0.5619558E-005  0.2643172E+03  0.7546771E-02  0.1104577E+00
         21   -1    0    0  502  501  0.00000000000E+00  0.00000000000E+00  0.19932182710E+03  0.19932182710E+03  0.00000000000E+00 0.  1.
         21   -1    0    0  501  502 -0.00000000000E+00 -0.00000000000E+00 -0.35050647891E+03  0.35050647891E+03  0.00000000000E+00 0.  1.
         25    1    1    2    0    0  0.66739199039E+02  0.62111787552E+01  0.74029291684E+02  0.15999386069E+03  0.12500000000E+03 0.  0.
         25    1    1    2    0    0 -0.72617128872E+01  0.25499531675E+02 -0.21157315678E+03  0.24716625834E+03  0.12500000000E+03 0.  0.
         25    1    1    2    0    0 -0.59477486152E+02 -0.31710710431E+02 -0.13640786714E+02  0.14266818698E+03  0.12500000000E+03 0.  0.
</event>
<event>
 5    0  0.5619558E-005  0.2109679E+03  0.7546771E-02  0.1140802E+00
         21   -1    0    0  502  501  0.00000000000E+00  0.00000000000E+00  0.32059815757E+02  0.32059815757E+02  0.00000000000E+00 0. -1.
         21   -1    0    0  501  502 -0.00000000000E+00 -0.00000000000E+00 -0.13882627453E+04  0.13882627453E+04  0.00000000000E+00 0. -1.
         25    1    1    2    0    0 -0.59800072697E+02 -0.66682872339E+01 -0.35959686992E+03  0.38542888268E+03  0.12500000000E+03 0.  0.
         25    1    1    2    0    0  0.55448921086E+02  0.41969092321E+02 -0.41552059578E+03  0.43945233311E+03  0.12500000000E+03 0.  0.
         25    1    1    2    0    0  0.43511516116E+01 -0.35300805087E+02 -0.58108546385E+03  0.59544134527E+03  0.12500000000E+03 0.  0.
</event>
<event>
 5    0  0.5619558E-005  0.2709031E+03  0.7546771E-02  0.1100764E+00
         21   -1    0    0  502  501  0.00000000000E+00  0.00000000000E+00  0.24896925517E+03  0.24896925517E+03  0.00000000000E+00 0.  1.
         21   -1    0    0  501  502 -0.00000000000E+00 -0.00000000000E+00 -0.29476923637E+03  0.29476923637E+03  0.00000000000E+00 0.  1.
         25    1    1    2    0    0 -0.10311532150E+03  0.65849191614E+02  0.10635792061E+03  0.20470928860E+03  0.12500000000E+03 0.  0.
         25    1    1    2    0    0  0.57625378751E+02 -0.79297275151E+01 -0.13495775422E+03  0.19293045451E+03  0.12500000000E+03 0.  0.
         25    1    1    2    0    0  0.45489942747E+02 -0.57919464099E+02 -0.17200147593E+02  0.14609874842E+03  0.12500000000E+03 0.  0.
</event>
<event>
 5    0  0.5619558E-005  0.2838373E+03  0.7546771E-02  0.1093611E+00
         21   -1    0    0  502  501  0.00000000000E+00  0.00000000000E+00  0.41769102966E+02  0.41769102966E+02  0.00000000000E+00 0.  1.
         21   -1    0    0  501  502 -0.00000000000E+00 -0.00000000000E+00 -0.19287852797E+04  0.19287852797E+04  0.00000000000E+00 0.  1.
         25    1    1    2    0    0  0.68861902175E+02  0.33168732298E+02 -0.48931979288E+03  0.51078467682E+03  0.12500000000E+03 0.  0.
         25    1    1    2    0    0 -0.96605316879E+02  0.13592329058E+03 -0.73325605441E+03  0.76229729732E+03  0.12500000000E+03 0.  0.
         25    1    1    2    0    0  0.27743414704E+02 -0.16909202288E+03 -0.66444032947E+03  0.69747240855E+03  0.12500000000E+03 0.  0.
</event>
<event>
 5    0  0.5619558E-005  0.3943877E+03  0.7546771E-02  0.1045741E+00
         21   -1    0    0  502  501  0.00000000000E+00  0.00000000000E+00  0.14662038606E+04  0.14662038606E+04  0.00000000000E+00 0.  1.
         21   -1    0    0  501  502 -0.00000000000E+00 -0.00000000000E+00 -0.10608458210E+03  0.10608458210E+03  0.00000000000E+00 0.  1.
         25    1    1    2    0    0  0.18562323935E+03 -0.23931857254E+03  0.43435925445E+03  0.54407933988E+03  0.12500000000E+03 0.  0.
         25    1    1    2    0    0  0.87495715705E+00  0.84722457434E+01  0.26954503872E+03  0.29724076503E+03  0.12500000000E+03 0.  0.
         25    1    1    2    0    0 -0.18649819650E+03  0.23084632680E+03  0.65621498537E+03  0.73096833784E+03  0.12500000000E+03 0.  0.
</event>
<event>
 5    0  0.5619558E-005  0.3950977E+03  0.7546771E-02  0.1045491E+00
         21   -1    0    0  502  501  0.00000000000E+00  0.00000000000E+00  0.15968360752E+04  0.15968360752E+04  0.00000000000E+00 0.  1.
         21   -1    0    0  501  502 -0.00000000000E+00 -0.00000000000E+00 -0.97757175084E+02  0.97757175084E+02  0.00000000000E+00 0.  1.
         25    1    1    2    0    0 -0.14613476071E+03  0.35552244902E+02  0.78849190785E+03  0.81238157239E+03  0.12500000000E+03 0.  0.
         25    1    1    2    0    0  0.12349079594E+03 -0.17851665480E+03  0.15484612298E+03  0.29448343676E+03  0.12500000000E+03 0.  0.
         25    1    1    2    0    0  0.22643964764E+02  0.14296440990E+03  0.55574086930E+03  0.58772824115E+03  0.12500000000E+03 0.  0.
</event>
<event>
 5    0  0.5619558E-005  0.4096674E+03  0.7546771E-02  0.1040483E+00
         21   -1    0    0  502  501  0.00000000000E+00  0.00000000000E+00  0.23993000146E+04  0.23993000146E+04  0.00000000000E+00 0. -1.
         21   -1    0    0  501  502 -0.00000000000E+00 -0.00000000000E+00 -0.69948482602E+02  0.69948482602E+02  0.00000000000E+00 0. -1.
         25    1    1    2    0    0 -0.68200518178E+02 -0.10705956478E+03  0.64207383993E+03  0.66633090654E+03  0.12500000000E+03 0.  0.
         25    1    1    2    0    0  0.20807074544E+03 -0.42279942467E+02  0.27008405012E+03  0.36558367411E+03  0.12500000000E+03 0.  0.
         25    1    1    2    0    0 -0.13987022726E+03  0.14933950725E+03  0.14171936420E+04  0.14373339166E+04  0.12500000000E+03 0.  0.
</event>
<event>
 5    0  0.5619558E-005  0.3929235E+03  0.7546771E-02  0.1046258E+00
         21   -1    0    0  502  501  0.00000000000E+00  0.00000000000E+00  0.56434252238E+02  0.56434252238E+02  0.00000000000E+00 0.  1.
         21   -1    0    0  501  502 -0.00000000000E+00 -0.00000000000E+00 -0.27357296735E+04  0.27357296735E+04  0.00000000000E+00 0.  1.
         25    1    1    2    0    0 -0.94381820442E+02 -0.12215221390E+03 -0.14602818286E+04  0.14737289813E+04  0.12500000000E+03 0.  0.
         25    1    1    2    0    0  0.16270939524E+03  0.14218183224E+03 -0.30954671329E+03  0.39766089628E+03  0.12500000000E+03 0.  0.
         25    1    1    2    0    0 -0.68327574798E+02 -0.20029618339E+02 -0.90946687942E+03  0.92077404821E+03  0.12500000000E+03 0.  0.
</event>
<event>
 5    0  0.5619558E-005  0.3660803E+03  0.7546771E-02  0.1056202E+00
         21   -1    0    0  502  501  0.00000000000E+00  0.00000000000E+00  0.46637652380E+03  0.46637652380E+03  0.00000000000E+00 0.  1.
         21   -1    0    0  501  502 -0.00000000000E+00 -0.00000000000E+00 -0.28735312938E+03  0.28735312938E+03  0.00000000000E+00 0.  1.
         25    1    1    2    0    0  0.88678861208E+02  0.14850866008E+02 -0.58775257268E+02  0.16481510705E+03  0.12500000000E+03 0.  0.
         25    1    1    2    0    0 -0.18592885487E+03  0.10487176615E+03 -0.36767736009E+02  0.25008896981E+03  0.12500000000E+03 0.  0.
         25    1    1    2    0    0  0.97249993659E+02 -0.11972263216E+03  0.27456638769E+03  0.33882557632E+03  0.12500000000E+03 0.  0.
</event>
<event>
 5    0  0.5619558E-005  0.3199482E+03  0.7546771E-02  0.1075673E+00
         21   -1    0    0  502  501  0.00000000000E+00  0.00000000000E+00  0.89661725642E+02  0.89661725642E+02  0.00000000000E+00 0.  1.
         21   -1    0    0  501  502 -0.00000000000E+00 -0.00000000000E+00 -0.11417004745E+04  0.11417004745E+04  0.00000000000E+00 0.  1.
         25    1    1    2    0    0  0.66815372533E+00  0.62482993433E+02 -0.44088505710E+02  0.14653793786E+03  0.12500000000E+03 0.  0.
         25    1    1    2    0    0 -0.72130688832E+02 -0.86028782887E+02 -0.86285286319E+03  0.87905850276E+03  0.12500000000E+03 0.  0.
         25    1    1    2    0    0  0.71462535106E+02  0.23545789454E+02 -0.14509738000E+03  0.20576575956E+03  0.12500000000E+03 0.  0.
</event>
<event>
 5    0  0.5619558E-005  0.3251697E+03  0.7546771E-02  0.1073294E+00
         21   -1    0    0  502  501  0.00000000000E+00  0.00000000000E+00  0.27463886764E+04  0.27463886764E+04  0.00000000000E+00 0.  1.
         21   -1    0    0  501  502 -0.00000000000E+00 -0.00000000000E+00 -0.38499772414E+02  0.38499772414E+02  0.00000000000E+00 0.  1.
         25    1    1    2    0    0  0.13374933304E+03 -0.11016233573E+03  0.13932306757E+04  0.14095181233E+04  0.12500000000E+03 0.  0.
         25    1    1    2    0    0 -0.43803091462E+02  0.15389524505E+03  0.10201903051E+04  0.10401998442E+04  0.12500000000E+03 0.  0.
         25    1    1    2    0    0 -0.89946241580E+02 -0.43732909326E+02  0.29446792323E+03  0.33517048131E+03  0.12500000000E+03 0.  0.
</event>
<event>
 5    0  0.5619558E-005  0.3804498E+03  0.7546771E-02  0.1050768E+00
         21   -1    0    0  502  501  0.00000000000E+00  0.00000000000E+00  0.14878742165E+03  0.14878742165E+03  0.00000000000E+00 0.  1.
         21   -1    0    0  501  502 -0.00000000000E+00 -0.00000000000E+00 -0.97281118651E+03  0.97281118651E+03  0.00000000000E+00 0.  1.
         25    1    1    2    0    0 -0.37521740307E+02 -0.24891541076E+03 -0.29668240436E+03  0.40867127592E+03  0.12500000000E+03 0.  0.
         25    1    1    2    0    0  0.12327658676E+03  0.20318330926E+03 -0.47592476542E+03  0.54645215376E+03  0.12500000000E+03 0.  0.
         25    1    1    2    0    0 -0.85754846455E+02  0.45732101507E+02 -0.51416595081E+02  0.16647517848E+03  0.12500000000E+03 0.  0.
</event>
<event>
 5    0  0.5619558E-005  0.2905534E+03  0.7546771E-02  0.1090061E+00
         21   -1    0    0  502  501  0.00000000000E+00  0.00000000000E+00  0.67575305308E+02  0.67575305308E+02  0.00000000000E+00 0.  1.
         21   -1    0    0  501  502 -0.00000000000E+00 -0.00000000000E+00 -0.12492916440E+04  0.12492916440E+04  0.00000000000E+00 0.  1.
         25    1    1    2    0    0  0.33538040345E+02  0.41462907799E+01 -0.30031124329E+02  0.13292426530E+03  0.12500000000E+03 0.  0.
         25    1    1    2    0    0 -0.54499843604E+02  0.78810301781E+01 -0.43189859530E+03  0.45298315666E+03  0.12500000000E+03 0.  0.
         25    1    1    2    0    0  0.20961803260E+02 -0.12027320958E+02 -0.71978661902E+03  0.73095952731E+03  0.12500000000E+03 0.  0.
</event>
<event>
 5    0  0.5619558E-005  0.4836449E+03  0.7546771E-02  0.1018138E+00
         21   -1    0    0  502  501  0.00000000000E+00  0.00000000000E+00  0.36037618196E+03  0.36037618196E+03  0.00000000000E+00 0. -1.
         21   -1    0    0  501  502 -0.00000000000E+00 -0.00000000000E+00 -0.64907835436E+03  0.64907835436E+03  0.00000000000E+00 0. -1.
         25    1    1    2    0    0 -0.33906135345E+02 -0.23214261921E+03 -0.45512058398E+02  0.26969643885E+03  0.12500000000E+03 0.  0.
         25    1    1    2    0    0  0.24215924984E+03 -0.18431895016E+02  0.57480000558E+02  0.27912324787E+03  0.12500000000E+03 0.  0.
         25    1    1    2    0    0 -0.20825311449E+03  0.25057451423E+03 -0.30067011456E+03  0.46063484960E+03  0.12500000000E+03 0.  0.
</event>
<event>
 5    0  0.5619558E-005  0.5407494E+03  0.7546771E-02  0.1003658E+00
         21   -1    0    0  502  501  0.00000000000E+00  0.00000000000E+00  0.12442265418E+04  0.12442265418E+04  0.00000000000E+00 0.  1.
         21   -1    0    0  501  502 -0.00000000000E+00 -0.00000000000E+00 -0.23501341703E+03  0.23501341703E+03  0.00000000000E+00 0.  1.
         25    1    1    2    0    0  0.19296642067E+03  0.59927198140E+01  0.15529440479E+03  0.27751271026E+03  0.12500000000E+03 0.  0.
         25    1    1    2    0    0  0.21062790123E+03 -0.25022721745E+03  0.27973056949E+03  0.44816510868E+03  0.12500000000E+03 0.  0.
         25    1    1    2    0    0 -0.40359432191E+03  0.24423449764E+03  0.57418815048E+03  0.75356213988E+03  0.12500000000E+03 0.  0.
</event>
<event>
 5    0  0.5737625E-005  0.3508022E+03  0.7546771E-02  0.1062286E+00
         21   -1    0    0  502  501  0.00000000000E+00  0.00000000000E+00  0.28513507068E+03  0.28513507068E+03  0.00000000000E+00 0.  1.
         21   -1    0    0  501  502 -0.00000000000E+00 -0.00000000000E+00 -0.43159259117E+03  0.43159259117E+03  0.00000000000E+00 0.  1.
         25    1    1    2    0    0  0.61517375706E+02  0.10189731818E+03  0.66127241547E+02  0.18483847825E+03  0.12500000000E+03 0.  0.
         25    1    1    2    0    0 -0.16650278731E+03  0.11065480765E+02 -0.25449919880E+03  0.32899918728E+03  0.12500000000E+03 0.  0.
         25    1    1    2    0    0  0.10498541160E+03 -0.11296279895E+03  0.41914436759E+02  0.20288999631E+03  0.12500000000E+03 0.  0.
</event>
<event>
 5    0  0.5619558E-005  0.3098315E+03  0.7546771E-02  0.1080427E+00
         21   -1    0    0  502  501  0.00000000000E+00  0.00000000000E+00  0.11737355275E+03  0.11737355275E+03  0.00000000000E+00 0. -1.
         21   -1    0    0  501  502 -0.00000000000E+00 -0.00000000000E+00 -0.81786372768E+03  0.81786372768E+03  0.00000000000E+00 0. -1.
         25    1    1    2    0    0 -0.77642822014E+02  0.18032353167E+03 -0.22939873634E+03  0.32679315189E+03  0.12500000000E+03 0.  0.
         25    1    1    2    0    0  0.73555958229E+02 -0.21106276772E+03 -0.32232497340E+03  0.41167506529E+03  0.12500000000E+03 0.  0.
         25    1    1    2    0    0  0.40868637857E+01  0.30739236043E+02 -0.14876646519E+03  0.19676906325E+03  0.12500000000E+03 0.  0.
</event>
<event>
 5    0  0.5619558E-005  0.3858058E+03  0.7546771E-02  0.1048809E+00
         21   -1    0    0  502  501  0.00000000000E+00  0.00000000000E+00  0.77684832798E+03  0.77684832798E+03  0.00000000000E+00 0.  1.
         21   -1    0    0  501  502 -0.00000000000E+00 -0.00000000000E+00 -0.19160254787E+03  0.19160254787E+03  0.00000000000E+00 0.  1.
         25    1    1    2    0    0 -0.23521852553E+03 -0.30552795919E+02  0.46250642260E+02  0.27207600041E+03  0.12500000000E+03 0.  0.
         25    1    1    2    0    0  0.16962270724E+03  0.99789908190E+02  0.47004955447E+03  0.52469178786E+03  0.12500000000E+03 0.  0.
         25    1    1    2    0    0  0.65595818284E+02 -0.69237112271E+02  0.68945583385E+02  0.17168308758E+03  0.12500000000E+03 0.  0.
</event>
<event>
 5    0  0.5619558E-005  0.4043309E+03  0.7546771E-02  0.1042290E+00
         21   -1    0    0  502  501  0.00000000000E+00  0.00000000000E+00  0.14922518084E+03  0.14922518084E+03  0.00000000000E+00 0.  1.
         21   -1    0    0  501  502 -0.00000000000E+00 -0.00000000000E+00 -0.10955486482E+04  0.10955486482E+04  0.00000000000E+00 0.  1.
         25    1    1    2    0    0 -0.11215319579E+03  0.13253351242E+03 -0.32919284374E+03  0.39260208814E+03  0.12500000000E+03 0.  0.
         25    1    1    2    0    0  0.37860633894E+02 -0.23505484172E+03 -0.71472760917E+02  0.27824011531E+03  0.12500000000E+03 0.  0.
         25    1    1    2    0    0  0.74292561893E+02  0.10252132930E+03 -0.54565786268E+03  0.57393162556E+03  0.12500000000E+03 0.  0.
</event>
<event>
 5    0  0.5619558E-005  0.2327149E+03  0.7546771E-02  0.1124743E+00
         21   -1    0    0  502  501  0.00000000000E+00  0.00000000000E+00  0.10709421393E+04  0.10709421393E+04  0.00000000000E+00 0. -1.
         21   -1    0    0  501  502 -0.00000000000E+00 -0.00000000000E+00 -0.50568767484E+02  0.50568767484E+02  0.00000000000E+00 0. -1.
         25    1    1    2    0    0 -0.39687345681E+02 -0.26735101863E+02  0.17541467446E+03  0.22064713706E+03  0.12500000000E+03 0.  0.
         25    1    1    2    0    0 -0.66168252637E+02  0.29043174375E+02  0.32299698634E+03  0.35379909104E+03  0.12500000000E+03 0.  0.
         25    1    1    2    0    0  0.10585559832E+03 -0.23080725119E+01  0.52196171105E+03  0.54706467871E+03  0.12500000000E+03 0.  0.
</event>
<event>
 5    0  0.5619558E-005  0.4203786E+03  0.7546771E-02  0.1036943E+00
         21   -1    0    0  502  501  0.00000000000E+00  0.00000000000E+00  0.31641528915E+03  0.31641528915E+03  0.00000000000E+00 0.  1.
         21   -1    0    0  501  502 -0.00000000000E+00 -0.00000000000E+00 -0.55850060495E+03  0.55850060495E+03  0.00000000000E+00 0.  1.
         25    1    1    2    0    0 -0.48771470616E+02 -0.20744488998E+03 -0.19892576485E+03  0.31718842767E+03  0.12500000000E+03 0.  0.
         25    1    1    2    0    0 -0.12134408759E+03  0.25239675415E+03 -0.11899346343E+03  0.32895737328E+03  0.12500000000E+03 0.  0.
         25    1    1    2    0    0  0.17011555820E+03 -0.44951864169E+02  0.75833912487E+02  0.22877009315E+03  0.12500000000E+03 0.  0.
</event>
<event>
 5    0  0.5619558E-005  0.2195576E+03  0.7546771E-02  0.1134213E+00
         21   -1    0    0  502  501  0.00000000000E+00  0.00000000000E+00  0.81654468212E+02  0.81654468212E+02  0.00000000000E+00 0. -1.
         21   -1    0    0  501  502 -0.00000000000E+00 -0.00000000000E+00 -0.59035991285E+03  0.59035991285E+03  0.00000000000E+00 0. -1.
         25    1    1    2    0    0  0.33253889264E+02 -0.42139866651E+02 -0.17485132607E+03  0.22153910657E+03  0.12500000000E+03 0.  0.
         25    1    1    2    0    0  0.18012695656E+02  0.58677102208E+02 -0.26164135784E+03  0.29639274563E+03  0.12500000000E+03 0.  0.
         25    1    1    2    0    0 -0.51266584920E+02 -0.16537235556E+02 -0.72212760731E+02  0.15408252887E+03  0.12500000000E+03 0.  0.
</event>
<event>
 5    0  0.5619558E-005  0.3568905E+03  0.7546771E-02  0.1059822E+00
         21   -1    0    0  502  501  0.00000000000E+00  0.00000000000E+00  0.75284659403E+03  0.75284659403E+03  0.00000000000E+00 0.  1.
         21   -1    0    0  501  502 -0.00000000000E+00 -0.00000000000E+00 -0.16918567564E+03  0.16918567564E+03  0.00000000000E+00 0.  1.
         25    1    1    2    0    0  0.13530484248E+03  0.70958038941E+02  0.30007434267E+03  0.35918248122E+03  0.12500000000E+03 0.  0.
         25    1    1    2    0    0 -0.21660493596E+03 -0.16336522977E+03  0.11663264792E+03  0.32067751893E+03  0.12500000000E+03 0.  0.
         25    1    1    2    0    0  0.81300093482E+02  0.92407190834E+02  0.16695392780E+03  0.24217226952E+03  0.12500000000E+03 0.  0.
</event>
<event>
 5    0  0.5619558E-005  0.2600556E+03  0.7546771E-02  0.1107110E+00
         21   -1    0    0  502  501  0.00000000000E+00  0.00000000000E+00  0.88834617688E+03  0.88834617688E+03  0.00000000000E+00 0. -1.
         21   -1    0    0  501  502 -0.00000000000E+00 -0.00000000000E+00 -0.76129013501E+02  0.76129013501E+02  0.00000000000E+00 0. -1.
         25    1    1    2    0    0 -0.61832465209E+02 -0.39744809562E+02  0.33549303367E+03  0.36549073762E+03  0.12500000000E+03 0.  0.
         25    1    1    2    0    0  0.11915841239E+03  0.19867060299E+02  0.10727432577E+03  0.20426993978E+03  0.12500000000E+03 0.  0.
         25    1    1    2    0    0 -0.57325947176E+02  0.19877749264E+02  0.36944980394E+03  0.39471451299E+03  0.12500000000E+03 0.  0.
</event>
<event>
 5    0  0.5627397E-005  0.3112840E+03  0.7546771E-02  0.1079732E+00
         21   -1    0    0  502  501  0.00000000000E+00  0.00000000000E+00  0.54658716677E+03  0.54658716677E+03  0.00000000000E+00 0.  1.
         21   -1    0    0  501  502 -0.00000000000E+00 -0.00000000000E+00 -0.17727775742E+03  0.17727775742E+03  0.00000000000E+00 0.  1.
         25    1    1    2    0    0  0.57824838722E+02 -0.14085507796E+03  0.25362851681E+03  0.32114839171E+03  0.12500000000E+03 0.  0.
         25    1    1    2    0    0 -0.11573593676E+03  0.16294896957E+03  0.11702536304E+03  0.26318645356E+03  0.12500000000E+03 0.  0.
         25    1    1    2    0    0  0.57911098036E+02 -0.22093891614E+02 -0.13444705068E+01  0.13953007892E+03  0.12500000000E+03 0.  0.
</event>
<event>
 5    0  0.5619558E-005  0.2669117E+03  0.7546771E-02  0.1103060E+00
         21   -1    0    0  502  501  0.00000000000E+00  0.00000000000E+00  0.39705896331E+03  0.39705896331E+03  0.00000000000E+00 0. -1.
         21   -1    0    0  501  502 -0.00000000000E+00 -0.00000000000E+00 -0.17942389845E+03  0.17942389845E+03  0.00000000000E+00 0. -1.
         25    1    1    2    0    0 -0.12561950875E+02  0.16433448526E+03  0.25210309951E+02  0.20838470526E+03  0.12500000000E+03 0.  0.
         25    1    1    2    0    0  0.16705723308E+02 -0.13315948159E+03  0.95129653330E+02  0.20660391978E+03  0.12500000000E+03 0.  0.
         25    1    1    2    0    0 -0.41437724327E+01 -0.31175003678E+02  0.97295101581E+02  0.16149423673E+03  0.12500000000E+03 0.  0.
</event>
<event>
 5    0  0.5619558E-005  0.2622863E+03  0.7546771E-02  0.1105777E+00
         21   -1    0    0  502  501  0.00000000000E+00  0.00000000000E+00  0.35781290481E+03  0.35781290481E+03  0.00000000000E+00 0. -1.
         21   -1    0    0  501  502 -0.00000000000E+00 -0.00000000000E+00 -0.19226272067E+03  0.19226272067E+03  0.00000000000E+00 0. -1.
         25    1    1    2    0    0 -0.19291928618E+02  0.11182493350E+03 -0.54340894374E+00  0.16882621111E+03  0.12500000000E+03 0.  0.
         25    1    1    2    0    0  0.62051020635E+02 -0.49044541427E+02 -0.14752740199E+02  0.14865510267E+03  0.12500000000E+03 0.  0.
         25    1    1    2    0    0 -0.42759092018E+02 -0.62780392077E+02  0.18084633328E+03  0.23259431171E+03  0.12500000000E+03 0.  0.
</event>
<event>
 5    0  0.5619558E-005  0.5715927E+03  0.7546771E-02  0.9966160E-01
         21   -1    0    0  502  501  0.00000000000E+00  0.00000000000E+00  0.39178970812E+03  0.39178970812E+03  0.00000000000E+00 0. -1.
         21   -1    0    0  501  502 -0.00000000000E+00 -0.00000000000E+00 -0.83391227637E+03  0.83391227637E+03  0.00000000000E+00 0. -1.
         25    1    1    2    0    0 -0.32768413145E+03  0.28104759903E+03 -0.19025904129E+03  0.48804522917E+03  0.12500000000E+03 0.  0.
         25    1    1    2    0    0  0.14565799866E+03 -0.36544785545E+03 -0.30686090009E+02  0.41392635063E+03  0.12500000000E+03 0.  0.
         25    1    1    2    0    0  0.18202613279E+03  0.84400256419E+02 -0.22117743696E+03  0.32373040469E+03  0.12500000000E+03 0.  0.
</event>
<event>
 5    0  0.5619558E-005  0.2639217E+03  0.7546771E-02  0.1104810E+00
         21   -1    0    0  502  501  0.00000000000E+00  0.00000000000E+00  0.75716385895E+02  0.75716385895E+02  0.00000000000E+00 0.  1.
         21   -1    0    0  501  502 -0.00000000000E+00 -0.00000000000E+00 -0.91994162767E+03  0.91994162767E+03  0.00000000000E+00 0.  1.
         25    1    1    2    0    0  0.87507809024E+01 -0.85401602763E+02 -0.40429740174E+03  0.43180018408E+03  0.12500000000E+03 0.  0.
         25    1    1    2    0    0  0.33842078595E+02  0.37925054041E+02 -0.39358053252E+03  0.41606998400E+03  0.12500000000E+03 0.  0.
         25    1    1    2    0    0 -0.42592859497E+02  0.47476548722E+02 -0.46347307520E+02  0.14778784548E+03  0.12500000000E+03 0.  0.
</event>
<event>
 5    0  0.5619558E-005  0.2969968E+03  0.7546771E-02  0.1086752E+00
         21   -1    0    0  502  501  0.00000000000E+00  0.00000000000E+00  0.74415502949E+03  0.74415502949E+03  0.00000000000E+00 0.  1.
         21   -1    0    0  501  502 -0.00000000000E+00 -0.00000000000E+00 -0.11853326775E+03  0.11853326775E+03  0.00000000000E+00 0.  1.
         25    1    1    2    0    0 -0.47280030962E+02  0.86601789131E+00  0.18725550554E+03  0.23005602724E+03  0.12500000000E+03 0.  0.
         25    1    1    2    0    0 -0.72720679297E+02 -0.13989699231E+03  0.32743927027E+03  0.38431880174E+03  0.12500000000E+03 0.  0.
         25    1    1    2    0    0  0.12000071026E+03  0.13903097442E+03  0.11092698593E+03  0.24831346826E+03  0.12500000000E+03 0.  0.
</event>
<event>
 5    0  0.5619558E-005  0.5894365E+03  0.7546771E-02  0.9927568E-01
         21   -1    0    0  502  501  0.00000000000E+00  0.00000000000E+00  0.41394799564E+03  0.41394799564E+03  0.00000000000E+00 0.  1.
         21   -1    0    0  501  502 -0.00000000000E+00 -0.00000000000E+00 -0.83932131167E+03  0.83932131167E+03  0.00000000000E+00 0.  1.
         25    1    1    2    0    0  0.62932925422E+02 -0.39181343764E+02 -0.47244567034E+03  0.49429307321E+03  0.12500000000E+03 0.  0.
         25    1    1    2    0    0  0.16099499789E+03 -0.21040055073E+03 -0.17169749614E+03  0.33954795136E+03  0.12500000000E+03 0.  0.
         25    1    1    2    0    0 -0.22392792331E+03  0.24958189449E+03  0.21876985045E+03  0.41942828274E+03  0.12500000000E+03 0.  0.
</event>
<event>
 5    0  0.5619558E-005  0.2410264E+03  0.7546771E-02  0.1119111E+00
         21   -1    0    0  502  501  0.00000000000E+00  0.00000000000E+00  0.64959506998E+02  0.64959506998E+02  0.00000000000E+00 0. -1.
         21   -1    0    0  501  502 -0.00000000000E+00 -0.00000000000E+00 -0.89430688807E+03  0.89430688807E+03  0.00000000000E+00 0. -1.
         25    1    1    2    0    0 -0.58980495204E+02 -0.25470516450E+02 -0.13746360032E+03  0.19659269426E+03  0.12500000000E+03 0.  0.
         25    1    1    2    0    0  0.35837401228E+02  0.82939223268E+02 -0.51380057779E+03  0.53645062011E+03  0.12500000000E+03 0.  0.
         25    1    1    2    0    0  0.23143093976E+02 -0.57468706818E+02 -0.17808320296E+03  0.22622308070E+03  0.12500000000E+03 0.  0.
</event>
<event>
 5    0  0.5619558E-005  0.3916727E+03  0.7546771E-02  0.1046702E+00
         21   -1    0    0  502  501  0.00000000000E+00  0.00000000000E+00  0.18347192962E+03  0.18347192962E+03  0.00000000000E+00 0. -1.
         21   -1    0    0  501  502 -0.00000000000E+00 -0.00000000000E+00 -0.83613631112E+03  0.83613631112E+03  0.00000000000E+00 0. -1.
         25    1    1    2    0    0 -0.51190046859E+02  0.32657614503E+01 -0.55267877848E+03  0.56895511095E+03  0.12500000000E+03 0.  0.
         25    1    1    2    0    0 -0.10910516332E+01 -0.99758944283E+02 -0.20036842816E+03  0.25636993654E+03  0.12500000000E+03 0.  0.
         25    1    1    2    0    0  0.52281098493E+02  0.96493182833E+02  0.10038282514E+03  0.19428319324E+03  0.12500000000E+03 0.  0.
</event>
<event>
 5    0  0.5619558E-005  0.4069515E+03  0.7546771E-02  0.1041399E+00
         21   -1    0    0  502  501  0.00000000000E+00  0.00000000000E+00  0.56134116316E+03  0.56134116316E+03  0.00000000000E+00 0.  1.
         21   -1    0    0  501  502 -0.00000000000E+00 -0.00000000000E+00 -0.29502465989E+03  0.29502465989E+03  0.00000000000E+00 0.  1.
         25    1    1    2    0    0 -0.61105082912E+02 -0.20387312303E+02 -0.12650903277E+03  0.18915340079E+03  0.12500000000E+03 0.  0.
         25    1    1    2    0    0  0.40418778896E+02 -0.13496471271E+03 -0.37899993035E+02  0.19212121391E+03  0.12500000000E+03 0.  0.
         25    1    1    2    0    0  0.20686304015E+02  0.15535202501E+03  0.43072552907E+03  0.47509120834E+03  0.12500000000E+03 0.  0.
</event>
<event>
 5    0  0.5619558E-005  0.3268358E+03  0.7546771E-02  0.1072546E+00
         21   -1    0    0  502  501  0.00000000000E+00  0.00000000000E+00  0.20071188534E+03  0.20071188534E+03  0.00000000000E+00 0.  1.
         21   -1    0    0  501  502 -0.00000000000E+00 -0.00000000000E+00 -0.53221379176E+03  0.53221379176E+03  0.00000000000E+00 0.  1.
         25    1    1    2    0    0 -0.19876692082E+03  0.41621435552E+02 -0.17224426076E+03  0.29416614026E+03  0.12500000000E+03 0.  0.
         25    1    1    2    0    0  0.24162568266E+03 -0.36105138236E+02 -0.12823135077E+03  0.30291059877E+03  0.12500000000E+03 0.  0.
         25    1    1    2    0    0 -0.42858761837E+02 -0.55162973161E+01 -0.31026294888E+02  0.13584893808E+03  0.12500000000E+03 0.  0.
</event>
<event>
 5    0  0.5619558E-005  0.2595366E+03  0.7546771E-02  0.1107422E+00
         21   -1    0    0  502  501  0.00000000000E+00  0.00000000000E+00  0.25172712440E+03  0.25172712440E+03  0.00000000000E+00 0.  1.
         21   -1    0    0  501  502 -0.00000000000E+00 -0.00000000000E+00 -0.26758838192E+03  0.26758838192E+03  0.00000000000E+00 0.  1.
         25    1    1    2    0    0  0.29436478009E+02 -0.68051131317E+02 -0.10101361562E+02  0.14568630758E+03  0.12500000000E+03 0.  0.
         25    1    1    2    0    0 -0.13630544306E+03  0.81834599960E+02 -0.37186212303E+02  0.20563046940E+03  0.12500000000E+03 0.  0.
         25    1    1    2    0    0  0.10686896505E+03 -0.13783468644E+02  0.31426316349E+02  0.16799872934E+03  0.12500000000E+03 0.  0.
</event>
<event>
 5    0  0.5991095E-005  0.2701310E+03  0.7546771E-02  0.1101205E+00
         21   -1    0    0  502  501  0.00000000000E+00  0.00000000000E+00  0.12066284130E+03  0.12066284130E+03  0.00000000000E+00 0.  1.
         21   -1    0    0  501  502 -0.00000000000E+00 -0.00000000000E+00 -0.60474914784E+03  0.60474914784E+03  0.00000000000E+00 0.  1.
         25    1    1    2    0    0  0.61321705062E+02  0.64314826728E+02 -0.73232342895E+02  0.16995506610E+03  0.12500000000E+03 0.  0.
         25    1    1    2    0    0 -0.25521268312E+02  0.81721613483E+02 -0.80483596488E+02  0.17155863881E+03  0.12500000000E+03 0.  0.
         25    1    1    2    0    0 -0.35800436750E+02 -0.14603644021E+03 -0.33037036716E+03  0.38389828423E+03  0.12500000000E+03 0.  0.
</event>
<event>
 5    0  0.5619558E-005  0.2728724E+03  0.7546771E-02  0.1099647E+00
         21   -1    0    0  502  501  0.00000000000E+00  0.00000000000E+00  0.69831721533E+02  0.69831721533E+02  0.00000000000E+00 0. -1.
         21   -1    0    0  501  502 -0.00000000000E+00 -0.00000000000E+00 -0.10662683807E+04  0.10662683807E+04  0.00000000000E+00 0. -1.
         25    1    1    2    0    0 -0.57567917934E+01  0.29458430468E+02 -0.11440005905E+03  0.17208519195E+03  0.12500000000E+03 0.  0.
         25    1    1    2    0    0 -0.51205527571E+02 -0.15279521850E+03 -0.43943476879E+03  0.48445464274E+03  0.12500000000E+03 0.  0.
         25    1    1    2    0    0  0.56962319364E+02  0.12333678803E+03 -0.44260183129E+03  0.47956026751E+03  0.12500000000E+03 0.  0.
</event>
<event>
 5    0  0.5619558E-005  0.4131965E+03  0.7546771E-02  0.1039304E+00
         21   -1    0    0  502  501  0.00000000000E+00  0.00000000000E+00  0.10900831963E+03  0.10900831963E+03  0.00000000000E+00 0.  1.
         21   -1    0    0  501  502 -0.00000000000E+00 -0.00000000000E+00 -0.15662231070E+04  0.15662231070E+04  0.00000000000E+00 0.  1.
         25    1    1    2    0    0  0.30112740302E+03  0.17636963870E+03 -0.82665068127E+03  0.90595822815E+03  0.12500000000E+03 0.  0.
         25    1    1    2    0    0 -0.17772590620E+03 -0.96937670152E+02 -0.42769338352E+03  0.48941806253E+03  0.12500000000E+03 0.  0.
         25    1    1    2    0    0 -0.12340149682E+03 -0.79431968548E+02 -0.20287072261E+03  0.27985513598E+03  0.12500000000E+03 0.  0.
</event>
<event>
 5    0  0.5619558E-005  0.2788784E+03  0.7546771E-02  0.1096303E+00
         21   -1    0    0  502  501  0.00000000000E+00  0.00000000000E+00  0.25387935476E+03  0.25387935476E+03  0.00000000000E+00 0. -1.
         21   -1    0    0  501  502 -0.00000000000E+00 -0.00000000000E+00 -0.30633901444E+03  0.30633901444E+03  0.00000000000E+00 0. -1.
         25    1    1    2    0    0  0.44338488601E+02  0.13921680849E+03  0.96762493638E+02  0.21525613002E+03  0.12500000000E+03 0.  0.
         25    1    1    2    0    0 -0.76340238372E+02 -0.94122039774E+02 -0.90163140474E+02  0.19606422995E+03  0.12500000000E+03 0.  0.
         25    1    1    2    0    0  0.32001749771E+02 -0.45094768714E+02 -0.59059012850E+02  0.14889800923E+03  0.12500000000E+03 0.  0.
</event>
<event>
 5    0  0.5619558E-005  0.4873815E+03  0.7546771E-02  0.1017126E+00
         21   -1    0    0  502  501  0.00000000000E+00  0.00000000000E+00  0.17412694076E+03  0.17412694076E+03  0.00000000000E+00 0.  1.
         21   -1    0    0  501  502 -0.00000000000E+00 -0.00000000000E+00 -0.13641814709E+04  0.13641814709E+04  0.00000000000E+00 0.  1.
         25    1    1    2    0    0 -0.46254594490E+02  0.20863977931E+00  0.11804148306E+03  0.17804022794E+03  0.12500000000E+03 0.  0.
         25    1    1    2    0    0  0.14205210576E+03 -0.68551000615E+02 -0.72716876538E+03  0.75450477386E+03  0.12500000000E+03 0.  0.
         25    1    1    2    0    0 -0.95797511269E+02  0.68342360835E+02 -0.58092724782E+03  0.60576340985E+03  0.12500000000E+03 0.  0.
</event>
<event>
 5    0  0.5619558E-005  0.2722723E+03  0.7546771E-02  0.1099986E+00
         21   -1    0    0  502  501  0.00000000000E+00  0.00000000000E+00  0.52094822037E+02  0.52094822037E+02  0.00000000000E+00 0.  1.
         21   -1    0    0  501  502 -0.00000000000E+00 -0.00000000000E+00 -0.14230244155E+04  0.14230244155E+04  0.00000000000E+00 0.  1.
         25    1    1    2    0    0  0.41152822146E+02 -0.78188524578E+02 -0.56755700612E+03  0.58783752461E+03  0.12500000000E+03 0.  0.
         25    1    1    2    0    0 -0.62838196150E+02  0.10793684806E+03 -0.18697865799E+03  0.25726449543E+03  0.12500000000E+03 0.  0.
         25    1    1    2    0    0  0.21685374004E+02 -0.29748323482E+02 -0.61639392935E+03  0.63001721749E+03  0.12500000000E+03 0.  0.
</event>
<event>
 5    0  0.5619558E-005  0.2793386E+03  0.7546771E-02  0.1096051E+00
         21   -1    0    0  502  501  0.00000000000E+00  0.00000000000E+00  0.16366420738E+03  0.16366420738E+03  0.00000000000E+00 0. -1.
         21   -1    0    0  501  502 -0.00000000000E+00 -0.00000000000E+00 -0.47676928739E+03  0.47676928739E+03  0.00000000000E+00 0. -1.
         25    1    1    2    0    0 -0.12525041884E+03  0.10819880445E+02 -0.78212204954E+02  0.19377018923E+03  0.12500000000E+03 0.  0.
         25    1    1    2    0    0  0.11354910778E+03  0.11317699949E+03 -0.11919916494E+03  0.23566050584E+03  0.12500000000E+03 0.  0.
         25    1    1    2    0    0  0.11701311055E+02 -0.12399687994E+03 -0.11569371012E+03  0.21100279969E+03  0.12500000000E+03 0.  0.
</event>
<event>
 5    0  0.5619558E-005  0.2955168E+03  0.7546771E-02  0.1087503E+00
         21   -1    0    0  502  501  0.00000000000E+00  0.00000000000E+00  0.63521736061E+02  0.63521736061E+02  0.00000000000E+00 0.  1.
         21   -1    0    0  501  502 -0.00000000000E+00 -0.00000000000E+00 -0.13748074651E+04  0.13748074651E+04  0.00000000000E+00 0.  1.
         25    1    1    2    0    0  0.26459787197E+02 -0.77463644969E+02 -0.21806324197E+03  0.26434317492E+03  0.12500000000E+03 0.  0.
         25    1    1    2    0    0 -0.12180113850E+02 -0.12889597190E+03 -0.36994865232E+03  0.41139947994E+03  0.12500000000E+03 0.  0.
         25    1    1    2    0    0 -0.14279673347E+02  0.20635961687E+03 -0.72327383472E+03  0.76258654626E+03  0.12500000000E+03 0.  0.
</event>
<event>
 5    0  0.5619558E-005  0.2638615E+03  0.7546771E-02  0.1104845E+00
         21   -1    0    0  502  501  0.00000000000E+00  0.00000000000E+00  0.20308407320E+03  0.20308407320E+03  0.00000000000E+00 0.  1.
         21   -1    0    0  501  502 -0.00000000000E+00 -0.00000000000E+00 -0.34282781755E+03  0.34282781755E+03  0.00000000000E+00 0. -1.
         25    1    1    2    0    0  0.12839859212E+03 -0.75811956052E+01 -0.95140040734E+01  0.17960843315E+03  0.12500000000E+03 0.  0.
         25    1    1    2    0    0 -0.16707150268E+03  0.23096548357E+01 -0.10233868883E+03  0.23241434712E+03  0.12500000000E+03 0.  0.
         25    1    1    2    0    0  0.38672910560E+02  0.52715407695E+01 -0.27891051449E+02  0.13388911048E+03  0.12500000000E+03 0.  0.
</event>
<event>
 5    0  0.5619558E-005  0.3661980E+03  0.7546771E-02  0.1056156E+00
         21   -1    0    0  502  501  0.00000000000E+00  0.00000000000E+00  0.21462606865E+04  0.21462606865E+04  0.00000000000E+00 0. -1.
         21   -1    0    0  501  502 -0.00000000000E+00 -0.00000000000E+00 -0.62481202566E+02  0.62481202566E+02  0.00000000000E+00 0. -1.
         25    1    1    2    0    0 -0.16103048172E+03  0.36252944528E+01  0.34233618870E+03  0.39845078102E+03  0.12500000000E+03 0.  0.
         25    1    1    2    0    0  0.19742950297E+03 -0.15452615357E+03  0.12273823575E+04  0.12589476527E+04  0.12500000000E+03 0.  0.
         25    1    1    2    0    0 -0.36399021255E+02  0.15090085911E+03  0.51406093774E+03  0.55134345533E+03  0.12500000000E+03 0.  0.
</event>
<event>
 5    0  0.5619558E-005  0.3983908E+03  0.7546771E-02  0.1044338E+00
         21   -1    0    0  502  501  0.00000000000E+00  0.00000000000E+00  0.14340718267E+03  0.14340718267E+03  0.00000000000E+00 0. -1.
         21   -1    0    0  501  502 -0.00000000000E+00 -0.00000000000E+00 -0.11067454738E+04  0.11067454738E+04  0.00000000000E+00 0. -1.
         25    1    1    2    0    0 -0.13870228852E+03  0.72634511405E+02 -0.36660514846E+03  0.41777796970E+03  0.12500000000E+03 0.  0.
         25    1    1    2    0    0  0.26241378493E+03  0.12432931893E+03 -0.31687452042E+03  0.44760835086E+03  0.12500000000E+03 0.  0.
         25    1    1    2    0    0 -0.12371149641E+03 -0.19696383034E+03 -0.27985862227E+03  0.38476633593E+03  0.12500000000E+03 0.  0.
</event>
<event>
 5    0  0.5929943E-005  0.4694619E+03  0.7546771E-02  0.1022072E+00
         21   -1    0    0  502  501  0.00000000000E+00  0.00000000000E+00  0.13202561444E+04  0.13202561444E+04  0.00000000000E+00 0.  1.
         21   -1    0    0  501  502 -0.00000000000E+00 -0.00000000000E+00 -0.16693313261E+03  0.16693313261E+03  0.00000000000E+00 0.  1.
         25    1    1    2    0    0  0.17790416591E+03  0.20886849468E+03  0.47670206642E+03  0.56404414761E+03  0.12500000000E+03 0.  0.
         25    1    1    2    0    0 -0.25233330909E+03 -0.72488239970E+02  0.66218262903E+03  0.72321330049E+03  0.12500000000E+03 0.  0.
         25    1    1    2    0    0  0.74429143180E+02 -0.13638025471E+03  0.14438316316E+02  0.19993182890E+03  0.12500000000E+03 0.  0.
</event>
<event>
 5    0  0.5619558E-005  0.5477482E+03  0.7546771E-02  0.1002016E+00
         21   -1    0    0  502  501  0.00000000000E+00  0.00000000000E+00  0.24461593264E+03  0.24461593264E+03  0.00000000000E+00 0.  1.
         21   -1    0    0  501  502 -0.00000000000E+00 -0.00000000000E+00 -0.12265269738E+04  0.12265269738E+04  0.00000000000E+00 0.  1.
         25    1    1    2    0    0  0.17147691686E+03  0.11690230957E+03 -0.12900676825E+03  0.27447810342E+03  0.12500000000E+03 0.  0.
         25    1    1    2    0    0 -0.43265598531E+03 -0.24931880143E+03 -0.45472750067E+03  0.68684289778E+03  0.12500000000E+03 0.  0.
         25    1    1    2    0    0  0.26117906844E+03  0.13241649186E+03 -0.39817677224E+03  0.50982190523E+03  0.12500000000E+03 0.  0.
</event>
<event>
 5    0  0.5619558E-005  0.4140414E+03  0.7546771E-02  0.1039023E+00
         21   -1    0    0  502  501  0.00000000000E+00  0.00000000000E+00  0.47419828824E+03  0.47419828824E+03  0.00000000000E+00 0.  1.
         21   -1    0    0  501  502 -0.00000000000E+00 -0.00000000000E+00 -0.36151608492E+03  0.36151608492E+03  0.00000000000E+00 0.  1.
         25    1    1    2    0    0 -0.15193887112E+03  0.23720738006E+03  0.13072775691E+03  0.33476485499E+03  0.12500000000E+03 0.  0.
         25    1    1    2    0    0 -0.93415417528E+02 -0.79663771976E+02  0.36717149613E+02  0.17901370303E+03  0.12500000000E+03 0.  0.
         25    1    1    2    0    0  0.24535428865E+03 -0.15754360808E+03 -0.54762703195E+02  0.32193581513E+03  0.12500000000E+03 0.  0.
</event>
<event>
 5    0  0.7129578E-005  0.6299887E+03  0.7546771E-02  0.9845071E-01
         21   -1    0    0  502  501  0.00000000000E+00  0.00000000000E+00  0.47860843000E+03  0.47860843000E+03  0.00000000000E+00 0. -1.
         21   -1    0    0  501  502 -0.00000000000E+00 -0.00000000000E+00 -0.82924934738E+03  0.82924934738E+03  0.00000000000E+00 0. -1.
         25    1    1    2    0    0 -0.13269771001E+02 -0.11081925466E+03  0.25838101909E+03  0.30796549328E+03  0.12500000000E+03 0.  0.
         25    1    1    2    0    0 -0.27683465679E+03 -0.18642939327E+03 -0.23263959460E+03  0.42560489524E+03  0.12500000000E+03 0.  0.
         25    1    1    2    0    0  0.29010442779E+03  0.29724864794E+03 -0.37638234188E+03  0.57428738886E+03  0.12500000000E+03 0.  0.
</event>
<event>
 5    0  0.5619558E-005  0.2446409E+03  0.7546771E-02  0.1116739E+00
         21   -1    0    0  502  501  0.00000000000E+00  0.00000000000E+00  0.59008236064E+03  0.59008236064E+03  0.00000000000E+00 0.  1.
         21   -1    0    0  501  502 -0.00000000000E+00 -0.00000000000E+00 -0.10142514017E+03  0.10142514017E+03  0.00000000000E+00 0.  1.
         25    1    1    2    0    0 -0.10761458295E+03 -0.85574759461E+01  0.28942331525E+03  0.33323412831E+03  0.12500000000E+03 0.  0.
         25    1    1    2    0    0  0.98961683620E+02 -0.35220202066E+02  0.12915291329E+03  0.20818105694E+03  0.12500000000E+03 0.  0.
         25    1    1    2    0    0  0.86528993318E+01  0.43777678012E+02  0.70080991928E+02  0.15009231555E+03  0.12500000000E+03 0.  0.
</event>
<event>
 5    0  0.5619558E-005  0.2750519E+03  0.7546771E-02  0.1098423E+00
         21   -1    0    0  502  501  0.00000000000E+00  0.00000000000E+00  0.33008329946E+03  0.33008329946E+03  0.00000000000E+00 0.  1.
         21   -1    0    0  501  502 -0.00000000000E+00 -0.00000000000E+00 -0.22919537185E+03  0.22919537185E+03  0.00000000000E+00 0.  1.
         25    1    1    2    0    0  0.14137775544E+03 -0.51516768578E+02  0.91721981997E+02  0.21605455135E+03  0.12500000000E+03 0.  0.
         25    1    1    2    0    0 -0.87590995619E+02  0.10579225257E+03  0.47690339386E+02  0.19173823742E+03  0.12500000000E+03 0.  0.
         25    1    1    2    0    0 -0.53786759816E+02 -0.54275483989E+02 -0.38524393777E+02  0.15148588254E+03  0.12500000000E+03 0.  0.
</event>
<event>
 5    0  0.5619558E-005  0.2920211E+03  0.7546771E-02  0.1089299E+00
         21   -1    0    0  502  501  0.00000000000E+00  0.00000000000E+00  0.13826811315E+04  0.13826811315E+04  0.00000000000E+00 0. -1.
         21   -1    0    0  501  502 -0.00000000000E+00 -0.00000000000E+00 -0.61674600458E+02  0.61674600458E+02  0.00000000000E+00 0. -1.
         25    1    1    2    0    0  0.28704258085E+02  0.20181639556E+03  0.40549050747E+03  0.47074551894E+03  0.12500000000E+03 0.  0.
         25    1    1    2    0    0 -0.14715291890E+02 -0.14348668039E+03  0.47993442273E+03  0.51649493452E+03  0.12500000000E+03 0.  0.
         25    1    1    2    0    0 -0.13988966195E+02 -0.58329715168E+02  0.43558160084E+03  0.45711527850E+03  0.12500000000E+03 0.  0.
</event>
<event>
 5    0  0.5619558E-005  0.2908697E+03  0.7546771E-02  0.1089896E+00
         21   -1    0    0  502  501  0.00000000000E+00  0.00000000000E+00  0.12259605996E+04  0.12259605996E+04  0.00000000000E+00 0.  1.
         21   -1    0    0  501  502 -0.00000000000E+00 -0.00000000000E+00 -0.69011329051E+02  0.69011329051E+02  0.00000000000E+00 0.  1.
         25    1    1    2    0    0  0.16927897626E+03  0.64669234226E+01  0.44567368583E+03  0.49289677129E+03  0.12500000000E+03 0.  0.
         25    1    1    2    0    0 -0.66429717705E+02  0.90862430429E+02  0.44400474683E+03  0.47479901418E+03  0.12500000000E+03 0.  0.
         25    1    1    2    0    0 -0.10284925856E+03 -0.97329353852E+02  0.26727083784E+03  0.32727614314E+03  0.12500000000E+03 0.  0.
</event>
<event>
 5    0  0.5619558E-005  0.6113767E+03  0.7546771E-02  0.9882080E-01
         21   -1    0    0  502  501  0.00000000000E+00  0.00000000000E+00  0.28540434692E+03  0.28540434692E+03  0.00000000000E+00 0.  1.
         21   -1    0    0  501  502 -0.00000000000E+00 -0.00000000000E+00 -0.13096559752E+04  0.13096559752E+04  0.00000000000E+00 0.  1.
         25    1    1    2    0    0 -0.23006695336E+03 -0.20760154136E+03  0.22083452320E+02  0.33487592011E+03  0.12500000000E+03 0.  0.
         25    1    1    2    0    0  0.36838976505E+03  0.29274908089E+03 -0.82940457605E+03  0.96174320592E+03  0.12500000000E+03 0.  0.
         25    1    1    2    0    0 -0.13832281169E+03 -0.85147539528E+02 -0.21693050458E+03  0.29844119611E+03  0.12500000000E+03 0.  0.
</event>
<event>
 5    0  0.5619558E-005  0.2789689E+03  0.7546771E-02  0.1096253E+00
         21   -1    0    0  502  501  0.00000000000E+00  0.00000000000E+00  0.39975834020E+03  0.39975834020E+03  0.00000000000E+00 0.  1.
         21   -1    0    0  501  502 -0.00000000000E+00 -0.00000000000E+00 -0.19467679928E+03  0.19467679928E+03  0.00000000000E+00 0.  1.
         25    1    1    2    0    0 -0.65182942646E+02 -0.97109457512E+00  0.24406298965E+03  0.28185368891E+03  0.12500000000E+03 0.  0.
         25    1    1    2    0    0  0.50983100407E+02  0.56054446035E+02 -0.83338944072E+02  0.16826097898E+03  0.12500000000E+03 0.  0.
         25    1    1    2    0    0  0.14199842238E+02 -0.55083351460E+02  0.44357495346E+02  0.14432047159E+03  0.12500000000E+03 0.  0.
</event>
<event>
 5    0  0.5619558E-005  0.5942253E+03  0.7546771E-02  0.9917460E-01
         21   -1    0    0  502  501  0.00000000000E+00  0.00000000000E+00  0.44195088951E+03  0.44195088951E+03  0.00000000000E+00 0.  1.
         21   -1    0    0  501  502 -0.00000000000E+00 -0.00000000000E+00 -0.79896600901E+03  0.79896600901E+03  0.00000000000E+00 0.  1.
         25    1    1    2    0    0 -0.30755686396E+03 -0.93041264138E+02 -0.39025122620E+03  0.52073882221E+03  0.12500000000E+03 0.  0.
         25    1    1    2    0    0 -0.10981416822E+03 -0.13778870234E+03  0.66399634886E+02  0.22600617148E+03  0.12500000000E+03 0.  0.
         25    1    1    2    0    0  0.41737103218E+03  0.23082996648E+03 -0.33163528178E+02  0.49417190483E+03  0.12500000000E+03 0.  0.
</event>
<event>
 5    0  0.5925818E-005  0.5171491E+03  0.7546771E-02  0.1009397E+00
         21   -1    0    0  502  501  0.00000000000E+00  0.00000000000E+00  0.10887716833E+04  0.10887716833E+04  0.00000000000E+00 0. -1.
         21   -1    0    0  501  502 -0.00000000000E+00 -0.00000000000E+00 -0.24563753730E+03  0.24563753730E+03  0.00000000000E+00 0. -1.
         25    1    1    2    0    0 -0.70348625025E+01 -0.20116138141E+03  0.61013018277E+03  0.65452213911E+03  0.12500000000E+03 0.  0.
         25    1    1    2    0    0  0.24482396365E+03  0.52206847737E+02  0.24581771979E+03  0.37244553896E+03  0.12500000000E+03 0.  0.
         25    1    1    2    0    0 -0.23778910115E+03  0.14895453367E+03 -0.12813756538E+02  0.30744154255E+03  0.12500000000E+03 0.  0.
</event>
<event>
 5    0  0.5619558E-005  0.3569850E+03  0.7546771E-02  0.1059784E+00
         21   -1    0    0  502  501  0.00000000000E+00  0.00000000000E+00  0.15840316683E+03  0.15840316683E+03  0.00000000000E+00 0. -1.
         21   -1    0    0  501  502 -0.00000000000E+00 -0.00000000000E+00 -0.80451839321E+03  0.80451839321E+03  0.00000000000E+00 0. -1.
         25    1    1    2    0    0  0.12210052594E+02 -0.28074224337E+03 -0.27398352632E+03  0.41189472598E+03  0.12500000000E+03 0.  0.
         25    1    1    2    0    0 -0.82109340835E+02  0.15638554258E+03 -0.20928984447E+03  0.30104089552E+03  0.12500000000E+03 0.  0.
         25    1    1    2    0    0  0.69899288241E+02  0.12435670079E+03 -0.16284185560E+03  0.24998593853E+03  0.12500000000E+03 0.  0.
</event>
<event>
 5    0  0.5619558E-005  0.4578878E+03  0.7546771E-02  0.1025396E+00
         21   -1    0    0  502  501  0.00000000000E+00  0.00000000000E+00  0.24956333668E+04  0.24956333668E+04  0.00000000000E+00 0.  1.
         21   -1    0    0  501  502 -0.00000000000E+00 -0.00000000000E+00 -0.84011226318E+02  0.84011226318E+02  0.00000000000E+00 0.  1.
         25    1    1    2    0    0 -0.22477223215E+03 -0.19536659957E+03  0.62383533856E+03  0.70248572527E+03  0.12500000000E+03 0.  0.
         25    1    1    2    0    0  0.33326241853E+03  0.66317441113E+02  0.11642693619E+04  0.12192661685E+04  0.12500000000E+03 0.  0.
         25    1    1    2    0    0 -0.10849018638E+03  0.12904915846E+03  0.62351744011E+03  0.65789269943E+03  0.12500000000E+03 0.  0.
</event>
<event>
 5    0  0.5619558E-005  0.5517117E+03  0.7546771E-02  0.1001099E+00
         21   -1    0    0  502  501  0.00000000000E+00  0.00000000000E+00  0.57830149688E+03  0.57830149688E+03  0.00000000000E+00 0.  1.
         21   -1    0    0  501  502 -0.00000000000E+00 -0.00000000000E+00 -0.52634450478E+03  0.52634450478E+03  0.00000000000E+00 0.  1.
         25    1    1    2    0    0  0.15094060169E+03  0.24741203490E+03 -0.25923681919E+03  0.40844156090E+03  0.12500000000E+03 0.  0.
         25    1    1    2    0    0  0.11695081244E+03  0.70946566388E+02  0.62179263966E+02  0.19545375074E+03  0.12500000000E+03 0.  0.
         25    1    1    2    0    0 -0.26789141413E+03 -0.31835860128E+03  0.24901454732E+03  0.50075069002E+03  0.12500000000E+03 0.  0.
</event>
<event>
 5    0  0.5619558E-005  0.2394362E+03  0.7546771E-02  0.1120169E+00
         21   -1    0    0  502  501  0.00000000000E+00  0.00000000000E+00  0.20667767929E+03  0.20667767929E+03  0.00000000000E+00 0. -1.
         21   -1    0    0  501  502 -0.00000000000E+00 -0.00000000000E+00 -0.27738693496E+03  0.27738693496E+03  0.00000000000E+00 0. -1.
         25    1    1    2    0    0 -0.91354679019E+02  0.16931916717E+01  0.23061749230E+02  0.15654197058E+03  0.12500000000E+03 0.  0.
         25    1    1    2    0    0  0.95214175687E+02  0.66240410462E+02 -0.38283898761E+02  0.17476895644E+03  0.12500000000E+03 0.  0.
         25    1    1    2    0    0 -0.38594966685E+01 -0.67933602134E+02 -0.55487106140E+02  0.15275368723E+03  0.12500000000E+03 0.  0.
</event>
<event>
 5    0  0.5619558E-005  0.2678330E+03  0.7546771E-02  0.1102526E+00
         21   -1    0    0  502  501  0.00000000000E+00  0.00000000000E+00  0.78606789329E+03  0.78606789329E+03  0.00000000000E+00 0.  1.
         21   -1    0    0  501  502 -0.00000000000E+00 -0.00000000000E+00 -0.91257395302E+02  0.91257395302E+02  0.00000000000E+00 0.  1.
         25    1    1    2    0    0 -0.44133905982E+02 -0.58544747384E+02  0.52895553337E+03  0.54844712178E+03  0.12500000000E+03 0.  0.
         25    1    1    2    0    0  0.76844045523E+02  0.15094551612E+02  0.91880406233E+02  0.17378107455E+03  0.12500000000E+03 0.  0.
         25    1    1    2    0    0 -0.32710139541E+02  0.43450195772E+02  0.73974558380E+02  0.15509709226E+03  0.12500000000E+03 0.  0.
</event>
<event>
 5    0  0.5619558E-005  0.2561471E+03  0.7546771E-02  0.1109480E+00
         21   -1    0    0  502  501  0.00000000000E+00  0.00000000000E+00  0.58701772392E+02  0.58701772392E+02  0.00000000000E+00 0.  1.
         21   -1    0    0  501  502 -0.00000000000E+00 -0.00000000000E+00 -0.11177060323E+04  0.11177060323E+04  0.00000000000E+00 0.  1.
         25    1    1    2    0    0 -0.20047706475E+01 -0.11102686293E+03 -0.45710094376E+03  0.48672092228E+03  0.12500000000E+03 0.  0.
         25    1    1    2    0    0 -0.49141244130E+02  0.51524626807E+02 -0.12536093102E+03  0.19081407723E+03  0.12500000000E+03 0.  0.
         25    1    1    2    0    0  0.51146014778E+02  0.59502236123E+02 -0.47654238514E+03  0.49887280520E+03  0.12500000000E+03 0.  0.
</event>
<event>
 5    0  0.5888870E-005  0.3310247E+03  0.7546771E-02  0.1070684E+00
         21   -1    0    0  502  501  0.00000000000E+00  0.00000000000E+00  0.54845879826E+03  0.54845879826E+03  0.00000000000E+00 0.  1.
         21   -1    0    0  501  502 -0.00000000000E+00 -0.00000000000E+00 -0.19979134573E+03  0.19979134573E+03  0.00000000000E+00 0.  1.
         25    1    1    2    0    0  0.95286201144E+02 -0.27242889322E+02 -0.65328532308E+02  0.17237880462E+03  0.12500000000E+03 0.  0.
         25    1    1    2    0    0 -0.36722562507E+02 -0.52891095812E+02  0.93923636231E+01  0.14092278420E+03  0.12500000000E+03 0.  0.
         25    1    1    2    0    0 -0.58563638637E+02  0.80133985133E+02  0.40460362122E+03  0.43494855517E+03  0.12500000000E+03 0.  0.
</event>
<event>
 5    0  0.5619558E-005  0.2760427E+03  0.7546771E-02  0.1097870E+00
         21   -1    0    0  502  501  0.00000000000E+00  0.00000000000E+00  0.99698003816E+02  0.99698003816E+02  0.00000000000E+00 0.  1.
         21   -1    0    0  501  502 -0.00000000000E+00 -0.00000000000E+00 -0.76430398826E+03  0.76430398826E+03  0.00000000000E+00 0.  1.
         25    1    1    2    0    0 -0.21171873536E+02 -0.22280628536E+02 -0.54935837858E+02  0.13995578201E+03  0.12500000000E+03 0.  0.
         25    1    1    2    0    0  0.29972899361E+02  0.15648518464E+03 -0.26500836921E+03  0.33352724546E+03  0.12500000000E+03 0.  0.
         25    1    1    2    0    0 -0.88010258260E+01 -0.13420455611E+03 -0.34466177737E+03  0.39051896461E+03  0.12500000000E+03 0.  0.
</event>
<event>
 5    0  0.5619558E-005  0.2485583E+03  0.7546771E-02  0.1114219E+00
         21   -1    0    0  502  501  0.00000000000E+00  0.00000000000E+00  0.11332182926E+03  0.11332182926E+03  0.00000000000E+00 0. -1.
         21   -1    0    0  501  502 -0.00000000000E+00 -0.00000000000E+00 -0.54518374925E+03  0.54518374925E+03  0.00000000000E+00 0. -1.
         25    1    1    2    0    0  0.16990895378E+02  0.42012321164E+02  0.29842812521E+01  0.13299485550E+03  0.12500000000E+03 0.  0.
         25    1    1    2    0    0  0.33501234249E+02 -0.80715550062E+02 -0.25909146188E+03  0.30065049199E+03  0.12500000000E+03 0.  0.
         25    1    1    2    0    0 -0.50492129627E+02  0.38703228898E+02 -0.17575473937E+03  0.22486023102E+03  0.12500000000E+03 0.  0.
</event>
<event>
 5    0  0.5619558E-005  0.2908047E+03  0.7546771E-02  0.1089930E+00
         21   -1    0    0  502  501  0.00000000000E+00  0.00000000000E+00  0.17257501453E+03  0.17257501453E+03  0.00000000000E+00 0. -1.
         21   -1    0    0  501  502 -0.00000000000E+00 -0.00000000000E+00 -0.49003269696E+03  0.49003269696E+03  0.00000000000E+00 0. -1.
         25    1    1    2    0    0 -0.32930129180E+01 -0.50954868162E+02 -0.18133367528E+03  0.22608437433E+03  0.12500000000E+03 0.  0.
         25    1    1    2    0    0  0.76760608409E+02  0.13766446120E+03 -0.17099310137E+03  0.26402146806E+03  0.12500000000E+03 0.  0.
         25    1    1    2    0    0 -0.73467595491E+02 -0.86709593034E+02  0.34869094221E+02  0.17250186910E+03  0.12500000000E+03 0.  0.
</event>
<event>
 5    0  0.5619558E-005  0.2514004E+03  0.7546771E-02  0.1112423E+00
         21   -1    0    0  502  501  0.00000000000E+00  0.00000000000E+00  0.11586214886E+04  0.11586214886E+04  0.00000000000E+00 0.  1.
         21   -1    0    0  501  502 -0.00000000000E+00 -0.00000000000E+00 -0.54549466471E+02  0.54549466471E+02  0.00000000000E+00 0.  1.
         25    1    1    2    0    0 -0.10206416269E+03 -0.11129126131E+02  0.50270324968E+03  0.52808759500E+03  0.12500000000E+03 0.  0.
         25    1    1    2    0    0  0.73522191746E+02 -0.22946336827E+01  0.50137392355E+03  0.52193063642E+03  0.12500000000E+03 0.  0.
         25    1    1    2    0    0  0.28541970939E+02  0.13423759813E+02  0.99994848944E+02  0.16315272369E+03  0.12500000000E+03 0.  0.
</event>
<event>
 5    0  0.5619558E-005  0.2836494E+03  0.7546771E-02  0.1093712E+00
         21   -1    0    0  502  501  0.00000000000E+00  0.00000000000E+00  0.18449290335E+03  0.18449290335E+03  0.00000000000E+00 0. -1.
         21   -1    0    0  501  502 -0.00000000000E+00 -0.00000000000E+00 -0.43609810416E+03  0.43609810416E+03  0.00000000000E+00 0. -1.
         25    1    1    2    0    0  0.94436493347E+02  0.12789482307E+03  0.63914288909E+01  0.20233928785E+03  0.12500000000E+03 0.  0.
         25    1    1    2    0    0 -0.10288446186E+03 -0.63469544909E+02 -0.20229108714E+03  0.26675884158E+03  0.12500000000E+03 0.  0.
         25    1    1    2    0    0  0.84479685089E+01 -0.64425278163E+02 -0.55705542562E+02  0.15149287808E+03  0.12500000000E+03 0.  0.
</event>
<event>
 5    0  0.5619558E-005  0.3636668E+03  0.7546771E-02  0.1057141E+00
         21   -1    0    0  502  501  0.00000000000E+00  0.00000000000E+00  0.18892455194E+03  0.18892455194E+03  0.00000000000E+00 0.  1.
         21   -1    0    0  501  502 -0.00000000000E+00 -0.00000000000E+00 -0.70003371003E+03  0.70003371003E+03  0.00000000000E+00 0.  1.
         25    1    1    2    0    0 -0.15639785249E+03  0.84673147613E+02  0.42923936878E+02  0.22157909321E+03  0.12500000000E+03 0.  0.
         25    1    1    2    0    0  0.21990117171E+02 -0.83396341969E+02 -0.39965315009E+03  0.42753497575E+03  0.12500000000E+03 0.  0.
         25    1    1    2    0    0  0.13440773532E+03 -0.12768056436E+01 -0.15437994488E+03  0.23984419302E+03  0.12500000000E+03 0.  0.
</event>
<event>
 5    0  0.5619558E-005  0.4582766E+03  0.7546771E-02  0.1025282E+00
         21   -1    0    0  502  501  0.00000000000E+00  0.00000000000E+00  0.27368444271E+03  0.27368444271E+03  0.00000000000E+00 0.  1.
         21   -1    0    0  501  502 -0.00000000000E+00 -0.00000000000E+00 -0.76737083701E+03  0.76737083701E+03  0.00000000000E+00 0.  1.
         25    1    1    2    0    0 -0.21347880263E+03 -0.23447417492E+03 -0.15565095892E+03  0.37470462886E+03  0.12500000000E+03 0.  0.
         25    1    1    2    0    0 -0.44015124436E+02 -0.75285270922E+02 -0.85107568477E+02  0.17456661023E+03  0.12500000000E+03 0.  0.
         25    1    1    2    0    0  0.25749392706E+03  0.30975944584E+03 -0.25292786691E+03  0.49178404063E+03  0.12500000000E+03 0.  0.
</event>
<event>
 5    0  0.5619558E-005  0.3425463E+03  0.7546771E-02  0.1065717E+00
         21   -1    0    0  502  501  0.00000000000E+00  0.00000000000E+00  0.25575066443E+03  0.25575066443E+03  0.00000000000E+00 0. -1.
         21   -1    0    0  501  502 -0.00000000000E+00 -0.00000000000E+00 -0.45879832034E+03  0.45879832034E+03  0.00000000000E+00 0. -1.
         25    1    1    2    0    0  0.15364303877E+03 -0.15529986792E+03 -0.11297417533E+03  0.27588475244E+03  0.12500000000E+03 0.  0.
         25    1    1    2    0    0  0.48651730563E+02  0.79459371822E+02 -0.10605071516E+03  0.18855380358E+03  0.12500000000E+03 0.  0.
         25    1    1    2    0    0 -0.20229476933E+03  0.75840496099E+02  0.15977234582E+02  0.25011042875E+03  0.12500000000E+03 0.  0.
</event>
<event>
 5    0  0.5619558E-005  0.2439485E+03  0.7546771E-02  0.1117190E+00
         21   -1    0    0  502  501  0.00000000000E+00  0.00000000000E+00  0.81038385810E+02  0.81038385810E+02  0.00000000000E+00 0.  1.
         21   -1    0    0  501  502 -0.00000000000E+00 -0.00000000000E+00 -0.73435401298E+03  0.73435401298E+03  0.00000000000E+00 0.  1.
         25    1    1    2    0    0  0.61193936059E+02  0.27874958582E+02 -0.41464546357E+02  0.14787163261E+03  0.12500000000E+03 0.  0.
         25    1    1    2    0    0  0.15226090354E+01 -0.54397384000E+01 -0.29648204655E+03  0.32180508545E+03  0.12500000000E+03 0.  0.
         25    1    1    2    0    0 -0.62716545094E+02 -0.22435220182E+02 -0.31536903426E+03  0.34571568074E+03  0.12500000000E+03 0.  0.
</event>
<event>
 5    0  0.5619558E-005  0.2655726E+03  0.7546771E-02  0.1103841E+00
         21   -1    0    0  502  501  0.00000000000E+00  0.00000000000E+00  0.51490560388E+02  0.51490560388E+02  0.00000000000E+00 0. -1.
         21   -1    0    0  501  502 -0.00000000000E+00 -0.00000000000E+00 -0.13697421326E+04  0.13697421326E+04  0.00000000000E+00 0. -1.
         25    1    1    2    0    0  0.83918846304E+02 -0.54187895895E+02 -0.14165868939E+03  0.21370747555E+03  0.12500000000E+03 0.  0.
         25    1    1    2    0    0 -0.38274035702E+02  0.44668718961E+02 -0.59744581277E+03  0.61321015603E+03  0.12500000000E+03 0.  0.
         25    1    1    2    0    0 -0.45644810602E+02  0.95191769344E+01 -0.57914707007E+03  0.59431506142E+03  0.12500000000E+03 0.  0.
</event>
<event>
 5    0  0.5619558E-005  0.4163053E+03  0.7546771E-02  0.1038276E+00
         21   -1    0    0  502  501  0.00000000000E+00  0.00000000000E+00  0.76497451486E+03  0.76497451486E+03  0.00000000000E+00 0. -1.
         21   -1    0    0  501  502 -0.00000000000E+00 -0.00000000000E+00 -0.22655669223E+03  0.22655669223E+03  0.00000000000E+00 0. -1.
         25    1    1    2    0    0 -0.14492399964E+03 -0.30997707776E+03  0.23803466575E+03  0.43517152539E+03  0.12500000000E+03 0.  0.
         25    1    1    2    0    0 -0.29633455889E+02  0.15281499146E+03  0.15791755842E+03  0.25454571020E+03  0.12500000000E+03 0.  0.
         25    1    1    2    0    0  0.17455745552E+03  0.15716208630E+03  0.14246559846E+03  0.30181397150E+03  0.12500000000E+03 0.  0.
</event>
<event>
 5    0  0.5619558E-005  0.3032625E+03  0.7546771E-02  0.1083621E+00
         21   -1    0    0  502  501  0.00000000000E+00  0.00000000000E+00  0.15325121905E+03  0.15325121905E+03  0.00000000000E+00 0. -1.
         21   -1    0    0  501  502 -0.00000000000E+00 -0.00000000000E+00 -0.60011361367E+03  0.60011361367E+03  0.00000000000E+00 0. -1.
         25    1    1    2    0    0  0.73536365112E+02  0.12916470513E+03 -0.18909042940E+03  0.27105591404E+03  0.12500000000E+03 0.  0.
         25    1    1    2    0    0 -0.99187058290E+01  0.66385425786E+02 -0.18043755466E+03  0.22953892178E+03  0.12500000000E+03 0.  0.
         25    1    1    2    0    0 -0.63617659283E+02 -0.19555013092E+03 -0.77334410562E+02  0.25276999690E+03  0.12500000000E+03 0.  0.
</event>
<event>
 5    0  0.5619558E-005  0.3021840E+03  0.7546771E-02  0.1084154E+00
         21   -1    0    0  502  501  0.00000000000E+00  0.00000000000E+00  0.32381880627E+03  0.32381880627E+03  0.00000000000E+00 0.  1.
         21   -1    0    0  501  502 -0.00000000000E+00 -0.00000000000E+00 -0.28199464657E+03  0.28199464657E+03  0.00000000000E+00 0.  1.
         25    1    1    2    0    0  0.18016530388E+02  0.72435773551E+02 -0.76910390508E+02  0.16465644483E+03  0.12500000000E+03 0.  0.
         25    1    1    2    0    0  0.55036021818E+02  0.96374580215E+02  0.13960366357E+03  0.21778706640E+03  0.12500000000E+03 0.  0.
         25    1    1    2    0    0 -0.73052552206E+02 -0.16881035377E+03 -0.20869113359E+02  0.22336994161E+03  0.12500000000E+03 0.  0.
</event>
<event>
 5    0  0.5619558E-005  0.4403328E+03  0.7546771E-02  0.1030645E+00
         21   -1    0    0  502  501  0.00000000000E+00  0.00000000000E+00  0.17470459122E+04  0.17470459122E+04  0.00000000000E+00 0. -1.
         21   -1    0    0  501  502 -0.00000000000E+00 -0.00000000000E+00 -0.11098330676E+03  0.11098330676E+03  0.00000000000E+00 0. -1.
         25    1    1    2    0    0  0.27159793461E+02  0.14982194247E+03  0.93969135678E+03  0.96011932323E+03  0.12500000000E+03 0.  0.
         25    1    1    2    0    0 -0.31059610322E+02 -0.25296852955E+03  0.13639075303E+03  0.31493684105E+03  0.12500000000E+03 0.  0.
         25    1    1    2    0    0  0.38998168608E+01  0.10314658708E+03  0.55998049568E+03  0.58297305473E+03  0.12500000000E+03 0.  0.
</event>
<event>
 5    0  0.5619558E-005  0.3384960E+03  0.7546771E-02  0.1067438E+00
         21   -1    0    0  502  501  0.00000000000E+00  0.00000000000E+00  0.10539499337E+03  0.10539499337E+03  0.00000000000E+00 0. -1.
         21   -1    0    0  501  502 -0.00000000000E+00 -0.00000000000E+00 -0.10871443726E+04  0.10871443726E+04  0.00000000000E+00 0. -1.
         25    1    1    2    0    0 -0.20892615908E+03  0.35269695054E+02 -0.22656642886E+03  0.33444198005E+03  0.12500000000E+03 0.  0.
         25    1    1    2    0    0  0.18708981460E+03 -0.11988414951E+03 -0.47251055605E+03  0.53690411957E+03  0.12500000000E+03 0.  0.
         25    1    1    2    0    0  0.21836344479E+02  0.84614454457E+02 -0.28267239432E+03  0.32119326636E+03  0.12500000000E+03 0.  0.
</event>
<event>
 5    0  0.5619558E-005  0.3088486E+03  0.7546771E-02  0.1080899E+00
         21   -1    0    0  502  501  0.00000000000E+00  0.00000000000E+00  0.21942139222E+03  0.21942139222E+03  0.00000000000E+00 0.  1.
         21   -1    0    0  501  502 -0.00000000000E+00 -0.00000000000E+00 -0.43472254977E+03  0.43472254977E+03  0.00000000000E+00 0.  1.
         25    1    1    2    0    0 -0.25056824419E+02  0.10061810981E+02  0.19992579039E+02  0.12943642342E+03  0.12500000000E+03 0.  0.
         25    1    1    2    0    0  0.24955363340E+02  0.18994155050E+03 -0.80060119352E+02  0.24235343092E+03  0.12500000000E+03 0.  0.
         25    1    1    2    0    0  0.10146107921E+00 -0.20000336148E+03 -0.15523361724E+03  0.28235408766E+03  0.12500000000E+03 0.  0.
</event>
<event>
 5    0  0.5619558E-005  0.2848690E+03  0.7546771E-02  0.1093059E+00
         21   -1    0    0  502  501  0.00000000000E+00  0.00000000000E+00  0.54478882468E+03  0.54478882468E+03  0.00000000000E+00 0. -1.
         21   -1    0    0  501  502 -0.00000000000E+00 -0.00000000000E+00 -0.14895740632E+03  0.14895740632E+03  0.00000000000E+00 0. -1.
         25    1    1    2    0    0 -0.72520773287E+01  0.10004534503E+03  0.25970447406E+02  0.16236110318E+03  0.12500000000E+03 0.  0.
         25    1    1    2    0    0  0.45114536486E+02 -0.17844803289E+03  0.16956930478E+03  0.27974590429E+03  0.12500000000E+03 0.  0.
         25    1    1    2    0    0 -0.37862459157E+02  0.78402687862E+02  0.20029166618E+03  0.25163922353E+03  0.12500000000E+03 0.  0.
</event>
<event>
 5    0  0.5619558E-005  0.2373316E+03  0.7546771E-02  0.1121583E+00
         21   -1    0    0  502  501  0.00000000000E+00  0.00000000000E+00  0.40629845984E+03  0.40629845984E+03  0.00000000000E+00 0.  1.
         21   -1    0    0  501  502 -0.00000000000E+00 -0.00000000000E+00 -0.13863283600E+03  0.13863283600E+03  0.00000000000E+00 0.  1.
         25    1    1    2    0    0  0.12944304445E+02 -0.56384914719E+02  0.13762133753E+03  0.19470861863E+03  0.12500000000E+03 0.  0.
         25    1    1    2    0    0 -0.46589477596E+02 -0.45054786058E+02  0.12076976957E+03  0.18550161835E+03  0.12500000000E+03 0.  0.
         25    1    1    2    0    0  0.33645173151E+02  0.10143970078E+03  0.92745167425E+01  0.16472105886E+03  0.12500000000E+03 0.  0.
</event>
<event>
 5    0  0.5619558E-005  0.3845238E+03  0.7546771E-02  0.1049274E+00
         21   -1    0    0  502  501  0.00000000000E+00  0.00000000000E+00  0.75075498149E+03  0.75075498149E+03  0.00000000000E+00 0.  1.
         21   -1    0    0  501  502 -0.00000000000E+00 -0.00000000000E+00 -0.19694645080E+03  0.19694645080E+03  0.00000000000E+00 0.  1.
         25    1    1    2    0    0  0.49519219339E+02  0.10497541630E+03 -0.65117572107E+02  0.18258501940E+03  0.12500000000E+03 0.  0.
         25    1    1    2    0    0 -0.11848381086E+03 -0.10498727542E+03  0.58441087442E+03  0.61824090093E+03  0.12500000000E+03 0.  0.
         25    1    1    2    0    0  0.68964591523E+02  0.11859120582E-01  0.34515228386E+02  0.14687551197E+03  0.12500000000E+03 0.  0.
</event>
<event>
 5    0  0.5619558E-005  0.2610631E+03  0.7546771E-02  0.1106506E+00
         21   -1    0    0  502  501  0.00000000000E+00  0.00000000000E+00  0.54848527571E+02  0.54848527571E+02  0.00000000000E+00 0.  1.
         21   -1    0    0  501  502 -0.00000000000E+00 -0.00000000000E+00 -0.12425844893E+04  0.12425844893E+04  0.00000000000E+00 0.  1.
         25    1    1    2    0    0  0.58499687223E+02 -0.10010233200E+02 -0.17242181161E+03  0.22108075288E+03  0.12500000000E+03 0.  0.
         25    1    1    2    0    0 -0.17321810486E+01  0.56587651944E+02 -0.16892365357E+03  0.21763585076E+03  0.12500000000E+03 0.  0.
         25    1    1    2    0    0 -0.56767506175E+02 -0.46577418743E+02 -0.84639049653E+03  0.85871641321E+03  0.12500000000E+03 0.  0.
</event>
<event>
 5    0  0.5619558E-005  0.3764651E+03  0.7546771E-02  0.1052248E+00
         21   -1    0    0  502  501  0.00000000000E+00  0.00000000000E+00  0.25159537202E+04  0.25159537202E+04  0.00000000000E+00 0.  1.
         21   -1    0    0  501  502 -0.00000000000E+00 -0.00000000000E+00 -0.56330923867E+02  0.56330923867E+02  0.00000000000E+00 0.  1.
         25    1    1    2    0    0 -0.68467693263E+02 -0.27009591632E+03  0.71499945853E+03  0.77748881326E+03  0.12500000000E+03 0.  0.
         25    1    1    2    0    0 -0.45181948752E+02  0.19042808508E+03  0.10607996557E+04  0.10859213478E+04  0.12500000000E+03 0.  0.
         25    1    1    2    0    0  0.11364964202E+03  0.79667831242E+02  0.68382368216E+03  0.70887448307E+03  0.12500000000E+03 0.  0.
</event>
<event>
 5    0  0.5619558E-005  0.3983710E+03  0.7546771E-02  0.1044345E+00
         21   -1    0    0  502  501  0.00000000000E+00  0.00000000000E+00  0.21147530095E+04  0.21147530095E+04  0.00000000000E+00 0.  1.
         21   -1    0    0  501  502 -0.00000000000E+00 -0.00000000000E+00 -0.75043956342E+02  0.75043956342E+02  0.00000000000E+00 0.  1.
         25    1    1    2    0    0 -0.92287840495E+02  0.81360269830E+02  0.76895851595E+02  0.19150590331E+03  0.12500000000E+03 0.  0.
         25    1    1    2    0    0 -0.30374457565E+02 -0.14003478760E+03  0.10073108472E+04  0.10251012108E+04  0.12500000000E+03 0.  0.
         25    1    1    2    0    0  0.12266229806E+03  0.58674517766E+02  0.95550235432E+03  0.97318985173E+03  0.12500000000E+03 0.  0.
</event>
<event>
 5    0  0.5619558E-005  0.4235608E+03  0.7546771E-02  0.1035914E+00
         21   -1    0    0  502  501  0.00000000000E+00  0.00000000000E+00  0.98988481931E+02  0.98988481931E+02  0.00000000000E+00 0. -1.
         21   -1    0    0  501  502 -0.00000000000E+00 -0.00000000000E+00 -0.18123702611E+04  0.18123702611E+04  0.00000000000E+00 0. -1.
         25    1    1    2    0    0 -0.34524256731E+02  0.12896917753E+02 -0.78760485648E+03  0.79831363808E+03  0.12500000000E+03 0.  0.
         25    1    1    2    0    0  0.19110752697E+03 -0.94865725120E+02 -0.11289217212E+03  0.27182942298E+03  0.12500000000E+03 0.  0.
         25    1    1    2    0    0 -0.15658327024E+03  0.81968807366E+02 -0.81288475060E+03  0.84121568201E+03  0.12500000000E+03 0.  0.
</event>
<event>
 5    0  0.5619558E-005  0.2687590E+03  0.7546771E-02  0.1101992E+00
         21   -1    0    0  502  501  0.00000000000E+00  0.00000000000E+00  0.10448914512E+03  0.10448914512E+03  0.00000000000E+00 0. -1.
         21   -1    0    0  501  502 -0.00000000000E+00 -0.00000000000E+00 -0.69128122368E+03  0.69128122368E+03  0.00000000000E+00 0. -1.
         25    1    1    2    0    0  0.85818204312E+02 -0.25701693485E+02 -0.80723417097E+02  0.17368538023E+03  0.12500000000E+03 0.  0.
         25    1    1    2    0    0  0.18431803457E+02 -0.62752553038E+02 -0.35844914577E+03  0.38521215504E+03  0.12500000000E+03 0.  0.
         25    1    1    2    0    0 -0.10425000777E+03  0.88454246523E+02 -0.14761951570E+03  0.23687283353E+03  0.12500000000E+03 0.  0.
</event>
<event>
 5    0  0.5619558E-005  0.4366331E+03  0.7546771E-02  0.1031785E+00
         21   -1    0    0  502  501  0.00000000000E+00  0.00000000000E+00  0.22652485152E+03  0.22652485152E+03  0.00000000000E+00 0. -1.
         21   -1    0    0  501  502 -0.00000000000E+00 -0.00000000000E+00 -0.84162271437E+03  0.84162271437E+03  0.00000000000E+00 0. -1.
         25    1    1    2    0    0  0.14738510186E+03 -0.98752287767E+02 -0.70348507936E+03  0.73620013547E+03  0.12500000000E+03 0.  0.
         25    1    1    2    0    0 -0.35655566252E+02  0.13006919514E+02  0.49268392411E+02  0.13961688240E+03  0.12500000000E+03 0.  0.
         25    1    1    2    0    0 -0.11172953561E+03  0.85745368253E+02  0.39118824095E+02  0.19233054802E+03  0.12500000000E+03 0.  0.
</event>
<event>
 5    0  0.5619558E-005  0.3442685E+03  0.7546771E-02  0.1064992E+00
         21   -1    0    0  502  501  0.00000000000E+00  0.00000000000E+00  0.76691325572E+02  0.76691325572E+02  0.00000000000E+00 0.  1.
         21   -1    0    0  501  502 -0.00000000000E+00 -0.00000000000E+00 -0.15454263210E+04  0.15454263210E+04  0.00000000000E+00 0.  1.
         25    1    1    2    0    0  0.18493201942E+03 -0.68136855875E+02 -0.24918902583E+03  0.34141273194E+03  0.12500000000E+03 0.  0.
         25    1    1    2    0    0  0.13181331128E+02  0.87134803462E+02 -0.40439253203E+03  0.43234770894E+03  0.12500000000E+03 0.  0.
         25    1    1    2    0    0 -0.19811335054E+03 -0.18997947587E+02 -0.81515343754E+03  0.84835720567E+03  0.12500000000E+03 0.  0.
</event>
<event>
 5    0  0.5619558E-005  0.2534082E+03  0.7546771E-02  0.1111170E+00
         21   -1    0    0  502  501  0.00000000000E+00  0.00000000000E+00  0.10043255177E+03  0.10043255177E+03  0.00000000000E+00 0.  1.
         21   -1    0    0  501  502 -0.00000000000E+00 -0.00000000000E+00 -0.63939136273E+03  0.63939136273E+03  0.00000000000E+00 0.  1.
         25    1    1    2    0    0  0.34577640331E+02  0.56391074060E+02 -0.15146972192E+03  0.20722848043E+03  0.12500000000E+03 0.  0.
         25    1    1    2    0    0 -0.95420059340E+02 -0.13337638917E+03 -0.22903824519E+03  0.30818463082E+03  0.12500000000E+03 0.  0.
         25    1    1    2    0    0  0.60842419009E+02  0.76985315111E+02 -0.15845084385E+03  0.22441080324E+03  0.12500000000E+03 0.  0.
</event>
<event>
 5    0  0.5619558E-005  0.3228591E+03  0.7546771E-02  0.1074341E+00
         21   -1    0    0  502  501  0.00000000000E+00  0.00000000000E+00  0.10078929584E+03  0.10078929584E+03  0.00000000000E+00 0.  1.
         21   -1    0    0  501  502 -0.00000000000E+00 -0.00000000000E+00 -0.10342171854E+04  0.10342171854E+04  0.00000000000E+00 0.  1.
         25    1    1    2    0    0  0.54405438875E+01  0.24748982956E+02 -0.27446794485E+02  0.13046240149E+03  0.12500000000E+03 0.  0.
         25    1    1    2    0    0 -0.15313615672E+03 -0.10195273575E+03 -0.52844441215E+03  0.57334417199E+03  0.12500000000E+03 0.  0.
         25    1    1    2    0    0  0.14769561283E+03  0.77203752794E+02 -0.37753668292E+03  0.43119990775E+03  0.12500000000E+03 0.  0.
</event>
<event>
 5    0  0.5619558E-005  0.3284575E+03  0.7546771E-02  0.1071821E+00
         21   -1    0    0  502  501  0.00000000000E+00  0.00000000000E+00  0.13066877603E+03  0.13066877603E+03  0.00000000000E+00 0. -1.
         21   -1    0    0  501  502 -0.00000000000E+00 -0.00000000000E+00 -0.82563222876E+03  0.82563222876E+03  0.00000000000E+00 0. -1.
         25    1    1    2    0    0  0.10208167885E+02 -0.33919944276E+02 -0.58489605316E+03  0.59915203606E+03  0.12500000000E+03 0.  0.
         25    1    1    2    0    0 -0.95279577682E+02 -0.40000625901E+02 -0.95509325826E+02  0.18821604426E+03  0.12500000000E+03 0.  0.
         25    1    1    2    0    0  0.85071409796E+02  0.73920570177E+02 -0.14558073740E+02  0.16893292447E+03  0.12500000000E+03 0.  0.
</event>
<event>
 5    0  0.5619558E-005  0.2608552E+03  0.7546771E-02  0.1106631E+00
         21   -1    0    0  502  501  0.00000000000E+00  0.00000000000E+00  0.16790826291E+03  0.16790826291E+03  0.00000000000E+00 0. -1.
         21   -1    0    0  501  502 -0.00000000000E+00 -0.00000000000E+00 -0.40525353156E+03  0.40525353156E+03  0.00000000000E+00 0. -1.
         25    1    1    2    0    0  0.51953258051E+02 -0.85148693143E+02 -0.81773986582E+02  0.17961465933E+03  0.12500000000E+03 0.  0.
         25    1    1    2    0    0 -0.57193165828E+02  0.79365172957E+02  0.37792466551E+02  0.16316604863E+03  0.12500000000E+03 0.  0.
         25    1    1    2    0    0  0.52399077776E+01  0.57835201856E+01 -0.19336374863E+03  0.23038108651E+03  0.12500000000E+03 0.  0.
</event>
<event>
 5    0  0.5619558E-005  0.2347226E+03  0.7546771E-02  0.1123359E+00
         21   -1    0    0  502  501  0.00000000000E+00  0.00000000000E+00  0.29431368381E+03  0.29431368381E+03  0.00000000000E+00 0. -1.
         21   -1    0    0  501  502 -0.00000000000E+00 -0.00000000000E+00 -0.18719718723E+03  0.18719718723E+03  0.00000000000E+00 0. -1.
         25    1    1    2    0    0 -0.18759038918E+02 -0.42104333658E+02  0.77562211754E+02  0.15416086775E+03  0.12500000000E+03 0.  0.
         25    1    1    2    0    0 -0.44664915570E+02 -0.16340005462E+02 -0.64743816387E+02  0.14858907168E+03  0.12500000000E+03 0.  0.
         25    1    1    2    0    0  0.63423954488E+02  0.58444339120E+02  0.94298101218E+02  0.17876093161E+03  0.12500000000E+03 0.  0.
</event>
<event>
 5    0  0.5619558E-005  0.2449218E+03  0.7546771E-02  0.1116557E+00
         21   -1    0    0  502  501  0.00000000000E+00  0.00000000000E+00  0.53658092592E+03  0.53658092592E+03  0.00000000000E+00 0. -1.
         21   -1    0    0  501  502 -0.00000000000E+00 -0.00000000000E+00 -0.11179431523E+03  0.11179431523E+03  0.00000000000E+00 0. -1.
         25    1    1    2    0    0  0.63347325345E+02 -0.22746990283E+02  0.11873962621E+03  0.18507946409E+03  0.12500000000E+03 0.  0.
         25    1    1    2    0    0  0.45191082760E+02  0.95111079968E+02  0.11184162092E+03  0.19804519601E+03  0.12500000000E+03 0.  0.
         25    1    1    2    0    0 -0.10853840810E+03 -0.72364089684E+02  0.19420536356E+03  0.26525058105E+03  0.12500000000E+03 0.  0.
</event>
<event>
 5    0  0.5619558E-005  0.3037991E+03  0.7546771E-02  0.1083357E+00
         21   -1    0    0  502  501  0.00000000000E+00  0.00000000000E+00  0.16069150508E+03  0.16069150508E+03  0.00000000000E+00 0. -1.
         21   -1    0    0  501  502 -0.00000000000E+00 -0.00000000000E+00 -0.57435434559E+03  0.57435434559E+03  0.00000000000E+00 0. -1.
         25    1    1    2    0    0 -0.91772422920E+02  0.99271625889E+02 -0.10789309865E+03  0.21340795217E+03  0.12500000000E+03 0.  0.
         25    1    1    2    0    0  0.13468297632E+03  0.61961371232E+02 -0.68187205546E+02  0.20555585770E+03  0.12500000000E+03 0.  0.
         25    1    1    2    0    0 -0.42910553398E+02 -0.16123299712E+03 -0.23758253631E+03  0.31608204079E+03  0.12500000000E+03 0.  0.
</event>
<event>
 5    0  0.5619558E-005  0.2755046E+03  0.7546771E-02  0.1098170E+00
         21   -1    0    0  502  501  0.00000000000E+00  0.00000000000E+00  0.34883313511E+03  0.34883313511E+03  0.00000000000E+00 0.  1.
         21   -1    0    0  501  502 -0.00000000000E+00 -0.00000000000E+00 -0.21759046082E+03  0.21759046082E+03  0.00000000000E+00 0.  1.
         25    1    1    2    0    0 -0.42442425152E+02 -0.27646433492E+01  0.19379073214E+03  0.23449701612E+03  0.12500000000E+03 0.  0.
         25    1    1    2    0    0  0.66377234007E+01  0.50148321989E+02 -0.12149182947E+03  0.18150531176E+03  0.12500000000E+03 0.  0.
         25    1    1    2    0    0  0.35804701751E+02 -0.47383678640E+02  0.58943771617E+02  0.15042126805E+03  0.12500000000E+03 0.  0.
</event>
<event>
 5    0  0.5619558E-005  0.3355935E+03  0.7546771E-02  0.1068688E+00
         21   -1    0    0  502  501  0.00000000000E+00  0.00000000000E+00  0.21046965551E+03  0.21046965551E+03  0.00000000000E+00 0.  1.
         21   -1    0    0  501  502 -0.00000000000E+00 -0.00000000000E+00 -0.53510312537E+03  0.53510312537E+03  0.00000000000E+00 0.  1.
         25    1    1    2    0    0  0.86554576265E+02 -0.19411429086E+03 -0.26174357160E+03  0.35959247749E+03  0.12500000000E+03 0.  0.
         25    1    1    2    0    0  0.26882507682E+02  0.10518776792E+03 -0.97404793592E+02  0.19209328347E+03  0.12500000000E+03 0.  0.
         25    1    1    2    0    0 -0.11343708395E+03  0.88926522942E+02  0.34514895343E+02  0.19388701993E+03  0.12500000000E+03 0.  0.
</event>
<event>
 5    0  0.5619558E-005  0.4406934E+03  0.7546771E-02  0.1030534E+00
         21   -1    0    0  502  501  0.00000000000E+00  0.00000000000E+00  0.16445619941E+03  0.16445619941E+03  0.00000000000E+00 0. -1.
         21   -1    0    0  501  502 -0.00000000000E+00 -0.00000000000E+00 -0.11809266968E+04  0.11809266968E+04  0.00000000000E+00 0. -1.
         25    1    1    2    0    0  0.11161001099E+03  0.15055814381E+03 -0.90600190553E+03  0.93358931123E+03  0.12500000000E+03 0.  0.
         25    1    1    2    0    0  0.21052209060E+02 -0.67388338252E+02 -0.14994485514E+03  0.20758815771E+03  0.12500000000E+03 0.  0.
         25    1    1    2    0    0 -0.13266222005E+03 -0.83169805553E+02  0.39476263239E+02  0.20420542731E+03  0.12500000000E+03 0.  0.
</event>
<event>
 5    0  0.5619558E-005  0.2426604E+03  0.7546771E-02  0.1118033E+00
         21   -1    0    0  502  501  0.00000000000E+00  0.00000000000E+00  0.71512066268E+02  0.71512066268E+02  0.00000000000E+00 0.  1.
         21   -1    0    0  501  502 -0.00000000000E+00 -0.00000000000E+00 -0.82341467425E+03  0.82341467425E+03  0.00000000000E+00 0.  1.
         25    1    1    2    0    0 -0.10789773497E+03 -0.68242780918E+02 -0.17192650389E+03  0.24795709528E+03  0.12500000000E+03 0.  0.
         25    1    1    2    0    0  0.64655529048E+02  0.13342202157E+02 -0.24878573051E+03  0.28614278167E+03  0.12500000000E+03 0.  0.
         25    1    1    2    0    0  0.43242205925E+02  0.54900578760E+02 -0.33119037358E+03  0.36082686357E+03  0.12500000000E+03 0.  0.
</event>
<event>
 5    0  0.6046009E-005  0.5647595E+03  0.7546771E-02  0.9981343E-01
         21   -1    0    0  502  501  0.00000000000E+00  0.00000000000E+00  0.27774605701E+03  0.27774605701E+03  0.00000000000E+00 0. -1.
         21   -1    0    0  501  502 -0.00000000000E+00 -0.00000000000E+00 -0.11483629566E+04  0.11483629566E+04  0.00000000000E+00 0. -1.
         25    1    1    2    0    0 -0.14857231209E+03  0.28783230982E+03 -0.22192327056E+03  0.41206323364E+03  0.12500000000E+03 0.  0.
         25    1    1    2    0    0  0.23969779909E+03 -0.53280920181E+01 -0.63670673512E+03  0.69173975597E+03  0.12500000000E+03 0.  0.
         25    1    1    2    0    0 -0.91125486995E+02 -0.28250421780E+03 -0.11986893878E+02  0.32230602396E+03  0.12500000000E+03 0.  0.
</event>
<event>
 5    0  0.5619558E-005  0.3141230E+03  0.7546771E-02  0.1078386E+00
         21   -1    0    0  502  501  0.00000000000E+00  0.00000000000E+00  0.10711216732E+04  0.10711216732E+04  0.00000000000E+00 0.  1.
         21   -1    0    0  501  502 -0.00000000000E+00 -0.00000000000E+00 -0.92121418981E+02  0.92121418981E+02  0.00000000000E+00 0.  1.
         25    1    1    2    0    0 -0.38540800636E+01 -0.94204473763E+02  0.78746899090E+02  0.17525812656E+03  0.12500000000E+03 0.  0.
         25    1    1    2    0    0 -0.27658522117E+02  0.17271589610E+03  0.72740180571E+03  0.75850785201E+03  0.12500000000E+03 0.  0.
         25    1    1    2    0    0  0.31512602181E+02 -0.78511422336E+02  0.17285154942E+03  0.22947711361E+03  0.12500000000E+03 0.  0.
</event>
<event>
 5    0  0.5619558E-005  0.2201946E+03  0.7546771E-02  0.1133738E+00
         21   -1    0    0  502  501  0.00000000000E+00  0.00000000000E+00  0.12475499260E+04  0.12475499260E+04  0.00000000000E+00 0. -1.
         21   -1    0    0  501  502 -0.00000000000E+00 -0.00000000000E+00 -0.38864712930E+02  0.38864712930E+02  0.00000000000E+00 0. -1.
         25    1    1    2    0    0  0.51105532920E+02 -0.84845940112E+01  0.33014192842E+03  0.35679469829E+03  0.12500000000E+03 0.  0.
         25    1    1    2    0    0 -0.25148195969E+02  0.83663446658E+02  0.37780449789E+03  0.40742268308E+03  0.12500000000E+03 0.  0.
         25    1    1    2    0    0 -0.25957336951E+02 -0.75178852647E+02  0.50073878680E+03  0.52219725759E+03  0.12500000000E+03 0.  0.
</event>
<event>
 5    0  0.5619558E-005  0.2207539E+03  0.7546771E-02  0.1133322E+00
         21   -1    0    0  502  501  0.00000000000E+00  0.00000000000E+00  0.17822590648E+03  0.17822590648E+03  0.00000000000E+00 0. -1.
         21   -1    0    0  501  502 -0.00000000000E+00 -0.00000000000E+00 -0.27342989317E+03  0.27342989317E+03  0.00000000000E+00 0. -1.
         25    1    1    2    0    0 -0.40006305722E+02 -0.13119034591E+02 -0.86527857235E+02  0.15774879918E+03  0.12500000000E+03 0.  0.
         25    1    1    2    0    0 -0.50137410500E+02 -0.88881955945E+01  0.17302453931E+02  0.13607767952E+03  0.12500000000E+03 0.  0.
         25    1    1    2    0    0  0.90143716222E+02  0.22007230186E+02 -0.25978583380E+02  0.15782932094E+03  0.12500000000E+03 0.  0.
</event>
<event>
 5    0  0.5619558E-005  0.2205344E+03  0.7546771E-02  0.1133485E+00
         21   -1    0    0  502  501  0.00000000000E+00  0.00000000000E+00  0.33928248453E+02  0.33928248453E+02  0.00000000000E+00 0. -1.
         21   -1    0    0  501  502 -0.00000000000E+00 -0.00000000000E+00 -0.14334784248E+04  0.14334784248E+04  0.00000000000E+00 0. -1.
         25    1    1    2    0    0 -0.64904329450E+02 -0.54175515257E+02 -0.62179462647E+03  0.63984460296E+03  0.12500000000E+03 0.  0.
         25    1    1    2    0    0  0.63991419424E+02  0.63571384579E+02 -0.36568217793E+03  0.39684339223E+03  0.12500000000E+03 0.  0.
         25    1    1    2    0    0  0.91291002666E+00 -0.93958693224E+01 -0.41207337193E+03  0.43071867804E+03  0.12500000000E+03 0.  0.
</event>
<event>
 5    0  0.5802941E-005  0.2573032E+03  0.7546771E-02  0.1108774E+00
         21   -1    0    0  502  501  0.00000000000E+00  0.00000000000E+00  0.45132054563E+03  0.45132054563E+03  0.00000000000E+00 0.  1.
         21   -1    0    0  501  502 -0.00000000000E+00 -0.00000000000E+00 -0.14669159319E+03  0.14669159319E+03  0.00000000000E+00 0.  1.
         25    1    1    2    0    0  0.15164488980E+03 -0.46989170071E+02  0.15299576422E+03  0.25344991335E+03  0.12500000000E+03 0.  0.
         25    1    1    2    0    0 -0.31630081896E+02  0.38756523496E+01  0.82235947069E+02  0.15298115489E+03  0.12500000000E+03 0.  0.
         25    1    1    2    0    0 -0.12001480790E+03  0.43113517721E+02  0.69397241146E+02  0.19158107058E+03  0.12500000000E+03 0.  0.
</event>
<event>
 5    0  0.5619558E-005  0.4259996E+03  0.7546771E-02  0.1035131E+00
         21   -1    0    0  502  501  0.00000000000E+00  0.00000000000E+00  0.84787405454E+03  0.84787405454E+03  0.00000000000E+00 0.  1.
         21   -1    0    0  501  502 -0.00000000000E+00 -0.00000000000E+00 -0.21403613792E+03  0.21403613792E+03  0.00000000000E+00 0.  1.
         25    1    1    2    0    0 -0.17128503870E+02 -0.73524240982E+02  0.72094997868E+03  0.73559028774E+03  0.12500000000E+03 0.  0.
         25    1    1    2    0    0  0.93597898094E+02  0.33716355370E+02 -0.66644123129E+02  0.17310054389E+03  0.12500000000E+03 0.  0.
         25    1    1    2    0    0 -0.76469394224E+02  0.39807885612E+02 -0.20467938936E+02  0.15321936083E+03  0.12500000000E+03 0.  0.
</event>
