<event>
 5    0  0.5668330E-005  0.3591178E+03  0.7546771E-02  0.1058934E+00
         21   -1    0    0  502  501  0.00000000000E+00  0.00000000000E+00  0.26341515495E+03  0.26341515495E+03  0.00000000000E+00 0.  1.
         21   -1    0    0  501  502 -0.00000000000E+00 -0.00000000000E+00 -0.48959053581E+03  0.48959053581E+03  0.00000000000E+00 0.  1.
         25    1    1    2    0    0  0.35108930564E+02 -0.59420459243E+02 -0.59135421165E+02  0.15454910552E+03  0.12500000000E+03 0.  0.
         25    1    1    2    0    0  0.42092806306E+02 -0.16762984427E+03  0.84207358330E+02  0.22931953303E+03  0.12500000000E+03 0.  0.
         25    1    1    2    0    0 -0.77201736870E+02  0.22705030351E+03 -0.25124731803E+03  0.36913705221E+03  0.12500000000E+03 0.  0.
</event>
<event>
 5    0  0.5765548E-005  0.3457659E+03  0.7546771E-02  0.1064366E+00
         21   -1    0    0  502  501  0.00000000000E+00  0.00000000000E+00  0.24322196494E+03  0.24322196494E+03  0.00000000000E+00 0.  1.
         21   -1    0    0  501  502 -0.00000000000E+00 -0.00000000000E+00 -0.49154291278E+03  0.49154291278E+03  0.00000000000E+00 0.  1.
         25    1    1    2    0    0 -0.22574738565E+02  0.67739248227E+02 -0.20407421355E+03  0.24973888205E+03  0.12500000000E+03 0.  0.
         25    1    1    2    0    0  0.15933144797E+03 -0.20842304625E+02 -0.16232251954E+03  0.26037379347E+03  0.12500000000E+03 0.  0.
         25    1    1    2    0    0 -0.13675670940E+03 -0.46896943602E+02  0.11807578526E+03  0.22465220220E+03  0.12500000000E+03 0.  0.
</event>
<event>
 5    0  0.5668330E-005  0.2507040E+03  0.7546771E-02  0.1112861E+00
         21   -1    0    0  502  501  0.00000000000E+00  0.00000000000E+00  0.66628155680E+03  0.66628155680E+03  0.00000000000E+00 0. -1.
         21   -1    0    0  501  502 -0.00000000000E+00 -0.00000000000E+00 -0.94333232255E+02  0.94333232255E+02  0.00000000000E+00 0. -1.
         25    1    1    2    0    0 -0.41323314054E+02  0.10659453491E+03  0.26709823132E+03  0.31628543490E+03  0.12500000000E+03 0.  0.
         25    1    1    2    0    0  0.23350157531E+02  0.12727052200E+02  0.21146471126E+03  0.24708203460E+03  0.12500000000E+03 0.  0.
         25    1    1    2    0    0  0.17973156523E+02 -0.11932158711E+03  0.93385381963E+02  0.19724731955E+03  0.12500000000E+03 0.  0.
</event>
<event>
 5    0  0.5668330E-005  0.2640445E+03  0.7546771E-02  0.1104737E+00
         21   -1    0    0  502  501  0.00000000000E+00  0.00000000000E+00  0.27678310471E+03  0.27678310471E+03  0.00000000000E+00 0.  1.
         21   -1    0    0  501  502 -0.00000000000E+00 -0.00000000000E+00 -0.25189214683E+03  0.25189214683E+03  0.00000000000E+00 0.  1.
         25    1    1    2    0    0 -0.10288927985E+03 -0.75457446179E+01  0.13290588660E+03  0.20959989709E+03  0.12500000000E+03 0.  0.
         25    1    1    2    0    0 -0.17899369227E+02  0.90798526607E+00 -0.44356288580E+02  0.13384204195E+03  0.12500000000E+03 0.  0.
         25    1    1    2    0    0  0.12078864908E+03  0.66377593518E+01 -0.63658640133E+02  0.18523331250E+03  0.12500000000E+03 0.  0.
</event>
<event>
 5    0  0.5668330E-005  0.2584131E+03  0.7546771E-02  0.1108100E+00
         21   -1    0    0  502  501  0.00000000000E+00  0.00000000000E+00  0.10332316243E+03  0.10332316243E+03  0.00000000000E+00 0.  1.
         21   -1    0    0  501  502 -0.00000000000E+00 -0.00000000000E+00 -0.64629601341E+03  0.64629601341E+03  0.00000000000E+00 0.  1.
         25    1    1    2    0    0  0.67095646176E+01 -0.30985806563E+02 -0.21471545610E+03  0.25046529811E+03  0.12500000000E+03 0.  0.
         25    1    1    2    0    0 -0.17110573193E+02 -0.11733294133E+03 -0.21042435665E+03  0.27196176331E+03  0.12500000000E+03 0.  0.
         25    1    1    2    0    0  0.10401008575E+02  0.14831874789E+03 -0.11783303823E+03  0.22719211442E+03  0.12500000000E+03 0.  0.
</event>
<event>
 5    0  0.5668330E-005  0.2628672E+03  0.7546771E-02  0.1105433E+00
         21   -1    0    0  502  501  0.00000000000E+00  0.00000000000E+00  0.36753584247E+03  0.36753584247E+03  0.00000000000E+00 0.  1.
         21   -1    0    0  501  502 -0.00000000000E+00 -0.00000000000E+00 -0.18800654415E+03  0.18800654415E+03  0.00000000000E+00 0.  1.
         25    1    1    2    0    0 -0.94409459716E+02 -0.48514518266E+02  0.95686609452E+02  0.18986240227E+03  0.12500000000E+03 0.  0.
         25    1    1    2    0    0  0.83639528645E+02 -0.71685057813E+02  0.94605599580E+02  0.19159733228E+03  0.12500000000E+03 0.  0.
         25    1    1    2    0    0  0.10769931071E+02  0.12019957608E+03 -0.10762910712E+02  0.17408265207E+03  0.12500000000E+03 0.  0.
</event>
<event>
 5    0  0.5668330E-005  0.2962345E+03  0.7546771E-02  0.1087138E+00
         21   -1    0    0  502  501  0.00000000000E+00  0.00000000000E+00  0.14530034376E+04  0.14530034376E+04  0.00000000000E+00 0. -1.
         21   -1    0    0  501  502 -0.00000000000E+00 -0.00000000000E+00 -0.60395516649E+02  0.60395516649E+02  0.00000000000E+00 0. -1.
         25    1    1    2    0    0 -0.61112235658E+02 -0.45329182643E+02  0.83005099554E+02  0.16823877882E+03  0.12500000000E+03 0.  0.
         25    1    1    2    0    0 -0.41458307171E+02  0.47381014751E+02  0.73646450429E+03  0.74964572824E+03  0.12500000000E+03 0.  0.
         25    1    1    2    0    0  0.10257054283E+03 -0.20518321086E+01  0.57313831706E+03  0.59551444714E+03  0.12500000000E+03 0.  0.
</event>
<event>
 5    0  0.5668330E-005  0.2948481E+03  0.7546771E-02  0.1087845E+00
         21   -1    0    0  502  501  0.00000000000E+00  0.00000000000E+00  0.19841005698E+03  0.19841005698E+03  0.00000000000E+00 0. -1.
         21   -1    0    0  501  502 -0.00000000000E+00 -0.00000000000E+00 -0.43816032053E+03  0.43816032053E+03  0.00000000000E+00 0. -1.
         25    1    1    2    0    0  0.44334091295E+02 -0.75981026402E+02 -0.93152115845E+02  0.17899984556E+03  0.12500000000E+03 0.  0.
         25    1    1    2    0    0 -0.10422221875E+03 -0.10483765823E+02  0.77244374588E+02  0.18045463040E+03  0.12500000000E+03 0.  0.
         25    1    1    2    0    0  0.59888127453E+02  0.86464792225E+02 -0.22384252229E+03  0.27711590155E+03  0.12500000000E+03 0.  0.
</event>
<event>
 5    0  0.5668330E-005  0.3505395E+03  0.7546771E-02  0.1062394E+00
         21   -1    0    0  502  501  0.00000000000E+00  0.00000000000E+00  0.11123307425E+03  0.11123307425E+03  0.00000000000E+00 0.  1.
         21   -1    0    0  501  502 -0.00000000000E+00 -0.00000000000E+00 -0.11046890886E+04  0.11046890886E+04  0.00000000000E+00 0.  1.
         25    1    1    2    0    0  0.11133652823E+03 -0.43022774749E+02 -0.49975064137E+03  0.52879342395E+03  0.12500000000E+03 0.  0.
         25    1    1    2    0    0  0.60051585780E+02  0.34461843145E+02  0.72145345997E+01  0.14307641698E+03  0.12500000000E+03 0.  0.
         25    1    1    2    0    0 -0.17138811401E+03  0.85609316035E+01 -0.50091990762E+03  0.54405232195E+03  0.12500000000E+03 0.  0.
</event>
<event>
 5    0  0.5668330E-005  0.2730448E+03  0.7546771E-02  0.1099550E+00
         21   -1    0    0  502  501  0.00000000000E+00  0.00000000000E+00  0.91894038134E+03  0.91894038134E+03  0.00000000000E+00 0. -1.
         21   -1    0    0  501  502 -0.00000000000E+00 -0.00000000000E+00 -0.81129822809E+02  0.81129822809E+02  0.00000000000E+00 0. -1.
         25    1    1    2    0    0  0.95059800637E+02 -0.11114099769E+03  0.32004055337E+03  0.37341617917E+03  0.12500000000E+03 0.  0.
         25    1    1    2    0    0 -0.12000417164E+03  0.11572104024E+03  0.40902979008E+03  0.45904545476E+03  0.12500000000E+03 0.  0.
         25    1    1    2    0    0  0.24944371001E+02 -0.45800425511E+01  0.10874021509E+03  0.16760857022E+03  0.12500000000E+03 0.  0.
</event>
<event>
 5    0  0.5668330E-005  0.2485720E+03  0.7546771E-02  0.1114211E+00
         21   -1    0    0  502  501  0.00000000000E+00  0.00000000000E+00  0.86112613253E+03  0.86112613253E+03  0.00000000000E+00 0. -1.
         21   -1    0    0  501  502 -0.00000000000E+00 -0.00000000000E+00 -0.71752616566E+02  0.71752616566E+02  0.00000000000E+00 0. -1.
         25    1    1    2    0    0  0.20779134038E+02  0.39211609260E+02  0.11202206700E+03  0.17361816209E+03  0.12500000000E+03 0.  0.
         25    1    1    2    0    0 -0.89291776850E+02  0.40482987355E+02  0.20419176686E+03  0.25871059377E+03  0.12500000000E+03 0.  0.
         25    1    1    2    0    0  0.68512642812E+02 -0.79694596615E+02  0.47315968211E+03  0.50054999323E+03  0.12500000000E+03 0.  0.
</event>
<event>
 5    0  0.5668330E-005  0.2086365E+03  0.7546771E-02  0.1142650E+00
         21   -1    0    0  502  501  0.00000000000E+00  0.00000000000E+00  0.11799253900E+03  0.11799253900E+03  0.00000000000E+00 0.  1.
         21   -1    0    0  501  502 -0.00000000000E+00 -0.00000000000E+00 -0.36891471146E+03  0.36891471146E+03  0.00000000000E+00 0.  1.
         25    1    1    2    0    0  0.26918101307E+02  0.39051490984E+02 -0.10142074942E+03  0.16781171455E+03  0.12500000000E+03 0.  0.
         25    1    1    2    0    0  0.27679246495E+02 -0.24224134697E+01 -0.24260197602E+02  0.13032868434E+03  0.12500000000E+03 0.  0.
         25    1    1    2    0    0 -0.54597347802E+02 -0.36629077514E+02 -0.12524122544E+03  0.18876685158E+03  0.12500000000E+03 0.  0.
</event>
<event>
 5    0  0.5668330E-005  0.2778675E+03  0.7546771E-02  0.1096859E+00
         21   -1    0    0  502  501  0.00000000000E+00  0.00000000000E+00  0.15552408258E+03  0.15552408258E+03  0.00000000000E+00 0. -1.
         21   -1    0    0  501  502 -0.00000000000E+00 -0.00000000000E+00 -0.49645282851E+03  0.49645282851E+03  0.00000000000E+00 0. -1.
         25    1    1    2    0    0 -0.65404931400E+02  0.36587828626E+02 -0.22142336642E+03  0.26508447984E+03  0.12500000000E+03 0.  0.
         25    1    1    2    0    0  0.10839398310E+03 -0.78180511338E+02 -0.15940708115E+03  0.24268717610E+03  0.12500000000E+03 0.  0.
         25    1    1    2    0    0 -0.42989051697E+02  0.41592682712E+02  0.39901701631E+02  0.14420525515E+03  0.12500000000E+03 0.  0.
</event>
<event>
 5    0  0.5668330E-005  0.3270398E+03  0.7546771E-02  0.1072454E+00
         21   -1    0    0  502  501  0.00000000000E+00  0.00000000000E+00  0.13451164734E+04  0.13451164734E+04  0.00000000000E+00 0. -1.
         21   -1    0    0  501  502 -0.00000000000E+00 -0.00000000000E+00 -0.79513576226E+02  0.79513576226E+02  0.00000000000E+00 0. -1.
         25    1    1    2    0    0  0.49773918322E+02 -0.72481665672E+02  0.40891005469E+03  0.43653575757E+03  0.12500000000E+03 0.  0.
         25    1    1    2    0    0 -0.21363461802E+03 -0.39283846639E+02  0.52682366517E+03  0.58339621597E+03  0.12500000000E+03 0.  0.
         25    1    1    2    0    0  0.16386069970E+03  0.11176551231E+03  0.32986917727E+03  0.40469807605E+03  0.12500000000E+03 0.  0.
</event>
<event>
 5    0  0.5668330E-005  0.3738693E+03  0.7546771E-02  0.1053223E+00
         21   -1    0    0  502  501  0.00000000000E+00  0.00000000000E+00  0.12409837313E+03  0.12409837313E+03  0.00000000000E+00 0.  1.
         21   -1    0    0  501  502 -0.00000000000E+00 -0.00000000000E+00 -0.11263504632E+04  0.11263504632E+04  0.00000000000E+00 0. -1.
         25    1    1    2    0    0 -0.45879692212E+02 -0.27049856891E+03 -0.51841524214E+03  0.59971141829E+03  0.12500000000E+03 0.  0.
         25    1    1    2    0    0 -0.60733798536E+01  0.24969262023E+03 -0.40724693444E+03  0.49382016580E+03  0.12500000000E+03 0.  0.
         25    1    1    2    0    0  0.51953072066E+02  0.20805948688E+02 -0.76589913470E+02  0.15691725222E+03  0.12500000000E+03 0.  0.
</event>
<event>
 5    0  0.5668330E-005  0.2499704E+03  0.7546771E-02  0.1113324E+00
         21   -1    0    0  502  501  0.00000000000E+00  0.00000000000E+00  0.15547036569E+04  0.15547036569E+04  0.00000000000E+00 0. -1.
         21   -1    0    0  501  502 -0.00000000000E+00 -0.00000000000E+00 -0.40191065638E+02  0.40191065638E+02  0.00000000000E+00 0. -1.
         25    1    1    2    0    0  0.12493724137E+03 -0.10350919736E+02  0.36739222695E+03  0.40782165739E+03  0.12500000000E+03 0.  0.
         25    1    1    2    0    0 -0.10309777293E+03  0.51635890928E+02  0.70719732614E+03  0.72735718468E+03  0.12500000000E+03 0.  0.
         25    1    1    2    0    0 -0.21839468439E+02 -0.41284971193E+02  0.43992303818E+03  0.45971588046E+03  0.12500000000E+03 0.  0.
</event>
<event>
 5    0  0.7663781E-005  0.4346680E+03  0.7546771E-02  0.1032395E+00
         21   -1    0    0  502  501  0.00000000000E+00  0.00000000000E+00  0.52861357908E+03  0.52861357908E+03  0.00000000000E+00 0.  1.
         21   -1    0    0  501  502 -0.00000000000E+00 -0.00000000000E+00 -0.35741854945E+03  0.35741854945E+03  0.00000000000E+00 0.  1.
         25    1    1    2    0    0  0.99325852920E+02  0.17306842702E+03  0.31311079097E+03  0.39176737091E+03  0.12500000000E+03 0.  0.
         25    1    1    2    0    0  0.62615788567E+02  0.29070957613E+02 -0.14927477560E+03  0.20657641730E+03  0.12500000000E+03 0.  0.
         25    1    1    2    0    0 -0.16194164149E+03 -0.20213938463E+03  0.73590142614E+01  0.28768834032E+03  0.12500000000E+03 0.  0.
</event>
<event>
 5    0  0.6078706E-005  0.3393186E+03  0.7546771E-02  0.1067087E+00
         21   -1    0    0  502  501  0.00000000000E+00  0.00000000000E+00  0.29243859375E+03  0.29243859375E+03  0.00000000000E+00 0. -1.
         21   -1    0    0  501  502 -0.00000000000E+00 -0.00000000000E+00 -0.39371370360E+03  0.39371370360E+03  0.00000000000E+00 0. -1.
         25    1    1    2    0    0 -0.74080768591E+02 -0.11820949719E+03 -0.19879910887E+02  0.18836575155E+03  0.12500000000E+03 0.  0.
         25    1    1    2    0    0  0.10415843252E+03  0.12580626683E+03 -0.22503396864E+03  0.30486305595E+03  0.12500000000E+03 0.  0.
         25    1    1    2    0    0 -0.30077663933E+02 -0.75967696406E+01  0.14363876968E+03  0.19292348984E+03  0.12500000000E+03 0.  0.
</event>
<event>
 5    0  0.5668330E-005  0.2840554E+03  0.7546771E-02  0.1093494E+00
         21   -1    0    0  502  501  0.00000000000E+00  0.00000000000E+00  0.75762774362E+03  0.75762774362E+03  0.00000000000E+00 0. -1.
         21   -1    0    0  501  502 -0.00000000000E+00 -0.00000000000E+00 -0.10650016455E+03  0.10650016455E+03  0.00000000000E+00 0. -1.
         25    1    1    2    0    0 -0.14443949529E+03  0.62413648929E+02  0.26575580344E+03  0.33318069937E+03  0.12500000000E+03 0.  0.
         25    1    1    2    0    0  0.13962001264E+03  0.52337717773E+02  0.22439550614E+03  0.29700391884E+03  0.12500000000E+03 0.  0.
         25    1    1    2    0    0  0.48194826575E+01 -0.11475136670E+03  0.16097626950E+03  0.23394328995E+03  0.12500000000E+03 0.  0.
</event>
<event>
 5    0  0.5668330E-005  0.3040430E+03  0.7546771E-02  0.1083237E+00
         21   -1    0    0  502  501  0.00000000000E+00  0.00000000000E+00  0.34110401174E+03  0.34110401174E+03  0.00000000000E+00 0.  1.
         21   -1    0    0  501  502 -0.00000000000E+00 -0.00000000000E+00 -0.27100865700E+03  0.27100865700E+03  0.00000000000E+00 0.  1.
         25    1    1    2    0    0 -0.14710474128E+03  0.39040382229E+02  0.16832612378E+03  0.25908037421E+03  0.12500000000E+03 0.  0.
         25    1    1    2    0    0  0.16533910953E+03 -0.86814504690E+01 -0.43021274489E+02  0.21186839968E+03  0.12500000000E+03 0.  0.
         25    1    1    2    0    0 -0.18234368251E+02 -0.30358931760E+02 -0.55209494555E+02  0.14116389486E+03  0.12500000000E+03 0.  0.
</event>
<event>
 5    0  0.5668330E-005  0.6457980E+03  0.7546771E-02  0.9814696E-01
         21   -1    0    0  502  501  0.00000000000E+00  0.00000000000E+00  0.23861889490E+03  0.23861889490E+03  0.00000000000E+00 0.  1.
         21   -1    0    0  501  502 -0.00000000000E+00 -0.00000000000E+00 -0.17477874312E+04  0.17477874312E+04  0.00000000000E+00 0.  1.
         25    1    1    2    0    0  0.19838242946E+02  0.26982994033E+03 -0.70782813980E+03  0.76801525250E+03  0.12500000000E+03 0.  0.
         25    1    1    2    0    0 -0.87942728658E+02 -0.50518278941E+03 -0.21342221007E+03  0.56931328282E+03  0.12500000000E+03 0.  0.
         25    1    1    2    0    0  0.68104485712E+02  0.23535284908E+03 -0.58791818643E+03  0.64907779078E+03  0.12500000000E+03 0.  0.
</event>
<event>
 5    0  0.5668330E-005  0.3998554E+03  0.7546771E-02  0.1043830E+00
         21   -1    0    0  502  501  0.00000000000E+00  0.00000000000E+00  0.43393023852E+03  0.43393023852E+03  0.00000000000E+00 0.  1.
         21   -1    0    0  501  502 -0.00000000000E+00 -0.00000000000E+00 -0.36845625915E+03  0.36845625915E+03  0.00000000000E+00 0.  1.
         25    1    1    2    0    0 -0.14170119075E+03 -0.11005798231E+03  0.40621784483E+02  0.22241204172E+03  0.12500000000E+03 0.  0.
         25    1    1    2    0    0 -0.17993351953E+03  0.78742432241E+02  0.37201463031E+01  0.23284175221E+03  0.12500000000E+03 0.  0.
         25    1    1    2    0    0  0.32163471027E+03  0.31315550070E+02  0.21132048580E+02  0.34713270374E+03  0.12500000000E+03 0.  0.
</event>
<event>
 5    0  0.5668330E-005  0.2174998E+03  0.7546771E-02  0.1135761E+00
         21   -1    0    0  502  501  0.00000000000E+00  0.00000000000E+00  0.14775887197E+03  0.14775887197E+03  0.00000000000E+00 0. -1.
         21   -1    0    0  501  502 -0.00000000000E+00 -0.00000000000E+00 -0.32015783661E+03  0.32015783661E+03  0.00000000000E+00 0. -1.
         25    1    1    2    0    0 -0.20049302523E+02 -0.26945443701E+02 -0.15102965547E+03  0.19890447029E+03  0.12500000000E+03 0.  0.
         25    1    1    2    0    0  0.87930006940E+01  0.12488080122E+02 -0.56291908229E+02  0.13793856581E+03  0.12500000000E+03 0.  0.
         25    1    1    2    0    0  0.11256301829E+02  0.14457363579E+02  0.34922599066E+02  0.13107367248E+03  0.12500000000E+03 0.  0.
</event>
<event>
 5    0  0.5668330E-005  0.3760829E+03  0.7546771E-02  0.1052391E+00
         21   -1    0    0  502  501  0.00000000000E+00  0.00000000000E+00  0.81981354919E+03  0.81981354919E+03  0.00000000000E+00 0. -1.
         21   -1    0    0  501  502 -0.00000000000E+00 -0.00000000000E+00 -0.17252497963E+03  0.17252497963E+03  0.00000000000E+00 0. -1.
         25    1    1    2    0    0 -0.14402926113E+03  0.79332295429E+02  0.93623749706E+02  0.22677841094E+03  0.12500000000E+03 0.  0.
         25    1    1    2    0    0  0.18539450792E+03  0.10818080806E+03  0.45015986351E+03  0.51414308661E+03  0.12500000000E+03 0.  0.
         25    1    1    2    0    0 -0.41365246787E+02 -0.18751310349E+03  0.10350495634E+03  0.25141703126E+03  0.12500000000E+03 0.  0.
</event>
<event>
 5    0  0.5668330E-005  0.3002483E+03  0.7546771E-02  0.1085117E+00
         21   -1    0    0  502  501  0.00000000000E+00  0.00000000000E+00  0.65942396866E+02  0.65942396866E+02  0.00000000000E+00 0.  1.
         21   -1    0    0  501  502 -0.00000000000E+00 -0.00000000000E+00 -0.13670872934E+04  0.13670872934E+04  0.00000000000E+00 0.  1.
         25    1    1    2    0    0  0.10998152707E+03  0.98771165504E+02 -0.85419332991E+03  0.87585553848E+03  0.12500000000E+03 0.  0.
         25    1    1    2    0    0 -0.13253102303E+03 -0.95334916833E+02 -0.27550257597E+03  0.34377301785E+03  0.12500000000E+03 0.  0.
         25    1    1    2    0    0  0.22549495961E+02 -0.34362486710E+01 -0.17144899070E+03  0.21340113398E+03  0.12500000000E+03 0.  0.
</event>
<event>
 5    0  0.6024953E-005  0.3511589E+03  0.7546771E-02  0.1062140E+00
         21   -1    0    0  502  501  0.00000000000E+00  0.00000000000E+00  0.15514660870E+03  0.15514660870E+03  0.00000000000E+00 0.  1.
         21   -1    0    0  501  502 -0.00000000000E+00 -0.00000000000E+00 -0.79481310577E+03  0.79481310577E+03  0.00000000000E+00 0.  1.
         25    1    1    2    0    0  0.56001884498E+01 -0.62687306901E+02 -0.54901391560E+02  0.15033370664E+03  0.12500000000E+03 0.  0.
         25    1    1    2    0    0  0.20653438986E+03  0.14947588146E+03 -0.31944948408E+03  0.42740199603E+03  0.12500000000E+03 0.  0.
         25    1    1    2    0    0 -0.21213457831E+03 -0.86788574555E+02 -0.26531562143E+03  0.37222401181E+03  0.12500000000E+03 0.  0.
</event>
<event>
 5    0  0.5668330E-005  0.2196699E+03  0.7546771E-02  0.1134129E+00
         21   -1    0    0  502  501  0.00000000000E+00  0.00000000000E+00  0.89873481056E+02  0.89873481056E+02  0.00000000000E+00 0. -1.
         21   -1    0    0  501  502 -0.00000000000E+00 -0.00000000000E+00 -0.53691997675E+03  0.53691997675E+03  0.00000000000E+00 0. -1.
         25    1    1    2    0    0  0.67291531555E+01 -0.48454918034E+02 -0.17674856939E+03  0.22194192341E+03  0.12500000000E+03 0.  0.
         25    1    1    2    0    0 -0.28886037980E+02  0.20188910780E+02 -0.32604566373E+02  0.13390314805E+03  0.12500000000E+03 0.  0.
         25    1    1    2    0    0  0.22156884825E+02  0.28266007254E+02 -0.23769335993E+03  0.27094838635E+03  0.12500000000E+03 0.  0.
</event>
<event>
 5    0  0.5668330E-005  0.4387809E+03  0.7546771E-02  0.1031122E+00
         21   -1    0    0  502  501  0.00000000000E+00  0.00000000000E+00  0.33501442488E+03  0.33501442488E+03  0.00000000000E+00 0.  1.
         21   -1    0    0  501  502 -0.00000000000E+00 -0.00000000000E+00 -0.57468767277E+03  0.57468767277E+03  0.00000000000E+00 0. -1.
         25    1    1    2    0    0  0.39835285993E+01  0.11276385776E+03 -0.14322493234E+03  0.22106545945E+03  0.12500000000E+03 0.  0.
         25    1    1    2    0    0 -0.16386997351E+03  0.18029195854E+03  0.87542755586E+02  0.28748442147E+03  0.12500000000E+03 0.  0.
         25    1    1    2    0    0  0.15988644491E+03 -0.29305581630E+03 -0.18399107113E+03  0.40115221673E+03  0.12500000000E+03 0.  0.
</event>
<event>
 5    0  0.5958940E-005  0.4045789E+03  0.7546771E-02  0.1042206E+00
         21   -1    0    0  502  501  0.00000000000E+00  0.00000000000E+00  0.13745439418E+03  0.13745439418E+03  0.00000000000E+00 0. -1.
         21   -1    0    0  501  502 -0.00000000000E+00 -0.00000000000E+00 -0.11908249121E+04  0.11908249121E+04  0.00000000000E+00 0. -1.
         25    1    1    2    0    0  0.61104265987E+02 -0.26842361291E+03 -0.27546599822E+03  0.40901281577E+03  0.12500000000E+03 0.  0.
         25    1    1    2    0    0 -0.15996771586E+03  0.10188513301E+03 -0.22266462851E+03  0.31807984413E+03  0.12500000000E+03 0.  0.
         25    1    1    2    0    0  0.98863449878E+02  0.16653847989E+03 -0.55523989116E+03  0.60118664634E+03  0.12500000000E+03 0.  0.
</event>
<event>
 5    0  0.5668330E-005  0.2300675E+03  0.7546771E-02  0.1126592E+00
         21   -1    0    0  502  501  0.00000000000E+00  0.00000000000E+00  0.15759669592E+03  0.15759669592E+03  0.00000000000E+00 0.  1.
         21   -1    0    0  501  502 -0.00000000000E+00 -0.00000000000E+00 -0.33586405061E+03  0.33586405061E+03  0.00000000000E+00 0.  1.
         25    1    1    2    0    0 -0.11114098953E+03 -0.43356501209E+01 -0.39515568919E+02  0.17192323171E+03  0.12500000000E+03 0.  0.
         25    1    1    2    0    0  0.73841582635E+02 -0.13911271471E+02 -0.25984127840E+02  0.14814276121E+03  0.12500000000E+03 0.  0.
         25    1    1    2    0    0  0.37299406892E+02  0.18246921592E+02 -0.11276765793E+03  0.17339475360E+03  0.12500000000E+03 0.  0.
</event>
<event>
 5    0  0.5668330E-005  0.3671001E+03  0.7546771E-02  0.1055807E+00
         21   -1    0    0  502  501  0.00000000000E+00  0.00000000000E+00  0.45537461192E+03  0.45537461192E+03  0.00000000000E+00 0.  1.
         21   -1    0    0  501  502 -0.00000000000E+00 -0.00000000000E+00 -0.29593759698E+03  0.29593759698E+03  0.00000000000E+00 0.  1.
         25    1    1    2    0    0  0.81016974387E+02  0.78188504935E+02 -0.14748140432E+03  0.22372518201E+03  0.12500000000E+03 0.  0.
         25    1    1    2    0    0 -0.58971375713E+02 -0.17582813761E+02  0.35305981257E+03  0.37955633277E+03  0.12500000000E+03 0.  0.
         25    1    1    2    0    0 -0.22045598675E+02 -0.60605691174E+02 -0.46141393309E+02  0.14803069411E+03  0.12500000000E+03 0.  0.
</event>
<event>
 5    0  0.5668330E-005  0.4398750E+03  0.7546771E-02  0.1030785E+00
         21   -1    0    0  502  501  0.00000000000E+00  0.00000000000E+00  0.36816353180E+03  0.36816353180E+03  0.00000000000E+00 0. -1.
         21   -1    0    0  501  502 -0.00000000000E+00 -0.00000000000E+00 -0.52555463160E+03  0.52555463160E+03  0.00000000000E+00 0. -1.
         25    1    1    2    0    0  0.64494971296E+02  0.15080101086E+03 -0.24006871722E+03  0.31647833288E+03  0.12500000000E+03 0.  0.
         25    1    1    2    0    0  0.12296940669E+03  0.56176357877E+02 -0.11113403008E+03  0.21506517804E+03  0.12500000000E+03 0.  0.
         25    1    1    2    0    0 -0.18746437799E+03 -0.20697736873E+03  0.19381164750E+03  0.36217465246E+03  0.12500000000E+03 0.  0.
</event>
<event>
 5    0  0.5668330E-005  0.5268702E+03  0.7546771E-02  0.1006994E+00
         21   -1    0    0  502  501  0.00000000000E+00  0.00000000000E+00  0.90139951595E+03  0.90139951595E+03  0.00000000000E+00 0.  1.
         21   -1    0    0  501  502 -0.00000000000E+00 -0.00000000000E+00 -0.30795685193E+03  0.30795685193E+03  0.00000000000E+00 0.  1.
         25    1    1    2    0    0  0.95119483096E+02 -0.66803775568E+02  0.10666510960E+03  0.20127818088E+03  0.12500000000E+03 0.  0.
         25    1    1    2    0    0  0.80223171339E+02  0.20252143235E+02 -0.22086643862E+03  0.26693237015E+03  0.12500000000E+03 0.  0.
         25    1    1    2    0    0 -0.17534265444E+03  0.46551632333E+02  0.70764399304E+03  0.74114581684E+03  0.12500000000E+03 0.  0.
</event>
<event>
 5    0  0.5668330E-005  0.2710700E+03  0.7546771E-02  0.1100669E+00
         21   -1    0    0  502  501  0.00000000000E+00  0.00000000000E+00  0.30674771870E+03  0.30674771870E+03  0.00000000000E+00 0.  1.
         21   -1    0    0  501  502 -0.00000000000E+00 -0.00000000000E+00 -0.23954202879E+03  0.23954202879E+03  0.00000000000E+00 0.  1.
         25    1    1    2    0    0  0.10117971439E+03 -0.11055881856E+02 -0.61908204270E+02  0.17267655569E+03  0.12500000000E+03 0.  0.
         25    1    1    2    0    0  0.31600221708E+02  0.83403873756E+02  0.43827948434E+02  0.15968928966E+03  0.12500000000E+03 0.  0.
         25    1    1    2    0    0 -0.13277993610E+03 -0.72347991900E+02  0.85285945750E+02  0.21392390213E+03  0.12500000000E+03 0.  0.
</event>
<event>
 5    0  0.5668330E-005  0.4526480E+03  0.7546771E-02  0.1026935E+00
         21   -1    0    0  502  501  0.00000000000E+00  0.00000000000E+00  0.48650034073E+03  0.48650034073E+03  0.00000000000E+00 0. -1.
         21   -1    0    0  501  502 -0.00000000000E+00 -0.00000000000E+00 -0.42115122997E+03  0.42115122997E+03  0.00000000000E+00 0. -1.
         25    1    1    2    0    0 -0.19832680158E+03  0.86085549102E+02 -0.39922993077E+02  0.25290924729E+03  0.12500000000E+03 0.  0.
         25    1    1    2    0    0  0.12838442453E+03 -0.91085627748E+02  0.33106089069E+03  0.38730539035E+03  0.12500000000E+03 0.  0.
         25    1    1    2    0    0  0.69942377050E+02  0.50000786462E+01 -0.22578878686E+03  0.26743693306E+03  0.12500000000E+03 0.  0.
</event>
<event>
 5    0  0.5668330E-005  0.2832301E+03  0.7546771E-02  0.1093938E+00
         21   -1    0    0  502  501  0.00000000000E+00  0.00000000000E+00  0.19494977446E+04  0.19494977446E+04  0.00000000000E+00 0.  1.
         21   -1    0    0  501  502 -0.00000000000E+00 -0.00000000000E+00 -0.41148685487E+02  0.41148685487E+02  0.00000000000E+00 0.  1.
         25    1    1    2    0    0 -0.29115419137E+02 -0.63511734079E+02  0.27439094748E+03  0.30951064611E+03  0.12500000000E+03 0.  0.
         25    1    1    2    0    0 -0.85773666249E+02  0.62971255685E+02  0.12574347643E+04  0.12681047619E+04  0.12500000000E+03 0.  0.
         25    1    1    2    0    0  0.11488908539E+03  0.54047839382E+00  0.37652334743E+03  0.41303102210E+03  0.12500000000E+03 0.  0.
</event>
<event>
 5    0  0.5668330E-005  0.2349002E+03  0.7546771E-02  0.1123238E+00
         21   -1    0    0  502  501  0.00000000000E+00  0.00000000000E+00  0.33665270017E+03  0.33665270017E+03  0.00000000000E+00 0.  1.
         21   -1    0    0  501  502 -0.00000000000E+00 -0.00000000000E+00 -0.16390210133E+03  0.16390210133E+03  0.00000000000E+00 0.  1.
         25    1    1    2    0    0 -0.44580802161E+02  0.43944929986E+02  0.11893873887E+03  0.18354843611E+03  0.12500000000E+03 0.  0.
         25    1    1    2    0    0  0.10144564130E+03 -0.62791656056E+02  0.17281144790E+02  0.17365957553E+03  0.12500000000E+03 0.  0.
         25    1    1    2    0    0 -0.56864839136E+02  0.18846726070E+02  0.36530715177E+02  0.14334678987E+03  0.12500000000E+03 0.  0.
</event>
<event>
 5    0  0.5668330E-005  0.2528341E+03  0.7546771E-02  0.1111527E+00
         21   -1    0    0  502  501  0.00000000000E+00  0.00000000000E+00  0.53118039095E+02  0.53118039095E+02  0.00000000000E+00 0. -1.
         21   -1    0    0  501  502 -0.00000000000E+00 -0.00000000000E+00 -0.12034532751E+04  0.12034532751E+04  0.00000000000E+00 0. -1.
         25    1    1    2    0    0 -0.78635031746E+02 -0.11033117959E+03 -0.52675158188E+03  0.55807586081E+03  0.12500000000E+03 0.  0.
         25    1    1    2    0    0  0.92469036053E+02  0.31931325150E+02 -0.24485120071E+03  0.29180000453E+03  0.12500000000E+03 0.  0.
         25    1    1    2    0    0 -0.13834004306E+02  0.78399854440E+02 -0.37873245346E+03  0.40669544890E+03  0.12500000000E+03 0.  0.
</event>
<event>
 5    0  0.6079233E-005  0.2883969E+03  0.7546771E-02  0.1091189E+00
         21   -1    0    0  502  501  0.00000000000E+00  0.00000000000E+00  0.32876175675E+03  0.32876175675E+03  0.00000000000E+00 0. -1.
         21   -1    0    0  501  502 -0.00000000000E+00 -0.00000000000E+00 -0.25298804442E+03  0.25298804442E+03  0.00000000000E+00 0. -1.
         25    1    1    2    0    0 -0.12738863572E+02  0.24766361904E+02 -0.14030978518E+03  0.18996706858E+03  0.12500000000E+03 0.  0.
         25    1    1    2    0    0 -0.89422745384E+02 -0.38094619977E+02  0.68061714379E+02  0.17235145612E+03  0.12500000000E+03 0.  0.
         25    1    1    2    0    0  0.10216160896E+03  0.13328258073E+02  0.14802178314E+03  0.21943127647E+03  0.12500000000E+03 0.  0.
</event>
<event>
 5    0  0.5668330E-005  0.2608970E+03  0.7546771E-02  0.1106606E+00
         21   -1    0    0  502  501  0.00000000000E+00  0.00000000000E+00  0.75106212834E+03  0.75106212834E+03  0.00000000000E+00 0. -1.
         21   -1    0    0  501  502 -0.00000000000E+00 -0.00000000000E+00 -0.90627971918E+02  0.90627971918E+02  0.00000000000E+00 0. -1.
         25    1    1    2    0    0 -0.17192903681E+02 -0.84347466722E+02  0.20331793589E+03  0.25371888801E+03  0.12500000000E+03 0.  0.
         25    1    1    2    0    0 -0.81349011172E+02 -0.28381326159E+02  0.30473148467E+03  0.34045475330E+03  0.12500000000E+03 0.  0.
         25    1    1    2    0    0  0.98541914853E+02  0.11272879288E+03  0.15238473586E+03  0.24751645895E+03  0.12500000000E+03 0.  0.
</event>
<event>
 5    0  0.5668330E-005  0.2528923E+03  0.7546771E-02  0.1111490E+00
         21   -1    0    0  502  501  0.00000000000E+00  0.00000000000E+00  0.28945552224E+02  0.28945552224E+02  0.00000000000E+00 0. -1.
         21   -1    0    0  501  502 -0.00000000000E+00 -0.00000000000E+00 -0.22094764164E+04  0.22094764164E+04  0.00000000000E+00 0. -1.
         25    1    1    2    0    0  0.97873134776E+02  0.42190172523E+02 -0.11450558052E+04  0.11567786989E+04  0.12500000000E+03 0.  0.
         25    1    1    2    0    0 -0.92532141206E+02 -0.66300745121E+02 -0.75323298147E+03  0.77197338707E+03  0.12500000000E+03 0.  0.
         25    1    1    2    0    0 -0.53409935702E+01  0.24110572598E+02 -0.28224207752E+03  0.30966988269E+03  0.12500000000E+03 0.  0.
</event>
<event>
 5    0  0.6020594E-005  0.3247598E+03  0.7546771E-02  0.1073479E+00
         21   -1    0    0  502  501  0.00000000000E+00  0.00000000000E+00  0.54319853314E+03  0.54319853314E+03  0.00000000000E+00 0. -1.
         21   -1    0    0  501  502 -0.00000000000E+00 -0.00000000000E+00 -0.19416277345E+03  0.19416277345E+03  0.00000000000E+00 0. -1.
         25    1    1    2    0    0  0.17688905848E+03 -0.75701603894E+02  0.46579012623E+02  0.23412619729E+03  0.12500000000E+03 0.  0.
         25    1    1    2    0    0 -0.89488208206E+02  0.12777303955E+03  0.53965502956E+02  0.20705401361E+03  0.12500000000E+03 0.  0.
         25    1    1    2    0    0 -0.87400850271E+02 -0.52071435660E+02  0.24849124412E+03  0.29618109569E+03  0.12500000000E+03 0.  0.
</event>
<event>
 5    0  0.5668330E-005  0.3537807E+03  0.7546771E-02  0.1061074E+00
         21   -1    0    0  502  501  0.00000000000E+00  0.00000000000E+00  0.49332258417E+03  0.49332258417E+03  0.00000000000E+00 0. -1.
         21   -1    0    0  501  502 -0.00000000000E+00 -0.00000000000E+00 -0.25370983214E+03  0.25370983214E+03  0.00000000000E+00 0. -1.
         25    1    1    2    0    0 -0.63141411819E+02  0.13368196997E+02  0.19309713796E+03  0.23890803935E+03  0.12500000000E+03 0.  0.
         25    1    1    2    0    0 -0.89349685356E+02 -0.12045919658E+03 -0.11958559747E+03  0.22895305073E+03  0.12500000000E+03 0.  0.
         25    1    1    2    0    0  0.15249109718E+03  0.10709099958E+03  0.16610121155E+03  0.27917132623E+03  0.12500000000E+03 0.  0.
</event>
<event>
 5    0  0.5668330E-005  0.4160542E+03  0.7546771E-02  0.1038358E+00
         21   -1    0    0  502  501  0.00000000000E+00  0.00000000000E+00  0.24314899656E+03  0.24314899656E+03  0.00000000000E+00 0. -1.
         21   -1    0    0  501  502 -0.00000000000E+00 -0.00000000000E+00 -0.71191356715E+03  0.71191356715E+03  0.00000000000E+00 0. -1.
         25    1    1    2    0    0  0.16594537340E+01 -0.14903679343E+03 -0.32452215488E+03  0.37835743496E+03  0.12500000000E+03 0.  0.
         25    1    1    2    0    0 -0.15869889063E+03  0.15215346613E+03 -0.24498418824E+03  0.35210547799E+03  0.12500000000E+03 0.  0.
         25    1    1    2    0    0  0.15703943689E+03 -0.31166726978E+01  0.10074177254E+03  0.22459965076E+03  0.12500000000E+03 0.  0.
</event>
<event>
 5    0  0.5668330E-005  0.2771709E+03  0.7546771E-02  0.1097244E+00
         21   -1    0    0  502  501  0.00000000000E+00  0.00000000000E+00  0.28735783152E+03  0.28735783152E+03  0.00000000000E+00 0.  1.
         21   -1    0    0  501  502 -0.00000000000E+00 -0.00000000000E+00 -0.26734513335E+03  0.26734513335E+03  0.00000000000E+00 0.  1.
         25    1    1    2    0    0  0.73074865374E+00 -0.14707123717E+03 -0.63329229944E+02  0.20314052811E+03  0.12500000000E+03 0.  0.
         25    1    1    2    0    0  0.39045084604E+02  0.11994320346E+03  0.11798322159E+03  0.21320396634E+03  0.12500000000E+03 0.  0.
         25    1    1    2    0    0 -0.39775833258E+02  0.27128033709E+02 -0.34641293481E+02  0.13835847042E+03  0.12500000000E+03 0.  0.
</event>
<event>
 5    0  0.5668330E-005  0.3065009E+03  0.7546771E-02  0.1082035E+00
         21   -1    0    0  502  501  0.00000000000E+00  0.00000000000E+00  0.26282523310E+02  0.26282523310E+02  0.00000000000E+00 0.  1.
         21   -1    0    0  501  502 -0.00000000000E+00 -0.00000000000E+00 -0.35743441017E+04  0.35743441017E+04  0.00000000000E+00 0.  1.
         25    1    1    2    0    0 -0.59844632311E+02  0.21112835115E+02 -0.17355912456E+04  0.17412435509E+04  0.12500000000E+03 0.  0.
         25    1    1    2    0    0 -0.37591014745E+02 -0.67918929674E+02 -0.14879591291E+04  0.14952168523E+04  0.12500000000E+03 0.  0.
         25    1    1    2    0    0  0.97435647056E+02  0.46806094559E+02 -0.32451120371E+03  0.36416622186E+03  0.12500000000E+03 0.  0.
</event>
<event>
 5    0  0.5668330E-005  0.2434947E+03  0.7546771E-02  0.1117486E+00
         21   -1    0    0  502  501  0.00000000000E+00  0.00000000000E+00  0.16391908180E+04  0.16391908180E+04  0.00000000000E+00 0.  1.
         21   -1    0    0  501  502 -0.00000000000E+00 -0.00000000000E+00 -0.36170071751E+02  0.36170071751E+02  0.00000000000E+00 0.  1.
         25    1    1    2    0    0  0.66817568403E+02 -0.58179279709E+02  0.26913453684E+03  0.30968986899E+03  0.12500000000E+03 0.  0.
         25    1    1    2    0    0 -0.44049935268E+02 -0.32642886438E+02  0.65030642787E+03  0.66447679038E+03  0.12500000000E+03 0.  0.
         25    1    1    2    0    0 -0.22767633135E+02  0.90822166147E+02  0.68357978153E+03  0.70119423037E+03  0.12500000000E+03 0.  0.
</event>
<event>
 5    0  0.5668330E-005  0.3244867E+03  0.7546771E-02  0.1073603E+00
         21   -1    0    0  502  501  0.00000000000E+00  0.00000000000E+00  0.23825058705E+03  0.23825058705E+03  0.00000000000E+00 0. -1.
         21   -1    0    0  501  502 -0.00000000000E+00 -0.00000000000E+00 -0.44193634746E+03  0.44193634746E+03  0.00000000000E+00 0. -1.
         25    1    1    2    0    0  0.32320349268E+02  0.68448962830E+02 -0.44581212040E+02  0.15278203414E+03  0.12500000000E+03 0.  0.
         25    1    1    2    0    0 -0.18637422831E+03 -0.13460740397E+03 -0.17942817905E+03  0.31729162866E+03  0.12500000000E+03 0.  0.
         25    1    1    2    0    0  0.15405387904E+03  0.66158441143E+02  0.20323630681E+02  0.21011327170E+03  0.12500000000E+03 0.  0.
</event>
<event>
 5    0  0.5668330E-005  0.3226042E+03  0.7546771E-02  0.1074457E+00
         21   -1    0    0  502  501  0.00000000000E+00  0.00000000000E+00  0.62112055010E+03  0.62112055010E+03  0.00000000000E+00 0.  1.
         21   -1    0    0  501  502 -0.00000000000E+00 -0.00000000000E+00 -0.16755759539E+03  0.16755759539E+03  0.00000000000E+00 0.  1.
         25    1    1    2    0    0  0.23831545545E+02 -0.79529327945E+01  0.64467117941E+01  0.12766264840E+03  0.12500000000E+03 0.  0.
         25    1    1    2    0    0  0.64703588433E+02  0.17644908564E+03  0.34305613155E+03  0.41064990390E+03  0.12500000000E+03 0.  0.
         25    1    1    2    0    0 -0.88535133978E+02 -0.16849615285E+03  0.10406011137E+03  0.25036559319E+03  0.12500000000E+03 0.  0.
</event>
<event>
 5    0  0.5668330E-005  0.2226853E+03  0.7546771E-02  0.1131897E+00
         21   -1    0    0  502  501  0.00000000000E+00  0.00000000000E+00  0.35744071003E+03  0.35744071003E+03  0.00000000000E+00 0.  1.
         21   -1    0    0  501  502 -0.00000000000E+00 -0.00000000000E+00 -0.13873276851E+03  0.13873276851E+03  0.00000000000E+00 0.  1.
         25    1    1    2    0    0 -0.79655224441E+01  0.50383386839E+02  0.16377662492E+03  0.21224918866E+03  0.12500000000E+03 0.  0.
         25    1    1    2    0    0 -0.42194458854E+02  0.50260422062E+01  0.37477758832E+02  0.13724145097E+03  0.12500000000E+03 0.  0.
         25    1    1    2    0    0  0.50159981299E+02 -0.55409429045E+02  0.17453557770E+02  0.14668283891E+03  0.12500000000E+03 0.  0.
</event>
<event>
 5    0  0.5668330E-005  0.2132397E+03  0.7546771E-02  0.1139026E+00
         21   -1    0    0  502  501  0.00000000000E+00  0.00000000000E+00  0.55089663216E+02  0.55089663216E+02  0.00000000000E+00 0. -1.
         21   -1    0    0  501  502 -0.00000000000E+00 -0.00000000000E+00 -0.82540329658E+03  0.82540329658E+03  0.00000000000E+00 0. -1.
         25    1    1    2    0    0 -0.69284889658E+02  0.91622295477E+01 -0.26521792087E+03  0.30141315157E+03  0.12500000000E+03 0.  0.
         25    1    1    2    0    0 -0.13995175939E+02 -0.30738068540E+02 -0.26700156315E+03  0.29674151804E+03  0.12500000000E+03 0.  0.
         25    1    1    2    0    0  0.83280065597E+02  0.21575838992E+02 -0.23809414934E+03  0.28233829019E+03  0.12500000000E+03 0.  0.
</event>
<event>
 5    0  0.5668330E-005  0.2545534E+03  0.7546771E-02  0.1110461E+00
         21   -1    0    0  502  501  0.00000000000E+00  0.00000000000E+00  0.27348037330E+03  0.27348037330E+03  0.00000000000E+00 0. -1.
         21   -1    0    0  501  502 -0.00000000000E+00 -0.00000000000E+00 -0.23693635999E+03  0.23693635999E+03  0.00000000000E+00 0. -1.
         25    1    1    2    0    0 -0.48671494300E+02 -0.26221715127E+02 -0.70477650605E+01  0.13686184163E+03  0.12500000000E+03 0.  0.
         25    1    1    2    0    0 -0.43031523401E+02 -0.10232445208E+02 -0.94451619311E+02  0.16279595613E+03  0.12500000000E+03 0.  0.
         25    1    1    2    0    0  0.91703017701E+02  0.36454160335E+02  0.13804339769E+03  0.21075893553E+03  0.12500000000E+03 0.  0.
</event>
<event>
 5    0  0.5668330E-005  0.2867836E+03  0.7546771E-02  0.1092041E+00
         21   -1    0    0  502  501  0.00000000000E+00  0.00000000000E+00  0.10289082652E+04  0.10289082652E+04  0.00000000000E+00 0. -1.
         21   -1    0    0  501  502 -0.00000000000E+00 -0.00000000000E+00 -0.79934069738E+02  0.79934069738E+02  0.00000000000E+00 0. -1.
         25    1    1    2    0    0 -0.67487597004E+02  0.29937898084E+02  0.41169933804E+03  0.43654575754E+03  0.12500000000E+03 0.  0.
         25    1    1    2    0    0  0.14603561545E+03 -0.76131411276E+02  0.15048375772E+03  0.25572006980E+03  0.12500000000E+03 0.  0.
         25    1    1    2    0    0 -0.78548018447E+02  0.46193513192E+02  0.38679109971E+03  0.41657650759E+03  0.12500000000E+03 0.  0.
</event>
<event>
 5    0  0.5668330E-005  0.2905145E+03  0.7546771E-02  0.1090081E+00
         21   -1    0    0  502  501  0.00000000000E+00  0.00000000000E+00  0.36712229926E+02  0.36712229926E+02  0.00000000000E+00 0.  1.
         21   -1    0    0  501  502 -0.00000000000E+00 -0.00000000000E+00 -0.22989248109E+04  0.22989248109E+04  0.00000000000E+00 0.  1.
         25    1    1    2    0    0 -0.15395805891E+03 -0.56884365114E+02 -0.10640889561E+04  0.10839046182E+04  0.12500000000E+03 0.  0.
         25    1    1    2    0    0  0.85002791707E+02 -0.63441276145E+02 -0.72048201689E+03  0.73889756176E+03  0.12500000000E+03 0.  0.
         25    1    1    2    0    0  0.68955267205E+02  0.12032564126E+03 -0.47764160797E+03  0.51283486083E+03  0.12500000000E+03 0.  0.
</event>
<event>
 5    0  0.5668330E-005  0.3770853E+03  0.7546771E-02  0.1052016E+00
         21   -1    0    0  502  501  0.00000000000E+00  0.00000000000E+00  0.19275121486E+04  0.19275121486E+04  0.00000000000E+00 0. -1.
         21   -1    0    0  501  502 -0.00000000000E+00 -0.00000000000E+00 -0.73770394744E+02  0.73770394744E+02  0.00000000000E+00 0.  1.
         25    1    1    2    0    0 -0.12722753063E+03  0.16621200000E+03  0.35806041202E+03  0.43318071535E+03  0.12500000000E+03 0.  0.
         25    1    1    2    0    0 -0.24370913770E+02  0.83052201427E+02  0.42565352097E+03  0.45199284232E+03  0.12500000000E+03 0.  0.
         25    1    1    2    0    0  0.15159844440E+03 -0.24926420143E+03  0.10700278209E+04  0.11161089857E+04  0.12500000000E+03 0.  0.
</event>
<event>
 5    0  0.5668330E-005  0.2479131E+03  0.7546771E-02  0.1114631E+00
         21   -1    0    0  502  501  0.00000000000E+00  0.00000000000E+00  0.85351261605E+02  0.85351261605E+02  0.00000000000E+00 0.  1.
         21   -1    0    0  501  502 -0.00000000000E+00 -0.00000000000E+00 -0.72009397339E+03  0.72009397339E+03  0.00000000000E+00 0.  1.
         25    1    1    2    0    0  0.63377367817E+02  0.57150098373E+01 -0.16022591706E+03  0.21294763813E+03  0.12500000000E+03 0.  0.
         25    1    1    2    0    0 -0.48110446649E+02  0.11013561309E+03 -0.16792645626E+03  0.24138923559E+03  0.12500000000E+03 0.  0.
         25    1    1    2    0    0 -0.15266921168E+02 -0.11585062293E+03 -0.30659033847E+03  0.35110836127E+03  0.12500000000E+03 0.  0.
</event>
<event>
 5    0  0.5668330E-005  0.5379499E+03  0.7546771E-02  0.1004322E+00
         21   -1    0    0  502  501  0.00000000000E+00  0.00000000000E+00  0.16554647723E+04  0.16554647723E+04  0.00000000000E+00 0. -1.
         21   -1    0    0  501  502 -0.00000000000E+00 -0.00000000000E+00 -0.17480896970E+03  0.17480896970E+03  0.00000000000E+00 0. -1.
         25    1    1    2    0    0 -0.32446802596E+03  0.21611383768E+03  0.37371864273E+03  0.55432419633E+03  0.12500000000E+03 0.  0.
         25    1    1    2    0    0 -0.77178031566E+02 -0.81626906522E+02  0.16449019574E+03  0.23516254999E+03  0.12500000000E+03 0.  0.
         25    1    1    2    0    0  0.40164605753E+03 -0.13448693116E+03  0.94244696413E+03  0.10407869957E+04  0.12500000000E+03 0.  0.
</event>
<event>
 5    0  0.5668330E-005  0.4536048E+03  0.7546771E-02  0.1026652E+00
         21   -1    0    0  502  501  0.00000000000E+00  0.00000000000E+00  0.40715745634E+03  0.40715745634E+03  0.00000000000E+00 0. -1.
         21   -1    0    0  501  502 -0.00000000000E+00 -0.00000000000E+00 -0.50535081035E+03  0.50535081035E+03  0.00000000000E+00 0. -1.
         25    1    1    2    0    0 -0.13541301785E+03  0.92597399248E+02  0.12195634941E+03  0.23960241007E+03  0.12500000000E+03 0.  0.
         25    1    1    2    0    0 -0.14192248353E+03 -0.19462573192E+03  0.20022749679E+02  0.27211592633E+03  0.12500000000E+03 0.  0.
         25    1    1    2    0    0  0.27733550137E+03  0.10202833268E+03 -0.24017245311E+03  0.40078993029E+03  0.12500000000E+03 0.  0.
</event>
<event>
 5    0  0.5668330E-005  0.2411057E+03  0.7546771E-02  0.1119058E+00
         21   -1    0    0  502  501  0.00000000000E+00  0.00000000000E+00  0.11813201089E+04  0.11813201089E+04  0.00000000000E+00 0.  1.
         21   -1    0    0  501  502 -0.00000000000E+00 -0.00000000000E+00 -0.49209333977E+02  0.49209333977E+02  0.00000000000E+00 0.  1.
         25    1    1    2    0    0 -0.75316303542E+02  0.68070312691E+02  0.62672087678E+03  0.64707817954E+03  0.12500000000E+03 0.  0.
         25    1    1    2    0    0  0.88672988759E+02 -0.58769813877E+02  0.25778410835E+03  0.30560503346E+03  0.12500000000E+03 0.  0.
         25    1    1    2    0    0 -0.13356685216E+02 -0.93004988138E+01  0.24760578984E+03  0.27784622992E+03  0.12500000000E+03 0.  0.
</event>
<event>
 5    0  0.5668330E-005  0.3046023E+03  0.7546771E-02  0.1082962E+00
         21   -1    0    0  502  501  0.00000000000E+00  0.00000000000E+00  0.60867536230E+02  0.60867536230E+02  0.00000000000E+00 0.  1.
         21   -1    0    0  501  502 -0.00000000000E+00 -0.00000000000E+00 -0.15243358745E+04  0.15243358745E+04  0.00000000000E+00 0.  1.
         25    1    1    2    0    0  0.22200382075E+02  0.20820269410E+02 -0.12036390309E+03  0.17617834643E+03  0.12500000000E+03 0.  0.
         25    1    1    2    0    0 -0.81999233174E+02  0.96790691654E+02 -0.10436062829E+04  0.10586932445E+04  0.12500000000E+03 0.  0.
         25    1    1    2    0    0  0.59798851100E+02 -0.11761096106E+03 -0.29949815233E+03  0.35033181985E+03  0.12500000000E+03 0.  0.
</event>
<event>
 5    0  0.6202156E-005  0.3396689E+03  0.7546771E-02  0.1066937E+00
         21   -1    0    0  502  501  0.00000000000E+00  0.00000000000E+00  0.22797110235E+03  0.22797110235E+03  0.00000000000E+00 0. -1.
         21   -1    0    0  501  502 -0.00000000000E+00 -0.00000000000E+00 -0.50609465549E+03  0.50609465549E+03  0.00000000000E+00 0. -1.
         25    1    1    2    0    0  0.28649080436E+02 -0.11445196669E+03 -0.12276632683E+02  0.17232451421E+03  0.12500000000E+03 0.  0.
         25    1    1    2    0    0  0.51694232886E+02  0.17821054119E+03  0.28864080517E+02  0.22558684768E+03  0.12500000000E+03 0.  0.
         25    1    1    2    0    0 -0.80343313321E+02 -0.63758574499E+02 -0.29471100098E+03  0.33615439595E+03  0.12500000000E+03 0.  0.
</event>
<event>
 5    0  0.5691752E-005  0.3761721E+03  0.7546771E-02  0.1052358E+00
         21   -1    0    0  502  501  0.00000000000E+00  0.00000000000E+00  0.30694547630E+03  0.30694547630E+03  0.00000000000E+00 0.  1.
         21   -1    0    0  501  502 -0.00000000000E+00 -0.00000000000E+00 -0.46101167525E+03  0.46101167525E+03  0.00000000000E+00 0.  1.
         25    1    1    2    0    0 -0.40621255187E+02  0.72266147351E+02  0.18763108040E+03  0.24021428925E+03  0.12500000000E+03 0.  0.
         25    1    1    2    0    0 -0.86076560775E+02 -0.13208654449E+03 -0.10929680432E+03  0.22896903936E+03  0.12500000000E+03 0.  0.
         25    1    1    2    0    0  0.12669781596E+03  0.59820397143E+02 -0.23240047503E+03  0.29877382295E+03  0.12500000000E+03 0.  0.
</event>
<event>
 5    0  0.5668330E-005  0.3646562E+03  0.7546771E-02  0.1056755E+00
         21   -1    0    0  502  501  0.00000000000E+00  0.00000000000E+00  0.49803178548E+03  0.49803178548E+03  0.00000000000E+00 0. -1.
         21   -1    0    0  501  502 -0.00000000000E+00 -0.00000000000E+00 -0.26699924918E+03  0.26699924918E+03  0.00000000000E+00 0. -1.
         25    1    1    2    0    0  0.19494499777E+03 -0.20055883291E+03  0.18763986529E+03  0.35925077127E+03  0.12500000000E+03 0.  0.
         25    1    1    2    0    0 -0.68724836986E+02  0.11322196383E+03  0.88911949397E+02  0.20266388691E+03  0.12500000000E+03 0.  0.
         25    1    1    2    0    0 -0.12622016079E+03  0.87336869072E+02 -0.45519278388E+02  0.20311637648E+03  0.12500000000E+03 0.  0.
</event>
<event>
 5    0  0.5668330E-005  0.3238407E+03  0.7546771E-02  0.1073895E+00
         21   -1    0    0  502  501  0.00000000000E+00  0.00000000000E+00  0.65744381226E+02  0.65744381226E+02  0.00000000000E+00 0.  1.
         21   -1    0    0  501  502 -0.00000000000E+00 -0.00000000000E+00 -0.15951595095E+04  0.15951595095E+04  0.00000000000E+00 0.  1.
         25    1    1    2    0    0  0.12212927260E+03 -0.12904000221E+03 -0.11232654103E+04  0.11440791334E+04  0.12500000000E+03 0.  0.
         25    1    1    2    0    0 -0.93413103073E+02  0.48548289806E+02 -0.16617745526E+03  0.23307271592E+03  0.12500000000E+03 0.  0.
         25    1    1    2    0    0 -0.28716169529E+02  0.80491712403E+02 -0.23997226271E+03  0.28375204145E+03  0.12500000000E+03 0.  0.
</event>
<event>
 5    0  0.5668330E-005  0.3469444E+03  0.7546771E-02  0.1063876E+00
         21   -1    0    0  502  501  0.00000000000E+00  0.00000000000E+00  0.16847936233E+03  0.16847936233E+03  0.00000000000E+00 0.  1.
         21   -1    0    0  501  502 -0.00000000000E+00 -0.00000000000E+00 -0.71445205752E+03  0.71445205752E+03  0.00000000000E+00 0.  1.
         25    1    1    2    0    0 -0.49784805503E+02 -0.88093219535E+02  0.75883568139E+01  0.16100163150E+03  0.12500000000E+03 0.  0.
         25    1    1    2    0    0  0.16008545091E+03  0.15271565048E+03 -0.19171845762E+03  0.31832434479E+03  0.12500000000E+03 0.  0.
         25    1    1    2    0    0 -0.11030064541E+03 -0.64622430946E+02 -0.36184259438E+03  0.40360544356E+03  0.12500000000E+03 0.  0.
</event>
<event>
 5    0  0.5668330E-005  0.3098906E+03  0.7546771E-02  0.1080398E+00
         21   -1    0    0  502  501  0.00000000000E+00  0.00000000000E+00  0.40343155625E+03  0.40343155625E+03  0.00000000000E+00 0.  1.
         21   -1    0    0  501  502 -0.00000000000E+00 -0.00000000000E+00 -0.23803837579E+03  0.23803837579E+03  0.00000000000E+00 0.  1.
         25    1    1    2    0    0  0.11027721009E+03  0.68965816796E+02  0.54784824069E+02  0.18853043229E+03  0.12500000000E+03 0.  0.
         25    1    1    2    0    0 -0.19849186379E+03  0.17445798484E+01  0.15183221628E+03  0.27942814005E+03  0.12500000000E+03 0.  0.
         25    1    1    2    0    0  0.88214653698E+02 -0.70710396645E+02 -0.41223859896E+02  0.17351135970E+03  0.12500000000E+03 0.  0.
</event>
<event>
 5    0  0.5668330E-005  0.2925489E+03  0.7546771E-02  0.1089026E+00
         21   -1    0    0  502  501  0.00000000000E+00  0.00000000000E+00  0.19690540468E+04  0.19690540468E+04  0.00000000000E+00 0. -1.
         21   -1    0    0  501  502 -0.00000000000E+00 -0.00000000000E+00 -0.43464974100E+02  0.43464974100E+02  0.00000000000E+00 0. -1.
         25    1    1    2    0    0  0.78410573473E+02  0.50123831396E+02  0.64242004201E+03  0.66105153118E+03  0.12500000000E+03 0.  0.
         25    1    1    2    0    0  0.96090319775E+02  0.69354180482E+02  0.41803023077E+03  0.45212567472E+03  0.12500000000E+03 0.  0.
         25    1    1    2    0    0 -0.17450089325E+03 -0.11947801188E+03  0.86513879988E+03  0.89934181495E+03  0.12500000000E+03 0.  0.
</event>
<event>
 5    0  0.5668330E-005  0.3128745E+03  0.7546771E-02  0.1078976E+00
         21   -1    0    0  502  501  0.00000000000E+00  0.00000000000E+00  0.97367606212E+03  0.97367606212E+03  0.00000000000E+00 0.  1.
         21   -1    0    0  501  502 -0.00000000000E+00 -0.00000000000E+00 -0.10053698935E+03  0.10053698935E+03  0.00000000000E+00 0.  1.
         25    1    1    2    0    0  0.12547567811E+03  0.14487688852E+03  0.57543904930E+03  0.61926452997E+03  0.12500000000E+03 0.  0.
         25    1    1    2    0    0 -0.11768452643E+03 -0.50051560073E+02  0.10904731082E+03  0.20945434449E+03  0.12500000000E+03 0.  0.
         25    1    1    2    0    0 -0.77911516818E+01 -0.94825328445E+02  0.18865271265E+03  0.24549417702E+03  0.12500000000E+03 0.  0.
</event>
<event>
 5    0  0.5668330E-005  0.6438712E+03  0.7546771E-02  0.9818348E-01
         21   -1    0    0  502  501  0.00000000000E+00  0.00000000000E+00  0.15192773816E+04  0.15192773816E+04  0.00000000000E+00 0. -1.
         21   -1    0    0  501  502 -0.00000000000E+00 -0.00000000000E+00 -0.27287324733E+03  0.27287324733E+03  0.00000000000E+00 0. -1.
         25    1    1    2    0    0  0.48372642335E+03  0.62505444100E+01  0.16397534624E+03  0.52587378346E+03  0.12500000000E+03 0.  0.
         25    1    1    2    0    0 -0.27830884031E+03  0.17828139633E+03  0.61063449812E+03  0.70550659612E+03  0.12500000000E+03 0.  0.
         25    1    1    2    0    0 -0.20541758304E+03 -0.18453194074E+03  0.47179428995E+03  0.56077024939E+03  0.12500000000E+03 0.  0.
</event>
<event>
 5    0  0.5668330E-005  0.2251593E+03  0.7546771E-02  0.1130094E+00
         21   -1    0    0  502  501  0.00000000000E+00  0.00000000000E+00  0.24318555336E+02  0.24318555336E+02  0.00000000000E+00 0.  1.
         21   -1    0    0  501  502 -0.00000000000E+00 -0.00000000000E+00 -0.20846926142E+04  0.20846926142E+04  0.00000000000E+00 0.  1.
         25    1    1    2    0    0 -0.53422586472E+02  0.49023466896E+01 -0.84801917464E+03  0.85885943338E+03  0.12500000000E+03 0.  0.
         25    1    1    2    0    0  0.71217070779E+01  0.25125893772E+02 -0.90272635951E+03  0.91171372119E+03  0.12500000000E+03 0.  0.
         25    1    1    2    0    0  0.46300879394E+02 -0.30028240462E+02 -0.30962852470E+03  0.33843801496E+03  0.12500000000E+03 0.  0.
</event>
<event>
 5    0  0.6116644E-005  0.3451868E+03  0.7546771E-02  0.1064608E+00
         21   -1    0    0  502  501  0.00000000000E+00  0.00000000000E+00  0.68080312879E+03  0.68080312879E+03  0.00000000000E+00 0. -1.
         21   -1    0    0  501  502 -0.00000000000E+00 -0.00000000000E+00 -0.17501962712E+03  0.17501962712E+03  0.00000000000E+00 0. -1.
         25    1    1    2    0    0 -0.11427421123E+03  0.12634436292E+03  0.30603588036E+02  0.21350192738E+03  0.12500000000E+03 0.  0.
         25    1    1    2    0    0  0.13234279751E+03  0.22181937847E+02  0.38717945867E+03  0.42841520472E+03  0.12500000000E+03 0.  0.
         25    1    1    2    0    0 -0.18068586282E+02 -0.14852630076E+03  0.88000454967E+02  0.21390562382E+03  0.12500000000E+03 0.  0.
</event>
<event>
 5    0  0.6299465E-005  0.3761234E+03  0.7546771E-02  0.1052376E+00
         21   -1    0    0  502  501  0.00000000000E+00  0.00000000000E+00  0.36217268993E+03  0.36217268993E+03  0.00000000000E+00 0.  1.
         21   -1    0    0  501  502 -0.00000000000E+00 -0.00000000000E+00 -0.39061141933E+03  0.39061141933E+03  0.00000000000E+00 0.  1.
         25    1    1    2    0    0 -0.47281471482E+02  0.92262122199E+02 -0.27449822285E+03  0.31893903976E+03  0.12500000000E+03 0.  0.
         25    1    1    2    0    0 -0.72483380486E+02 -0.72085071501E+02  0.19303820601E+03  0.25167210207E+03  0.12500000000E+03 0.  0.
         25    1    1    2    0    0  0.11976485197E+03 -0.20177050697E+02  0.53021287438E+02  0.18217296743E+03  0.12500000000E+03 0.  0.
</event>
<event>
 5    0  0.5668330E-005  0.3376421E+03  0.7546771E-02  0.1067805E+00
         21   -1    0    0  502  501  0.00000000000E+00  0.00000000000E+00  0.19029011186E+04  0.19029011186E+04  0.00000000000E+00 0. -1.
         21   -1    0    0  501  502 -0.00000000000E+00 -0.00000000000E+00 -0.59909676427E+02  0.59909676427E+02  0.00000000000E+00 0. -1.
         25    1    1    2    0    0 -0.48145352745E+02 -0.20591676775E+02  0.10145475706E+04  0.10235593608E+04  0.12500000000E+03 0.  0.
         25    1    1    2    0    0  0.49873018830E+02  0.14307056370E+03  0.68609565913E+03  0.71365871233E+03  0.12500000000E+03 0.  0.
         25    1    1    2    0    0 -0.17276660847E+01 -0.12247888693E+03  0.14234821245E+03  0.22559272187E+03  0.12500000000E+03 0.  0.
</event>
<event>
 5    0  0.5668330E-005  0.3535762E+03  0.7546771E-02  0.1061157E+00
         21   -1    0    0  502  501  0.00000000000E+00  0.00000000000E+00  0.73104140411E+02  0.73104140411E+02  0.00000000000E+00 0.  1.
         21   -1    0    0  501  502 -0.00000000000E+00 -0.00000000000E+00 -0.17101100903E+04  0.17101100903E+04  0.00000000000E+00 0.  1.
         25    1    1    2    0    0  0.81428271830E+02 -0.13269365013E+03 -0.83003450578E+03  0.85370981546E+03  0.12500000000E+03 0.  0.
         25    1    1    2    0    0 -0.12227258147E+03  0.14529833504E+03 -0.75338911742E+03  0.78694494890E+03  0.12500000000E+03 0.  0.
         25    1    1    2    0    0  0.40844309643E+02 -0.12604684909E+02 -0.53582326684E+02  0.14255946635E+03  0.12500000000E+03 0.  0.
</event>
<event>
 5    0  0.7074524E-005  0.3006507E+03  0.7546771E-02  0.1084916E+00
         21   -1    0    0  502  501  0.00000000000E+00  0.00000000000E+00  0.18514195077E+03  0.18514195077E+03  0.00000000000E+00 0.  1.
         21   -1    0    0  501  502 -0.00000000000E+00 -0.00000000000E+00 -0.48822462781E+03  0.48822462781E+03  0.00000000000E+00 0.  1.
         25    1    1    2    0    0  0.68860405225E+02  0.43220431178E+02  0.48405259093E+02  0.15677318070E+03  0.12500000000E+03 0.  0.
         25    1    1    2    0    0 -0.99315261144E+02 -0.23206777856E+02 -0.22643600583E+02  0.16291043024E+03  0.12500000000E+03 0.  0.
         25    1    1    2    0    0  0.30454855919E+02 -0.20013653322E+02 -0.32884433555E+03  0.35368296763E+03  0.12500000000E+03 0.  0.
</event>
<event>
 5    0  0.5668330E-005  0.3523309E+03  0.7546771E-02  0.1061662E+00
         21   -1    0    0  502  501  0.00000000000E+00  0.00000000000E+00  0.32666481606E+03  0.32666481606E+03  0.00000000000E+00 0.  1.
         21   -1    0    0  501  502 -0.00000000000E+00 -0.00000000000E+00 -0.38001361154E+03  0.38001361154E+03  0.00000000000E+00 0.  1.
         25    1    1    2    0    0  0.16078599423E+03 -0.65081451995E+02 -0.24173780419E+03  0.32272263216E+03  0.12500000000E+03 0.  0.
         25    1    1    2    0    0 -0.35512701139E+02  0.37942701754E+02  0.17583535005E+02  0.13651000426E+03  0.12500000000E+03 0.  0.
         25    1    1    2    0    0 -0.12527329310E+03  0.27138750241E+02  0.17080547370E+03  0.24744579118E+03  0.12500000000E+03 0.  0.
</event>
<event>
 5    0  0.5668330E-005  0.3824325E+03  0.7546771E-02  0.1050038E+00
         21   -1    0    0  502  501  0.00000000000E+00  0.00000000000E+00  0.59973605895E+03  0.59973605895E+03  0.00000000000E+00 0. -1.
         21   -1    0    0  501  502 -0.00000000000E+00 -0.00000000000E+00 -0.24386502817E+03  0.24386502817E+03  0.00000000000E+00 0. -1.
         25    1    1    2    0    0 -0.24852772087E+03 -0.16284994844E+03  0.22371611961E+03  0.39237741515E+03  0.12500000000E+03 0.  0.
         25    1    1    2    0    0  0.15471410362E+03 -0.74250588137E+01  0.78435189162E+02  0.21393612191E+03  0.12500000000E+03 0.  0.
         25    1    1    2    0    0  0.93813617247E+02  0.17027500726E+03  0.53719722006E+02  0.23728755005E+03  0.12500000000E+03 0.  0.
</event>
<event>
 5    0  0.6241767E-005  0.4118574E+03  0.7546771E-02  0.1039750E+00
         21   -1    0    0  502  501  0.00000000000E+00  0.00000000000E+00  0.70923432458E+03  0.70923432458E+03  0.00000000000E+00 0.  1.
         21   -1    0    0  501  502 -0.00000000000E+00 -0.00000000000E+00 -0.23916849194E+03  0.23916849194E+03  0.00000000000E+00 0.  1.
         25    1    1    2    0    0  0.19656225234E+03  0.61681258251E+02 -0.22807593532E+02  0.24204644799E+03  0.12500000000E+03 0.  0.
         25    1    1    2    0    0 -0.61980162344E+02  0.15695503867E+03  0.13987469329E+03  0.25232192634E+03  0.12500000000E+03 0.  0.
         25    1    1    2    0    0 -0.13458209000E+03 -0.21863629692E+03  0.35299873288E+03  0.45403444218E+03  0.12500000000E+03 0.  0.
</event>
<event>
 5    0  0.5668330E-005  0.3110936E+03  0.7546771E-02  0.1079823E+00
         21   -1    0    0  502  501  0.00000000000E+00  0.00000000000E+00  0.97890007950E+02  0.97890007950E+02  0.00000000000E+00 0.  1.
         21   -1    0    0  501  502 -0.00000000000E+00 -0.00000000000E+00 -0.98865273136E+03  0.98865273136E+03  0.00000000000E+00 0.  1.
         25    1    1    2    0    0 -0.22074016685E+03 -0.54562205291E+02 -0.35582851965E+03  0.44038868162E+03  0.12500000000E+03 0.  0.
         25    1    1    2    0    0  0.38272306808E+02 -0.95573008303E+01 -0.21839723904E+03  0.25471251537E+03  0.12500000000E+03 0.  0.
         25    1    1    2    0    0  0.18246786004E+03  0.64119506122E+02 -0.31653696472E+03  0.39144154231E+03  0.12500000000E+03 0.  0.
</event>
<event>
 5    0  0.5668330E-005  0.2799426E+03  0.7546771E-02  0.1095720E+00
         21   -1    0    0  502  501  0.00000000000E+00  0.00000000000E+00  0.24892186738E+03  0.24892186738E+03  0.00000000000E+00 0. -1.
         21   -1    0    0  501  502 -0.00000000000E+00 -0.00000000000E+00 -0.31482920314E+03  0.31482920314E+03  0.00000000000E+00 0. -1.
         25    1    1    2    0    0 -0.17932695694E+02 -0.12565226785E+03  0.46983049677E+02  0.18423485269E+03  0.12500000000E+03 0.  0.
         25    1    1    2    0    0 -0.95986685336E+02  0.11061513546E+03 -0.60312422723E+02  0.20177150514E+03  0.12500000000E+03 0.  0.
         25    1    1    2    0    0  0.11391938103E+03  0.15037132394E+02 -0.52577962709E+02  0.17774471268E+03  0.12500000000E+03 0.  0.
</event>
<event>
 5    0  0.5668330E-005  0.2422445E+03  0.7546771E-02  0.1118307E+00
         21   -1    0    0  502  501  0.00000000000E+00  0.00000000000E+00  0.48187186236E+02  0.48187186236E+02  0.00000000000E+00 0. -1.
         21   -1    0    0  501  502 -0.00000000000E+00 -0.00000000000E+00 -0.12178005071E+04  0.12178005071E+04  0.00000000000E+00 0. -1.
         25    1    1    2    0    0  0.36154815151E+02  0.14814277910E+02 -0.53540974131E+03  0.55119436189E+03  0.12500000000E+03 0.  0.
         25    1    1    2    0    0 -0.83255276557E+02  0.55766178048E+02 -0.20760898360E+03  0.26223614885E+03  0.12500000000E+03 0.  0.
         25    1    1    2    0    0  0.47100461406E+02 -0.70580455959E+02 -0.42659459593E+03  0.45255718258E+03  0.12500000000E+03 0.  0.
</event>
<event>
 5    0  0.5668330E-005  0.4722893E+03  0.7546771E-02  0.1021276E+00
         21   -1    0    0  502  501  0.00000000000E+00  0.00000000000E+00  0.53469563284E+03  0.53469563284E+03  0.00000000000E+00 0.  1.
         21   -1    0    0  501  502 -0.00000000000E+00 -0.00000000000E+00 -0.41716663106E+03  0.41716663106E+03  0.00000000000E+00 0.  1.
         25    1    1    2    0    0 -0.25510770454E+03  0.14171120423E+03  0.32100995470E+03  0.45148022918E+03  0.12500000000E+03 0.  0.
         25    1    1    2    0    0  0.24122153269E+03 -0.17128835091E+03 -0.18275767015E+03  0.36953063876E+03  0.12500000000E+03 0.  0.
         25    1    1    2    0    0  0.13886171857E+02  0.29577146681E+02 -0.20723282772E+02  0.13085139596E+03  0.12500000000E+03 0.  0.
</event>
<event>
 5    0  0.5668330E-005  0.2185205E+03  0.7546771E-02  0.1134991E+00
         21   -1    0    0  502  501  0.00000000000E+00  0.00000000000E+00  0.27246959462E+03  0.27246959462E+03  0.00000000000E+00 0.  1.
         21   -1    0    0  501  502 -0.00000000000E+00 -0.00000000000E+00 -0.17525340546E+03  0.17525340546E+03  0.00000000000E+00 0.  1.
         25    1    1    2    0    0  0.56637223437E+01  0.94795742409E+00 -0.40672363401E+02  0.13157590022E+03  0.12500000000E+03 0.  0.
         25    1    1    2    0    0 -0.23665781175E+02 -0.52775150454E+01  0.14068760189E+03  0.18975226662E+03  0.12500000000E+03 0.  0.
         25    1    1    2    0    0  0.18002058832E+02  0.43295576213E+01 -0.27990493189E+01  0.12639483323E+03  0.12500000000E+03 0.  0.
</event>
<event>
 5    0  0.5668330E-005  0.2381007E+03  0.7546771E-02  0.1121065E+00
         21   -1    0    0  502  501  0.00000000000E+00  0.00000000000E+00  0.32554468421E+03  0.32554468421E+03  0.00000000000E+00 0.  1.
         21   -1    0    0  501  502 -0.00000000000E+00 -0.00000000000E+00 -0.17414483622E+03  0.17414483622E+03  0.00000000000E+00 0.  1.
         25    1    1    2    0    0  0.33476745820E+02 -0.23047961649E+02  0.15261469702E+02  0.13232465191E+03  0.12500000000E+03 0.  0.
         25    1    1    2    0    0 -0.88914102612E+02  0.37088336793E+01 -0.24649733988E+02  0.15540940279E+03  0.12500000000E+03 0.  0.
         25    1    1    2    0    0  0.55437356793E+02  0.19339127970E+02  0.16078811228E+03  0.21195546572E+03  0.12500000000E+03 0.  0.
</event>
<event>
 5    0  0.5668330E-005  0.2066402E+03  0.7546771E-02  0.1144255E+00
         21   -1    0    0  502  501  0.00000000000E+00  0.00000000000E+00  0.31203095583E+03  0.31203095583E+03  0.00000000000E+00 0. -1.
         21   -1    0    0  501  502 -0.00000000000E+00 -0.00000000000E+00 -0.13684600710E+03  0.13684600710E+03  0.00000000000E+00 0. -1.
         25    1    1    2    0    0 -0.29874171913E+02  0.17075204812E+02  0.14678932565E+02  0.13047796683E+03  0.12500000000E+03 0.  0.
         25    1    1    2    0    0  0.47325670571E+01 -0.47849100978E+02  0.12333996760E+03  0.18207053925E+03  0.12500000000E+03 0.  0.
         25    1    1    2    0    0  0.25141604856E+02  0.30773896166E+02  0.37166048574E+02  0.13632845685E+03  0.12500000000E+03 0.  0.
</event>
<event>
 5    0  0.5668330E-005  0.2406979E+03  0.7546771E-02  0.1119329E+00
         21   -1    0    0  502  501  0.00000000000E+00  0.00000000000E+00  0.69862480477E+03  0.69862480477E+03  0.00000000000E+00 0. -1.
         21   -1    0    0  501  502 -0.00000000000E+00 -0.00000000000E+00 -0.82927899097E+02  0.82927899097E+02  0.00000000000E+00 0. -1.
         25    1    1    2    0    0 -0.57301416962E+02 -0.47156628702E+02  0.44580927682E+03  0.46891162420E+03  0.12500000000E+03 0.  0.
         25    1    1    2    0    0  0.34511519764E+02  0.10211298513E+02  0.87389880791E+02  0.15670771161E+03  0.12500000000E+03 0.  0.
         25    1    1    2    0    0  0.22789897197E+02  0.36945330189E+02  0.82497748069E+02  0.15593336806E+03  0.12500000000E+03 0.  0.
</event>
<event>
 5    0  0.6129539E-005  0.3825070E+03  0.7546771E-02  0.1050011E+00
         21   -1    0    0  502  501  0.00000000000E+00  0.00000000000E+00  0.42430316157E+03  0.42430316157E+03  0.00000000000E+00 0. -1.
         21   -1    0    0  501  502 -0.00000000000E+00 -0.00000000000E+00 -0.34482807519E+03  0.34482807519E+03  0.00000000000E+00 0. -1.
         25    1    1    2    0    0  0.11314899541E+03 -0.11653656668E+03 -0.14327716259E+03  0.25007361287E+03  0.12500000000E+03 0.  0.
         25    1    1    2    0    0  0.70067864271E+02 -0.14727502782E+02  0.21798808658E+03  0.26128568815E+03  0.12500000000E+03 0.  0.
         25    1    1    2    0    0 -0.18321685968E+03  0.13126406947E+03  0.47641623851E+01  0.25777193573E+03  0.12500000000E+03 0.  0.
</event>
<event>
 5    0  0.5668330E-005  0.3484590E+03  0.7546771E-02  0.1063249E+00
         21   -1    0    0  502  501  0.00000000000E+00  0.00000000000E+00  0.20716261094E+03  0.20716261094E+03  0.00000000000E+00 0. -1.
         21   -1    0    0  501  502 -0.00000000000E+00 -0.00000000000E+00 -0.58612730227E+03  0.58612730227E+03  0.00000000000E+00 0. -1.
         25    1    1    2    0    0 -0.28326870436E+03 -0.14494079109E+02 -0.15062188342E+03  0.34462035483E+03  0.12500000000E+03 0.  0.
         25    1    1    2    0    0  0.16210146975E+03  0.21520587226E+02 -0.16313783595E+03  0.26263848859E+03  0.12500000000E+03 0.  0.
         25    1    1    2    0    0  0.12116723461E+03 -0.70265081164E+01 -0.65204971966E+02  0.18603106979E+03  0.12500000000E+03 0.  0.
</event>
<event>
 5    0  0.5668330E-005  0.3193938E+03  0.7546771E-02  0.1075929E+00
         21   -1    0    0  502  501  0.00000000000E+00  0.00000000000E+00  0.31799453684E+03  0.31799453684E+03  0.00000000000E+00 0.  1.
         21   -1    0    0  501  502 -0.00000000000E+00 -0.00000000000E+00 -0.32079927981E+03  0.32079927981E+03  0.00000000000E+00 0.  1.
         25    1    1    2    0    0  0.13271775132E+03 -0.10947607437E+03 -0.37216790782E+01  0.21269194453E+03  0.12500000000E+03 0.  0.
         25    1    1    2    0    0 -0.63895026993E+02  0.20917712591E+03 -0.41875215589E+01  0.25195273330E+03  0.12500000000E+03 0.  0.
         25    1    1    2    0    0 -0.68822724322E+02 -0.99701051548E+02  0.51044576634E+01  0.17414913882E+03  0.12500000000E+03 0.  0.
</event>
<event>
 5    0  0.5668330E-005  0.4282614E+03  0.7546771E-02  0.1034411E+00
         21   -1    0    0  502  501  0.00000000000E+00  0.00000000000E+00  0.36182117712E+03  0.36182117712E+03  0.00000000000E+00 0.  1.
         21   -1    0    0  501  502 -0.00000000000E+00 -0.00000000000E+00 -0.50690186552E+03  0.50690186552E+03  0.00000000000E+00 0.  1.
         25    1    1    2    0    0  0.51784100800E+02 -0.20660368155E+03 -0.14785413467E+03  0.28784113581E+03  0.12500000000E+03 0.  0.
         25    1    1    2    0    0 -0.16880320233E+03  0.20568763258E+03  0.17161533817E+03  0.34040967614E+03  0.12500000000E+03 0.  0.
         25    1    1    2    0    0  0.11701910153E+03  0.91604897093E+00 -0.16884189190E+03  0.24047223068E+03  0.12500000000E+03 0.  0.
</event>
<event>
 5    0  0.5668330E-005  0.2633894E+03  0.7546771E-02  0.1105124E+00
         21   -1    0    0  502  501  0.00000000000E+00  0.00000000000E+00  0.50764925468E+03  0.50764925468E+03  0.00000000000E+00 0.  1.
         21   -1    0    0  501  502 -0.00000000000E+00 -0.00000000000E+00 -0.13665730944E+03  0.13665730944E+03  0.00000000000E+00 0.  1.
         25    1    1    2    0    0  0.35946934306E+02 -0.71756742410E+02  0.90633693330E+02  0.17401344354E+03  0.12500000000E+03 0.  0.
         25    1    1    2    0    0 -0.16963307659E+02  0.41267580163E+02  0.30972184662E+03  0.33696199972E+03  0.12500000000E+03 0.  0.
         25    1    1    2    0    0 -0.18983626647E+02  0.30489162247E+02 -0.29363594714E+02  0.13333112086E+03  0.12500000000E+03 0.  0.
</event>
<event>
 5    0  0.5668330E-005  0.5646321E+03  0.7546771E-02  0.9981628E-01
         21   -1    0    0  502  501  0.00000000000E+00  0.00000000000E+00  0.24580932096E+04  0.24580932096E+04  0.00000000000E+00 0.  1.
         21   -1    0    0  501  502 -0.00000000000E+00 -0.00000000000E+00 -0.12969786334E+03  0.12969786334E+03  0.00000000000E+00 0.  1.
         25    1    1    2    0    0  0.46345807736E+02 -0.14279944533E+03 -0.17931988371E+02  0.19617892774E+03  0.12500000000E+03 0.  0.
         25    1    1    2    0    0 -0.10141912981E+03 -0.96481171838E+02  0.95856769318E+03  0.97676582599E+03  0.12500000000E+03 0.  0.
         25    1    1    2    0    0  0.55073322076E+02  0.23928061717E+03  0.13877596415E+04  0.14148463192E+04  0.12500000000E+03 0.  0.
</event>
<event>
 5    0  0.5668330E-005  0.4161428E+03  0.7546771E-02  0.1038329E+00
         21   -1    0    0  502  501  0.00000000000E+00  0.00000000000E+00  0.18279274612E+03  0.18279274612E+03  0.00000000000E+00 0.  1.
         21   -1    0    0  501  502 -0.00000000000E+00 -0.00000000000E+00 -0.94738339192E+03  0.94738339192E+03  0.00000000000E+00 0.  1.
         25    1    1    2    0    0  0.99149181809E+02 -0.15218065458E+03 -0.31644303852E+03  0.38568213403E+03  0.12500000000E+03 0.  0.
         25    1    1    2    0    0 -0.18386800368E+03  0.30472140161E+03 -0.31885871631E+03  0.49392150828E+03  0.12500000000E+03 0.  0.
         25    1    1    2    0    0  0.84718821874E+02 -0.15254074704E+03 -0.12928889097E+03  0.25057249573E+03  0.12500000000E+03 0.  0.
</event>
<event>
 5    0  0.5668330E-005  0.3349928E+03  0.7546771E-02  0.1068949E+00
         21   -1    0    0  502  501  0.00000000000E+00  0.00000000000E+00  0.10729538745E+04  0.10729538745E+04  0.00000000000E+00 0. -1.
         21   -1    0    0  501  502 -0.00000000000E+00 -0.00000000000E+00 -0.10458995139E+03  0.10458995139E+03  0.00000000000E+00 0. -1.
         25    1    1    2    0    0  0.90589261936E+02  0.10482517851E+03  0.73883442679E+03  0.76203414795E+03  0.12500000000E+03 0.  0.
         25    1    1    2    0    0 -0.88807488536E+02  0.36508987656E+02  0.10102652606E+03  0.18721921687E+03  0.12500000000E+03 0.  0.
         25    1    1    2    0    0 -0.17817733991E+01 -0.14133416617E+03  0.12850297025E+03  0.22829046105E+03  0.12500000000E+03 0.  0.
</event>
<event>
 5    0  0.6159077E-005  0.2695920E+03  0.7546771E-02  0.1101513E+00
         21   -1    0    0  502  501  0.00000000000E+00  0.00000000000E+00  0.17226891674E+03  0.17226891674E+03  0.00000000000E+00 0. -1.
         21   -1    0    0  501  502 -0.00000000000E+00 -0.00000000000E+00 -0.42189762023E+03  0.42189762023E+03  0.00000000000E+00 0. -1.
         25    1    1    2    0    0 -0.16152151883E+02  0.12958067443E+02 -0.85338699780E+02  0.15276287901E+03  0.12500000000E+03 0.  0.
         25    1    1    2    0    0 -0.87663053157E+01  0.60167831083E+02 -0.23905479927E+03  0.27653067291E+03  0.12500000000E+03 0.  0.
         25    1    1    2    0    0  0.24918457199E+02 -0.73125898526E+02  0.74764795567E+02  0.16487298505E+03  0.12500000000E+03 0.  0.
</event>
<event>
 5    0  0.5668330E-005  0.2402166E+03  0.7546771E-02  0.1119649E+00
         21   -1    0    0  502  501  0.00000000000E+00  0.00000000000E+00  0.18516830030E+03  0.18516830030E+03  0.00000000000E+00 0.  1.
         21   -1    0    0  501  502 -0.00000000000E+00 -0.00000000000E+00 -0.31163008491E+03  0.31163008491E+03  0.00000000000E+00 0.  1.
         25    1    1    2    0    0  0.10073274605E+03 -0.23231210993E+01 -0.43119386873E+02  0.16624308870E+03  0.12500000000E+03 0.  0.
         25    1    1    2    0    0 -0.33771343470E+02  0.47763952308E+01  0.47098792663E+02  0.13786447643E+03  0.12500000000E+03 0.  0.
         25    1    1    2    0    0 -0.66961402576E+02 -0.24532741315E+01 -0.13044119040E+03  0.19269082007E+03  0.12500000000E+03 0.  0.
</event>
<event>
 5    0  0.5668330E-005  0.3583503E+03  0.7546771E-02  0.1059239E+00
         21   -1    0    0  502  501  0.00000000000E+00  0.00000000000E+00  0.89733999104E+02  0.89733999104E+02  0.00000000000E+00 0.  1.
         21   -1    0    0  501  502 -0.00000000000E+00 -0.00000000000E+00 -0.14310621462E+04  0.14310621462E+04  0.00000000000E+00 0.  1.
         25    1    1    2    0    0 -0.30451199030E+02  0.18950914452E+02 -0.21495166553E+03  0.25122824521E+03  0.12500000000E+03 0.  0.
         25    1    1    2    0    0 -0.18165060193E+03 -0.89534651553E+02 -0.88921727130E+03  0.92051385138E+03  0.12500000000E+03 0.  0.
         25    1    1    2    0    0  0.21210180096E+03  0.70583737101E+02 -0.23715921032E+03  0.34905404876E+03  0.12500000000E+03 0.  0.
</event>
<event>
 5    0  0.5668330E-005  0.2525984E+03  0.7546771E-02  0.1111674E+00
         21   -1    0    0  502  501  0.00000000000E+00  0.00000000000E+00  0.44768186316E+03  0.44768186316E+03  0.00000000000E+00 0. -1.
         21   -1    0    0  501  502 -0.00000000000E+00 -0.00000000000E+00 -0.14252525424E+03  0.14252525424E+03  0.00000000000E+00 0. -1.
         25    1    1    2    0    0  0.33039876928E+02 -0.80864652055E+01  0.10631756827E+01  0.12954981563E+03  0.12500000000E+03 0.  0.
         25    1    1    2    0    0  0.72386301576E+02 -0.67859375024E+02  0.18620590202E+03  0.24523929004E+03  0.12500000000E+03 0.  0.
         25    1    1    2    0    0 -0.10542617850E+03  0.75945840230E+02  0.11788753122E+03  0.21541801173E+03  0.12500000000E+03 0.  0.
</event>
<event>
 5    0  0.5668330E-005  0.3159035E+03  0.7546771E-02  0.1077550E+00
         21   -1    0    0  502  501  0.00000000000E+00  0.00000000000E+00  0.11727271098E+03  0.11727271098E+03  0.00000000000E+00 0.  1.
         21   -1    0    0  501  502 -0.00000000000E+00 -0.00000000000E+00 -0.85096568231E+03  0.85096568231E+03  0.00000000000E+00 0.  1.
         25    1    1    2    0    0  0.54000876432E+02 -0.69133788135E+02 -0.34912353690E+03  0.38106143775E+03  0.12500000000E+03 0.  0.
         25    1    1    2    0    0 -0.16838784098E+03 -0.55476944687E+02 -0.11581963229E+03  0.24590921822E+03  0.12500000000E+03 0.  0.
         25    1    1    2    0    0  0.11438696454E+03  0.12461073282E+03 -0.26874980213E+03  0.34126773732E+03  0.12500000000E+03 0.  0.
</event>
<event>
 5    0  0.6278157E-005  0.4265000E+03  0.7546771E-02  0.1034971E+00
         21   -1    0    0  502  501  0.00000000000E+00  0.00000000000E+00  0.35334582719E+03  0.35334582719E+03  0.00000000000E+00 0. -1.
         21   -1    0    0  501  502 -0.00000000000E+00 -0.00000000000E+00 -0.51479960050E+03  0.51479960050E+03  0.00000000000E+00 0. -1.
         25    1    1    2    0    0  0.73782623296E+02 -0.17695397754E+03  0.18909657249E+03  0.29688229889E+03  0.12500000000E+03 0.  0.
         25    1    1    2    0    0 -0.16879016497E+03  0.19780717320E+03 -0.18833576330E+03  0.34454775765E+03  0.12500000000E+03 0.  0.
         25    1    1    2    0    0  0.95007541677E+02 -0.20853195660E+02 -0.16221458250E+03  0.22671537116E+03  0.12500000000E+03 0.  0.
</event>
<event>
 5    0  0.5668330E-005  0.2727532E+03  0.7546771E-02  0.1099714E+00
         21   -1    0    0  502  501  0.00000000000E+00  0.00000000000E+00  0.25387783259E+03  0.25387783259E+03  0.00000000000E+00 0.  1.
         21   -1    0    0  501  502 -0.00000000000E+00 -0.00000000000E+00 -0.29303193768E+03  0.29303193768E+03  0.00000000000E+00 0.  1.
         25    1    1    2    0    0  0.33573885151E+02  0.24927787150E+02  0.54612327189E+02  0.14267482825E+03  0.12500000000E+03 0.  0.
         25    1    1    2    0    0  0.13009460129E+03  0.77368785077E+01 -0.14508454432E+02  0.18116279923E+03  0.12500000000E+03 0.  0.
         25    1    1    2    0    0 -0.16366848644E+03 -0.32664665658E+02 -0.79257977843E+02  0.22307214279E+03  0.12500000000E+03 0.  0.
</event>
<event>
 5    0  0.5668330E-005  0.3430941E+03  0.7546771E-02  0.1065486E+00
         21   -1    0    0  502  501  0.00000000000E+00  0.00000000000E+00  0.45964972820E+03  0.45964972820E+03  0.00000000000E+00 0.  1.
         21   -1    0    0  501  502 -0.00000000000E+00 -0.00000000000E+00 -0.25609399274E+03  0.25609399274E+03  0.00000000000E+00 0.  1.
         25    1    1    2    0    0  0.44752056120E+01 -0.34251200982E+02 -0.88425902827E+02  0.15696277433E+03  0.12500000000E+03 0.  0.
         25    1    1    2    0    0 -0.14727348827E+03  0.15795042464E+03  0.16399049522E+03  0.29858951675E+03  0.12500000000E+03 0.  0.
         25    1    1    2    0    0  0.14279828266E+03 -0.12369922366E+03  0.12799114307E+03  0.26019142985E+03  0.12500000000E+03 0.  0.
</event>
<event>
 5    0  0.5668330E-005  0.3620349E+03  0.7546771E-02  0.1057781E+00
         21   -1    0    0  502  501  0.00000000000E+00  0.00000000000E+00  0.24135139723E+04  0.24135139723E+04  0.00000000000E+00 0.  1.
         21   -1    0    0  501  502 -0.00000000000E+00 -0.00000000000E+00 -0.54306394480E+02  0.54306394480E+02  0.00000000000E+00 0.  1.
         25    1    1    2    0    0 -0.66279789108E+02 -0.18610358446E+03  0.34748959549E+03  0.41880971045E+03  0.12500000000E+03 0.  0.
         25    1    1    2    0    0 -0.32538195538E+02 -0.95246754286E+01  0.88211603564E+03  0.89157341478E+03  0.12500000000E+03 0.  0.
         25    1    1    2    0    0  0.98817984647E+02  0.19562825989E+03  0.11296019467E+04  0.11574372416E+04  0.12500000000E+03 0.  0.
</event>
<event>
 5    0  0.5668330E-005  0.3002843E+03  0.7546771E-02  0.1085099E+00
         21   -1    0    0  502  501  0.00000000000E+00  0.00000000000E+00  0.13019503930E+04  0.13019503930E+04  0.00000000000E+00 0.  1.
         21   -1    0    0  501  502 -0.00000000000E+00 -0.00000000000E+00 -0.69258124539E+02  0.69258124539E+02  0.00000000000E+00 0.  1.
         25    1    1    2    0    0 -0.17183202305E+03  0.46732349449E+02  0.81226283595E+03  0.84089599315E+03  0.12500000000E+03 0.  0.
         25    1    1    2    0    0  0.54654158801E+02  0.25472436828E+00  0.24622521452E+03  0.28149422414E+03  0.12500000000E+03 0.  0.
         25    1    1    2    0    0  0.11717786425E+03 -0.46987073817E+02  0.17420421800E+03  0.24881830026E+03  0.12500000000E+03 0.  0.
</event>
<event>
 5    0  0.5668330E-005  0.4641044E+03  0.7546771E-02  0.1023598E+00
         21   -1    0    0  502  501  0.00000000000E+00  0.00000000000E+00  0.27977664106E+03  0.27977664106E+03  0.00000000000E+00 0.  1.
         21   -1    0    0  501  502 -0.00000000000E+00 -0.00000000000E+00 -0.76987442172E+03  0.76987442172E+03  0.00000000000E+00 0.  1.
         25    1    1    2    0    0 -0.12809109664E+03  0.35973318709E+03 -0.84345203432E+02  0.41055378244E+03  0.12500000000E+03 0.  0.
         25    1    1    2    0    0  0.78323104137E+02 -0.11816795978E+03 -0.27384949014E+03  0.33274121868E+03  0.12500000000E+03 0.  0.
         25    1    1    2    0    0  0.49767992507E+02 -0.24156522732E+03 -0.13190308708E+03  0.30635606165E+03  0.12500000000E+03 0.  0.
</event>
<event>
 5    0  0.5668330E-005  0.3206384E+03  0.7546771E-02  0.1075356E+00
         21   -1    0    0  502  501  0.00000000000E+00  0.00000000000E+00  0.13060189454E+04  0.13060189454E+04  0.00000000000E+00 0.  1.
         21   -1    0    0  501  502 -0.00000000000E+00 -0.00000000000E+00 -0.78719369120E+02  0.78719369120E+02  0.00000000000E+00 0.  1.
         25    1    1    2    0    0  0.92134833758E+02  0.29245786262E+02  0.72892041219E+03  0.74585126595E+03  0.12500000000E+03 0.  0.
         25    1    1    2    0    0  0.41498294369E+01 -0.47991034250E+01  0.45716309164E+03  0.47398665048E+03  0.12500000000E+03 0.  0.
         25    1    1    2    0    0 -0.96284663195E+02 -0.24446682837E+02  0.41216072472E+02  0.16490039811E+03  0.12500000000E+03 0.  0.
</event>
<event>
 5    0  0.5668330E-005  0.2819313E+03  0.7546771E-02  0.1094639E+00
         21   -1    0    0  502  501  0.00000000000E+00  0.00000000000E+00  0.12139718622E+04  0.12139718622E+04  0.00000000000E+00 0. -1.
         21   -1    0    0  501  502 -0.00000000000E+00 -0.00000000000E+00 -0.65475373442E+02  0.65475373442E+02  0.00000000000E+00 0. -1.
         25    1    1    2    0    0 -0.57315435391E+02  0.60800355418E+02  0.22066443321E+03  0.26701972668E+03  0.12500000000E+03 0.  0.
         25    1    1    2    0    0  0.25989738075E+02 -0.14291918968E+03  0.76699954748E+03  0.79057869128E+03  0.12500000000E+03 0.  0.
         25    1    1    2    0    0  0.31325697316E+02  0.82118834261E+02  0.16083250804E+03  0.22184881765E+03  0.12500000000E+03 0.  0.
</event>
<event>
 5    0  0.5668330E-005  0.2749926E+03  0.7546771E-02  0.1098456E+00
         21   -1    0    0  502  501  0.00000000000E+00  0.00000000000E+00  0.37392221206E+03  0.37392221206E+03  0.00000000000E+00 0. -1.
         21   -1    0    0  501  502 -0.00000000000E+00 -0.00000000000E+00 -0.20223710540E+03  0.20223710540E+03  0.00000000000E+00 0. -1.
         25    1    1    2    0    0  0.28147210970E+02  0.14727889890E+03 -0.12301667477E+02  0.19560079389E+03  0.12500000000E+03 0.  0.
         25    1    1    2    0    0  0.60709590881E+02 -0.10461127764E+03  0.96548298066E+02  0.19893654188E+03  0.12500000000E+03 0.  0.
         25    1    1    2    0    0 -0.88856801851E+02 -0.42667621264E+02  0.87438476070E+02  0.18162198170E+03  0.12500000000E+03 0.  0.
</event>
<event>
 5    0  0.5668330E-005  0.2513501E+03  0.7546771E-02  0.1112455E+00
         21   -1    0    0  502  501  0.00000000000E+00  0.00000000000E+00  0.68126317213E+03  0.68126317213E+03  0.00000000000E+00 0. -1.
         21   -1    0    0  501  502 -0.00000000000E+00 -0.00000000000E+00 -0.92734924396E+02  0.92734924396E+02  0.00000000000E+00 0. -1.
         25    1    1    2    0    0  0.43930801952E+02 -0.84264433163E+02  0.22560552833E+03  0.27486954082E+03  0.12500000000E+03 0.  0.
         25    1    1    2    0    0  0.26464336102E+02  0.12851818148E+03  0.13406660399E+03  0.22542435175E+03  0.12500000000E+03 0.  0.
         25    1    1    2    0    0 -0.70395138053E+02 -0.44253748319E+02  0.22885611542E+03  0.27370420397E+03  0.12500000000E+03 0.  0.
</event>
<event>
 5    0  0.5668330E-005  0.3141197E+03  0.7546771E-02  0.1078388E+00
         21   -1    0    0  502  501  0.00000000000E+00  0.00000000000E+00  0.65767862096E+03  0.65767862096E+03  0.00000000000E+00 0. -1.
         21   -1    0    0  501  502 -0.00000000000E+00 -0.00000000000E+00 -0.15002947582E+03  0.15002947582E+03  0.00000000000E+00 0. -1.
         25    1    1    2    0    0  0.14005348495E+03  0.40236818650E+02  0.30504906277E+02  0.19439529194E+03  0.12500000000E+03 0.  0.
         25    1    1    2    0    0 -0.68623151364E+02 -0.51868760818E+02  0.43818211659E+03  0.46371119519E+03  0.12500000000E+03 0.  0.
         25    1    1    2    0    0 -0.71430333585E+02  0.11631942168E+02  0.38962122275E+02  0.14960160964E+03  0.12500000000E+03 0.  0.
</event>
<event>
 5    0  0.5668330E-005  0.2291222E+03  0.7546771E-02  0.1127259E+00
         21   -1    0    0  502  501  0.00000000000E+00  0.00000000000E+00  0.77600478075E+03  0.77600478075E+03  0.00000000000E+00 0. -1.
         21   -1    0    0  501  502 -0.00000000000E+00 -0.00000000000E+00 -0.67650310018E+02  0.67650310018E+02  0.00000000000E+00 0. -1.
         25    1    1    2    0    0  0.88532355723E+01  0.32644337626E+02  0.15610452404E+03  0.20282419724E+03  0.12500000000E+03 0.  0.
         25    1    1    2    0    0 -0.10270780066E+03  0.55826110952E+01  0.31491743162E+03  0.35408762560E+03  0.12500000000E+03 0.  0.
         25    1    1    2    0    0  0.93854565085E+02 -0.38226948721E+02  0.23733251507E+03  0.28674326793E+03  0.12500000000E+03 0.  0.
</event>
<event>
 5    0  0.5668330E-005  0.2299368E+03  0.7546771E-02  0.1126684E+00
         21   -1    0    0  502  501  0.00000000000E+00  0.00000000000E+00  0.88357711673E+03  0.88357711673E+03  0.00000000000E+00 0.  1.
         21   -1    0    0  501  502 -0.00000000000E+00 -0.00000000000E+00 -0.59837351319E+02  0.59837351319E+02  0.00000000000E+00 0.  1.
         25    1    1    2    0    0  0.68473796427E+02  0.32510205930E+02  0.16618618987E+03  0.22133328713E+03  0.12500000000E+03 0.  0.
         25    1    1    2    0    0 -0.10723587757E+03 -0.14553561105E+02  0.33691339083E+03  0.37529584663E+03  0.12500000000E+03 0.  0.
         25    1    1    2    0    0  0.38762081141E+02 -0.17956644825E+02  0.32064018471E+03  0.34678533429E+03  0.12500000000E+03 0.  0.
</event>
<event>
 5    0  0.5668330E-005  0.3709012E+03  0.7546771E-02  0.1054349E+00
         21   -1    0    0  502  501  0.00000000000E+00  0.00000000000E+00  0.65167282342E+03  0.65167282342E+03  0.00000000000E+00 0.  1.
         21   -1    0    0  501  502 -0.00000000000E+00 -0.00000000000E+00 -0.21109931248E+03  0.21109931248E+03  0.00000000000E+00 0.  1.
         25    1    1    2    0    0  0.18644011353E+03  0.11478968192E+03  0.73240876196E+02  0.26253726013E+03  0.12500000000E+03 0.  0.
         25    1    1    2    0    0 -0.21780058394E+03 -0.16387789017E+03  0.13234612248E+03  0.32777058042E+03  0.12500000000E+03 0.  0.
         25    1    1    2    0    0  0.31360470416E+02  0.49088208250E+02  0.23498651226E+03  0.27246429535E+03  0.12500000000E+03 0.  0.
</event>
<event>
 5    0  0.5668330E-005  0.3643307E+03  0.7546771E-02  0.1056882E+00
         21   -1    0    0  502  501  0.00000000000E+00  0.00000000000E+00  0.41750661345E+02  0.41750661345E+02  0.00000000000E+00 0. -1.
         21   -1    0    0  501  502 -0.00000000000E+00 -0.00000000000E+00 -0.31792754616E+04  0.31792754616E+04  0.00000000000E+00 0. -1.
         25    1    1    2    0    0  0.16423334223E+03 -0.12159252536E+03 -0.68543648164E+03  0.72608918411E+03  0.12500000000E+03 0.  0.
         25    1    1    2    0    0  0.81984437241E+02  0.10518954880E+03 -0.89625453373E+03  0.91470403867E+03  0.12500000000E+03 0.  0.
         25    1    1    2    0    0 -0.24621777947E+03  0.16402976559E+02 -0.15558337849E+04  0.15802329002E+04  0.12500000000E+03 0.  0.
</event>
<event>
 5    0  0.5668330E-005  0.4483815E+03  0.7546771E-02  0.1028206E+00
         21   -1    0    0  502  501  0.00000000000E+00  0.00000000000E+00  0.20859790069E+03  0.20859790069E+03  0.00000000000E+00 0. -1.
         21   -1    0    0  501  502 -0.00000000000E+00 -0.00000000000E+00 -0.96379661521E+03  0.96379661521E+03  0.00000000000E+00 0. -1.
         25    1    1    2    0    0 -0.99677082931E+02 -0.27606292260E+03 -0.57485521920E+03  0.65744184620E+03  0.12500000000E+03 0.  0.
         25    1    1    2    0    0  0.16906169778E+03  0.19477579088E+03 -0.23297724991E+02  0.28755390861E+03  0.12500000000E+03 0.  0.
         25    1    1    2    0    0 -0.69384614853E+02  0.81287131721E+02 -0.15704577033E+03  0.22739876108E+03  0.12500000000E+03 0.  0.
</event>
<event>
 5    0  0.5668330E-005  0.3759611E+03  0.7546771E-02  0.1052437E+00
         21   -1    0    0  502  501  0.00000000000E+00  0.00000000000E+00  0.14645165468E+03  0.14645165468E+03  0.00000000000E+00 0.  1.
         21   -1    0    0  501  502 -0.00000000000E+00 -0.00000000000E+00 -0.96514271171E+03  0.96514271171E+03  0.00000000000E+00 0.  1.
         25    1    1    2    0    0 -0.33328490073E+02  0.15742948023E+03  0.12516761478E+02  0.20414822755E+03  0.12500000000E+03 0.  0.
         25    1    1    2    0    0  0.79313401781E+02  0.56062315265E+01 -0.42221476174E+03  0.44745094767E+03  0.12500000000E+03 0.  0.
         25    1    1    2    0    0 -0.45984911708E+02 -0.16303571175E+03 -0.40899305676E+03  0.45999519116E+03  0.12500000000E+03 0.  0.
</event>
<event>
 5    0  0.5668330E-005  0.4990458E+03  0.7546771E-02  0.1014028E+00
         21   -1    0    0  502  501  0.00000000000E+00  0.00000000000E+00  0.15632376717E+03  0.15632376717E+03  0.00000000000E+00 0. -1.
         21   -1    0    0  501  502 -0.00000000000E+00 -0.00000000000E+00 -0.15931471241E+04  0.15931471241E+04  0.00000000000E+00 0. -1.
         25    1    1    2    0    0 -0.12644786312E+03 -0.37254647535E+03 -0.38859750834E+03  0.56693294301E+03  0.12500000000E+03 0.  0.
         25    1    1    2    0    0  0.37154591161E+02  0.18535067572E+03 -0.20624782688E+03  0.30642862583E+03  0.12500000000E+03 0.  0.
         25    1    1    2    0    0  0.89293271960E+02  0.18719579963E+03 -0.84197802170E+03  0.87610932243E+03  0.12500000000E+03 0.  0.
</event>
<event>
 5    0  0.6162637E-005  0.4384212E+03  0.7546771E-02  0.1031232E+00
         21   -1    0    0  502  501  0.00000000000E+00  0.00000000000E+00  0.49647441746E+03  0.49647441746E+03  0.00000000000E+00 0.  1.
         21   -1    0    0  501  502 -0.00000000000E+00 -0.00000000000E+00 -0.38715618948E+03  0.38715618948E+03  0.00000000000E+00 0.  1.
         25    1    1    2    0    0  0.32179308718E+03 -0.11741093654E+03  0.95379324197E+02  0.37690626747E+03  0.12500000000E+03 0.  0.
         25    1    1    2    0    0 -0.17518379289E+03  0.12055056703E+03  0.13297656749E+03  0.28023127592E+03  0.12500000000E+03 0.  0.
         25    1    1    2    0    0 -0.14660929429E+03 -0.31396304878E+01 -0.11903766371E+03  0.22649306354E+03  0.12500000000E+03 0.  0.
</event>
<event>
 5    0  0.5668330E-005  0.2432245E+03  0.7546771E-02  0.1117663E+00
         21   -1    0    0  502  501  0.00000000000E+00  0.00000000000E+00  0.23682767877E+03  0.23682767877E+03  0.00000000000E+00 0. -1.
         21   -1    0    0  501  502 -0.00000000000E+00 -0.00000000000E+00 -0.24979416553E+03  0.24979416553E+03  0.00000000000E+00 0. -1.
         25    1    1    2    0    0 -0.42497537572E+02 -0.11514834637E+03  0.68205888774E+00  0.17518746409E+03  0.12500000000E+03 0.  0.
         25    1    1    2    0    0  0.51720662276E+01  0.12064358068E+03 -0.39734113778E+02  0.17828467019E+03  0.12500000000E+03 0.  0.
         25    1    1    2    0    0  0.37325471345E+02 -0.54952343143E+01  0.26085568138E+02  0.13314971001E+03  0.12500000000E+03 0.  0.
</event>
<event>
 5    0  0.5668330E-005  0.2848054E+03  0.7546771E-02  0.1093093E+00
         21   -1    0    0  502  501  0.00000000000E+00  0.00000000000E+00  0.10492513727E+04  0.10492513727E+04  0.00000000000E+00 0. -1.
         21   -1    0    0  501  502 -0.00000000000E+00 -0.00000000000E+00 -0.77306639720E+02  0.77306639720E+02  0.00000000000E+00 0. -1.
         25    1    1    2    0    0  0.13503538794E+03 -0.23032232546E+02  0.24219480633E+03  0.30503829915E+03  0.12500000000E+03 0.  0.
         25    1    1    2    0    0 -0.46528971200E+02 -0.76386652150E+02  0.15429312329E+03  0.21778712928E+03  0.12500000000E+03 0.  0.
         25    1    1    2    0    0 -0.88506416738E+02  0.99418884696E+02  0.57545680334E+03  0.60373258397E+03  0.12500000000E+03 0.  0.
</event>
<event>
 5    0  0.5668330E-005  0.4679498E+03  0.7546771E-02  0.1022500E+00
         21   -1    0    0  502  501  0.00000000000E+00  0.00000000000E+00  0.16661325270E+03  0.16661325270E+03  0.00000000000E+00 0. -1.
         21   -1    0    0  501  502 -0.00000000000E+00 -0.00000000000E+00 -0.13142832697E+04  0.13142832697E+04  0.00000000000E+00 0. -1.
         25    1    1    2    0    0 -0.12152816337E+03 -0.18333904625E+03 -0.93480816834E+03  0.96843874973E+03  0.12500000000E+03 0.  0.
         25    1    1    2    0    0 -0.94418956441E+02  0.12139485967E+03 -0.14790021711E+03  0.24728753610E+03  0.12500000000E+03 0.  0.
         25    1    1    2    0    0  0.21594711981E+03  0.61944186580E+02 -0.64961631587E+02  0.26517023661E+03  0.12500000000E+03 0.  0.
</event>
<event>
 5    0  0.5668330E-005  0.2933878E+03  0.7546771E-02  0.1088593E+00
         21   -1    0    0  502  501  0.00000000000E+00  0.00000000000E+00  0.62259750464E+03  0.62259750464E+03  0.00000000000E+00 0. -1.
         21   -1    0    0  501  502 -0.00000000000E+00 -0.00000000000E+00 -0.13825370232E+03  0.13825370232E+03  0.00000000000E+00 0. -1.
         25    1    1    2    0    0 -0.11995197139E+03 -0.76782759536E+02  0.63487195326E+02  0.19984917206E+03  0.12500000000E+03 0.  0.
         25    1    1    2    0    0  0.70221674372E+02  0.73273047781E+02  0.53334299048E+02  0.16961595013E+03  0.12500000000E+03 0.  0.
         25    1    1    2    0    0  0.49730297020E+02  0.35097117553E+01  0.36752230795E+03  0.39138608478E+03  0.12500000000E+03 0.  0.
</event>
<event>
 5    0  0.5668330E-005  0.3310414E+03  0.7546771E-02  0.1070677E+00
         21   -1    0    0  502  501  0.00000000000E+00  0.00000000000E+00  0.58630534629E+02  0.58630534629E+02  0.00000000000E+00 0.  1.
         21   -1    0    0  501  502 -0.00000000000E+00 -0.00000000000E+00 -0.18691354876E+04  0.18691354876E+04  0.00000000000E+00 0.  1.
         25    1    1    2    0    0  0.82869989101E+02 -0.16024524639E+03 -0.49348599746E+03  0.54009203269E+03  0.12500000000E+03 0.  0.
         25    1    1    2    0    0 -0.14204589405E+03  0.70943308432E+01 -0.34064871064E+03  0.38973569198E+03  0.12500000000E+03 0.  0.
         25    1    1    2    0    0  0.59175904948E+02  0.15315091555E+03 -0.97637024484E+03  0.99793829752E+03  0.12500000000E+03 0.  0.
</event>
<event>
 5    0  0.5668330E-005  0.3131404E+03  0.7546771E-02  0.1078850E+00
         21   -1    0    0  502  501  0.00000000000E+00  0.00000000000E+00  0.16610475469E+03  0.16610475469E+03  0.00000000000E+00 0. -1.
         21   -1    0    0  501  502 -0.00000000000E+00 -0.00000000000E+00 -0.59033181255E+03  0.59033181255E+03  0.00000000000E+00 0. -1.
         25    1    1    2    0    0  0.44701732352E+02 -0.12234638818E+03 -0.40210169910E+03  0.44076939548E+03  0.12500000000E+03 0.  0.
         25    1    1    2    0    0  0.17597055156E+02  0.44386210621E+02  0.46443346284E+02  0.14163960060E+03  0.12500000000E+03 0.  0.
         25    1    1    2    0    0 -0.62298787508E+02  0.77960177562E+02 -0.68568705055E+02  0.17402757116E+03  0.12500000000E+03 0.  0.
</event>
<event>
 5    0  0.5668330E-005  0.3688936E+03  0.7546771E-02  0.1055117E+00
         21   -1    0    0  502  501  0.00000000000E+00  0.00000000000E+00  0.34139276582E+03  0.34139276582E+03  0.00000000000E+00 0. -1.
         21   -1    0    0  501  502 -0.00000000000E+00 -0.00000000000E+00 -0.39860968960E+03  0.39860968960E+03  0.00000000000E+00 0. -1.
         25    1    1    2    0    0  0.17946982869E+03 -0.43552759012E+02 -0.10441688253E+03  0.24624002027E+03  0.12500000000E+03 0.  0.
         25    1    1    2    0    0 -0.37732356198E+02 -0.16338626697E+03  0.42781408309E+02  0.21348079969E+03  0.12500000000E+03 0.  0.
         25    1    1    2    0    0 -0.14173747249E+03  0.20693902598E+03  0.44185504410E+01  0.28028163545E+03  0.12500000000E+03 0.  0.
</event>
<event>
 5    0  0.5668330E-005  0.2955672E+03  0.7546771E-02  0.1087478E+00
         21   -1    0    0  502  501  0.00000000000E+00  0.00000000000E+00  0.64757696501E+02  0.64757696501E+02  0.00000000000E+00 0.  1.
         21   -1    0    0  501  502 -0.00000000000E+00 -0.00000000000E+00 -0.13490279292E+04  0.13490279292E+04  0.00000000000E+00 0.  1.
         25    1    1    2    0    0  0.14718284192E+03  0.74015672599E+02 -0.61935813376E+03  0.65297060163E+03  0.12500000000E+03 0.  0.
         25    1    1    2    0    0 -0.17360334621E+03 -0.10286572713E+03 -0.45968136742E+03  0.51735040271E+03  0.12500000000E+03 0.  0.
         25    1    1    2    0    0  0.26420504288E+02  0.28850054535E+02 -0.20523073156E+03  0.24346462139E+03  0.12500000000E+03 0.  0.
</event>
<event>
 5    0  0.5668330E-005  0.3135439E+03  0.7546771E-02  0.1078660E+00
         21   -1    0    0  502  501  0.00000000000E+00  0.00000000000E+00  0.19519950400E+03  0.19519950400E+03  0.00000000000E+00 0.  1.
         21   -1    0    0  501  502 -0.00000000000E+00 -0.00000000000E+00 -0.50363731563E+03  0.50363731563E+03  0.00000000000E+00 0.  1.
         25    1    1    2    0    0  0.15241475421E+03  0.17283408520E+03 -0.61277200762E+02  0.26922439273E+03  0.12500000000E+03 0.  0.
         25    1    1    2    0    0 -0.72523056549E+02 -0.88501237991E+02 -0.17718704684E+03  0.24517812387E+03  0.12500000000E+03 0.  0.
         25    1    1    2    0    0 -0.79891697658E+02 -0.84332847206E+02 -0.69973564033E+02  0.18443430304E+03  0.12500000000E+03 0.  0.
</event>
<event>
 5    0  0.5668330E-005  0.3309430E+03  0.7546771E-02  0.1070720E+00
         21   -1    0    0  502  501  0.00000000000E+00  0.00000000000E+00  0.54682346321E+03  0.54682346321E+03  0.00000000000E+00 0.  1.
         21   -1    0    0  501  502 -0.00000000000E+00 -0.00000000000E+00 -0.20028998346E+03  0.20028998346E+03  0.00000000000E+00 0.  1.
         25    1    1    2    0    0  0.42339810306E+02  0.61540173977E+02  0.39062566722E+03  0.41688519336E+03  0.12500000000E+03 0.  0.
         25    1    1    2    0    0  0.55236168677E+02 -0.90641674982E+02 -0.40729045830E+02  0.16896982792E+03  0.12500000000E+03 0.  0.
         25    1    1    2    0    0 -0.97575978982E+02  0.29101501005E+02 -0.33631416448E+01  0.16125842538E+03  0.12500000000E+03 0.  0.
</event>
<event>
 5    0  0.5668330E-005  0.4723694E+03  0.7546771E-02  0.1021254E+00
         21   -1    0    0  502  501  0.00000000000E+00  0.00000000000E+00  0.28168702235E+03  0.28168702235E+03  0.00000000000E+00 0. -1.
         21   -1    0    0  501  502 -0.00000000000E+00 -0.00000000000E+00 -0.79213025175E+03  0.79213025175E+03  0.00000000000E+00 0. -1.
         25    1    1    2    0    0  0.10759982755E+03  0.26489874575E+03 -0.48295632479E+02  0.31576341857E+03  0.12500000000E+03 0.  0.
         25    1    1    2    0    0 -0.92058485224E+02  0.54416309691E+02  0.20515848035E+02  0.16577635381E+03  0.12500000000E+03 0.  0.
         25    1    1    2    0    0 -0.15541342330E+02 -0.31931505544E+03 -0.48266344495E+03  0.59227750172E+03  0.12500000000E+03 0.  0.
</event>
<event>
 5    0  0.5668330E-005  0.5658594E+03  0.7546771E-02  0.9978883E-01
         21   -1    0    0  502  501  0.00000000000E+00  0.00000000000E+00  0.56851380620E+03  0.56851380620E+03  0.00000000000E+00 0. -1.
         21   -1    0    0  501  502 -0.00000000000E+00 -0.00000000000E+00 -0.56321743199E+03  0.56321743199E+03  0.00000000000E+00 0. -1.
         25    1    1    2    0    0 -0.28282138921E+03 -0.13842794166E+03  0.11448495042E+02  0.33897831975E+03  0.12500000000E+03 0.  0.
         25    1    1    2    0    0  0.40936962276E+03  0.32293750202E+03 -0.13550070068E+02  0.53635876301E+03  0.12500000000E+03 0.  0.
         25    1    1    2    0    0 -0.12654823356E+03 -0.18450956037E+03  0.73979492424E+01  0.25639415542E+03  0.12500000000E+03 0.  0.
</event>
<event>
 5    0  0.5668330E-005  0.2997938E+03  0.7546771E-02  0.1085344E+00
         21   -1    0    0  502  501  0.00000000000E+00  0.00000000000E+00  0.81184973078E+02  0.81184973078E+02  0.00000000000E+00 0.  1.
         21   -1    0    0  501  502 -0.00000000000E+00 -0.00000000000E+00 -0.11070563316E+04  0.11070563316E+04  0.00000000000E+00 0.  1.
         25    1    1    2    0    0 -0.19558522495E+02  0.49318592596E+02 -0.19049427890E+03  0.23394001298E+03  0.12500000000E+03 0.  0.
         25    1    1    2    0    0  0.15625630572E+02 -0.20860625525E+03 -0.57446894477E+03  0.62401946970E+03  0.12500000000E+03 0.  0.
         25    1    1    2    0    0  0.39328919230E+01  0.15928766265E+03 -0.26090813483E+03  0.33028182198E+03  0.12500000000E+03 0.  0.
</event>
<event>
 5    0  0.5668330E-005  0.2331247E+03  0.7546771E-02  0.1124460E+00
         21   -1    0    0  502  501  0.00000000000E+00  0.00000000000E+00  0.30604217853E+02  0.30604217853E+02  0.00000000000E+00 0.  1.
         21   -1    0    0  501  502 -0.00000000000E+00 -0.00000000000E+00 -0.17758046540E+04  0.17758046540E+04  0.00000000000E+00 0.  1.
         25    1    1    2    0    0  0.57636434518E+02 -0.29513140260E+02 -0.40418200378E+03  0.42799658435E+03  0.12500000000E+03 0.  0.
         25    1    1    2    0    0 -0.96787238622E+02 -0.49486166635E+02 -0.66898051427E+03  0.68918544581E+03  0.12500000000E+03 0.  0.
         25    1    1    2    0    0  0.39150804104E+02  0.78999306896E+02 -0.67203791813E+03  0.68922684172E+03  0.12500000000E+03 0.  0.
</event>
<event>
 5    0  0.5668330E-005  0.2592909E+03  0.7546771E-02  0.1107570E+00
         21   -1    0    0  502  501  0.00000000000E+00  0.00000000000E+00  0.25080485480E+03  0.25080485480E+03  0.00000000000E+00 0.  1.
         21   -1    0    0  501  502 -0.00000000000E+00 -0.00000000000E+00 -0.26806410003E+03  0.26806410003E+03  0.00000000000E+00 0.  1.
         25    1    1    2    0    0 -0.86467267109E+01  0.13247231009E+03 -0.12918283090E+02  0.18279923649E+03  0.12500000000E+03 0.  0.
         25    1    1    2    0    0  0.72999113018E+02 -0.74614688872E+02 -0.60885817584E+02  0.17386289161E+03  0.12500000000E+03 0.  0.
         25    1    1    2    0    0 -0.64352386307E+02 -0.57857621222E+02  0.56544855441E+02  0.16220682672E+03  0.12500000000E+03 0.  0.
</event>
<event>
 5    0  0.5668330E-005  0.2272249E+03  0.7546771E-02  0.1128608E+00
         21   -1    0    0  502  501  0.00000000000E+00  0.00000000000E+00  0.53651832573E+02  0.53651832573E+02  0.00000000000E+00 0.  1.
         21   -1    0    0  501  502 -0.00000000000E+00 -0.00000000000E+00 -0.96233755772E+03  0.96233755772E+03  0.00000000000E+00 0.  1.
         25    1    1    2    0    0  0.66177134546E+01 -0.28105294902E+02 -0.12468453702E+03  0.17889923283E+03  0.12500000000E+03 0.  0.
         25    1    1    2    0    0 -0.71108331401E+02 -0.47861104600E+01 -0.31414293067E+03  0.34552870002E+03  0.12500000000E+03 0.  0.
         25    1    1    2    0    0  0.64490617946E+02  0.32891405362E+02 -0.46985825745E+03  0.49156145744E+03  0.12500000000E+03 0.  0.
</event>
<event>
 5    0  0.5668330E-005  0.3478252E+03  0.7546771E-02  0.1063511E+00
         21   -1    0    0  502  501  0.00000000000E+00  0.00000000000E+00  0.81051814580E+02  0.81051814580E+02  0.00000000000E+00 0.  1.
         21   -1    0    0  501  502 -0.00000000000E+00 -0.00000000000E+00 -0.14926546649E+04  0.14926546649E+04  0.00000000000E+00 0.  1.
         25    1    1    2    0    0 -0.10217718247E+03  0.73934049761E+02 -0.79411405547E+02  0.19451887225E+03  0.12500000000E+03 0.  0.
         25    1    1    2    0    0 -0.58141671159E+02 -0.12754141454E+02 -0.40530441778E+03  0.42829871950E+03  0.12500000000E+03 0.  0.
         25    1    1    2    0    0  0.16031885363E+03 -0.61179908308E+02 -0.92688702701E+03  0.95088888775E+03  0.12500000000E+03 0.  0.
</event>
<event>
 5    0  0.5668330E-005  0.2283863E+03  0.7546771E-02  0.1127781E+00
         21   -1    0    0  502  501  0.00000000000E+00  0.00000000000E+00  0.24034025717E+03  0.24034025717E+03  0.00000000000E+00 0.  1.
         21   -1    0    0  501  502 -0.00000000000E+00 -0.00000000000E+00 -0.21702684749E+03  0.21702684749E+03  0.00000000000E+00 0.  1.
         25    1    1    2    0    0 -0.61455455883E+02  0.39183296024E+02 -0.43405143254E+02  0.15106657541E+03  0.12500000000E+03 0.  0.
         25    1    1    2    0    0  0.16299634861E+02 -0.85456227084E+02  0.64931073627E+02  0.16555811417E+03  0.12500000000E+03 0.  0.
         25    1    1    2    0    0  0.45155821022E+02  0.46272931060E+02  0.17874793000E+01  0.14074241508E+03  0.12500000000E+03 0.  0.
</event>
<event>
 5    0  0.5668330E-005  0.3142734E+03  0.7546771E-02  0.1078315E+00
         21   -1    0    0  502  501  0.00000000000E+00  0.00000000000E+00  0.36737016012E+03  0.36737016012E+03  0.00000000000E+00 0.  1.
         21   -1    0    0  501  502 -0.00000000000E+00 -0.00000000000E+00 -0.26885088920E+03  0.26885088920E+03  0.00000000000E+00 0.  1.
         25    1    1    2    0    0 -0.15262116248E+03  0.19127468324E+03  0.60639362576E+02  0.28139181932E+03  0.12500000000E+03 0.  0.
         25    1    1    2    0    0  0.87723818136E+02 -0.12370981670E+03  0.17860651951E+02  0.19734130309E+03  0.12500000000E+03 0.  0.
         25    1    1    2    0    0  0.64897344344E+02 -0.67564866543E+02  0.20019256396E+02  0.15748792690E+03  0.12500000000E+03 0.  0.
</event>
<event>
 5    0  0.5668330E-005  0.5839125E+03  0.7546771E-02  0.9939356E-01
         21   -1    0    0  502  501  0.00000000000E+00  0.00000000000E+00  0.43118024280E+03  0.43118024280E+03  0.00000000000E+00 0.  1.
         21   -1    0    0  501  502 -0.00000000000E+00 -0.00000000000E+00 -0.79074532142E+03  0.79074532142E+03  0.00000000000E+00 0.  1.
         25    1    1    2    0    0 -0.23299597769E+03  0.32159894627E+03 -0.52007673150E+03  0.66619652844E+03  0.12500000000E+03 0.  0.
         25    1    1    2    0    0  0.25266816658E+02 -0.48624378498E+02 -0.35944059026E+02  0.14113722963E+03  0.12500000000E+03 0.  0.
         25    1    1    2    0    0  0.20772916103E+03 -0.27297456777E+03  0.19645571191E+03  0.41459180616E+03  0.12500000000E+03 0.  0.
</event>
<event>
 5    0  0.5668330E-005  0.3089986E+03  0.7546771E-02  0.1080827E+00
         21   -1    0    0  502  501  0.00000000000E+00  0.00000000000E+00  0.37357459398E+02  0.37357459398E+02  0.00000000000E+00 0. -1.
         21   -1    0    0  501  502 -0.00000000000E+00 -0.00000000000E+00 -0.25558523764E+04  0.25558523764E+04  0.00000000000E+00 0. -1.
         25    1    1    2    0    0  0.54428473444E+02 -0.81322987339E+01 -0.17423072740E+03  0.22138188583E+03  0.12500000000E+03 0.  0.
         25    1    1    2    0    0 -0.11569295643E+03  0.67164327160E+02 -0.82572518816E+03  0.84577951818E+03  0.12500000000E+03 0.  0.
         25    1    1    2    0    0  0.61264482990E+02 -0.59032028426E+02 -0.15185390015E+04  0.15260484318E+04  0.12500000000E+03 0.  0.
</event>
<event>
 5    0  0.5673023E-005  0.2947295E+03  0.7546771E-02  0.1087905E+00
         21   -1    0    0  502  501  0.00000000000E+00  0.00000000000E+00  0.39590744311E+03  0.39590744311E+03  0.00000000000E+00 0. -1.
         21   -1    0    0  501  502 -0.00000000000E+00 -0.00000000000E+00 -0.21940852883E+03  0.21940852883E+03  0.00000000000E+00 0. -1.
         25    1    1    2    0    0  0.94800594922E+02 -0.68023569292E+02  0.44605476936E+02  0.17671730914E+03  0.12500000000E+03 0.  0.
         25    1    1    2    0    0  0.59496841657E+02 -0.81100041030E+02  0.69267658298E+01  0.16059287315E+03  0.12500000000E+03 0.  0.
         25    1    1    2    0    0 -0.15429743658E+03  0.14912361032E+03  0.12496667151E+03  0.27800578965E+03  0.12500000000E+03 0.  0.
</event>
<event>
 5    0  0.5668330E-005  0.2985924E+03  0.7546771E-02  0.1085946E+00
         21   -1    0    0  502  501  0.00000000000E+00  0.00000000000E+00  0.82944674499E+03  0.82944674499E+03  0.00000000000E+00 0.  1.
         21   -1    0    0  501  502 -0.00000000000E+00 -0.00000000000E+00 -0.10749025818E+03  0.10749025818E+03  0.00000000000E+00 0.  1.
         25    1    1    2    0    0 -0.31533993432E+02 -0.30500019378E+02  0.58340776906E+03  0.59825936593E+03  0.12500000000E+03 0.  0.
         25    1    1    2    0    0 -0.20949906868E+02 -0.64507455440E+02  0.48718175986E+02  0.15032821118E+03  0.12500000000E+03 0.  0.
         25    1    1    2    0    0  0.52483900301E+02  0.95007474817E+02  0.89830541775E+02  0.18834942606E+03  0.12500000000E+03 0.  0.
</event>
<event>
 5    0  0.5668330E-005  0.2934508E+03  0.7546771E-02  0.1088561E+00
         21   -1    0    0  502  501  0.00000000000E+00  0.00000000000E+00  0.11014593949E+04  0.11014593949E+04  0.00000000000E+00 0. -1.
         21   -1    0    0  501  502 -0.00000000000E+00 -0.00000000000E+00 -0.78181181496E+02  0.78181181496E+02  0.00000000000E+00 0. -1.
         25    1    1    2    0    0  0.51898245936E+02  0.17100612842E+03  0.19472934848E+03  0.29237141285E+03  0.12500000000E+03 0.  0.
         25    1    1    2    0    0 -0.15219527416E+02 -0.94419386202E+02  0.52659496996E+03  0.54961251522E+03  0.12500000000E+03 0.  0.
         25    1    1    2    0    0 -0.36678718519E+02 -0.76586742220E+02  0.30195389497E+03  0.33765664833E+03  0.12500000000E+03 0.  0.
</event>
<event>
 5    0  0.5756116E-005  0.3433373E+03  0.7546771E-02  0.1065383E+00
         21   -1    0    0  502  501  0.00000000000E+00  0.00000000000E+00  0.41180577688E+03  0.41180577688E+03  0.00000000000E+00 0.  1.
         21   -1    0    0  501  502 -0.00000000000E+00 -0.00000000000E+00 -0.28625261476E+03  0.28625261476E+03  0.00000000000E+00 0.  1.
         25    1    1    2    0    0 -0.16495665089E+02  0.76980072278E+01 -0.13810905130E+03  0.18716430304E+03  0.12500000000E+03 0.  0.
         25    1    1    2    0    0  0.12045387669E+03 -0.12120426565E+02  0.29760843968E+03  0.34474892969E+03  0.12500000000E+03 0.  0.
         25    1    1    2    0    0 -0.10395821160E+03  0.44224193373E+01 -0.33946226265E+02  0.16614515891E+03  0.12500000000E+03 0.  0.
</event>
<event>
 5    0  0.5945710E-005  0.2848038E+03  0.7546771E-02  0.1093094E+00
         21   -1    0    0  502  501  0.00000000000E+00  0.00000000000E+00  0.89542377849E+03  0.89542377849E+03  0.00000000000E+00 0. -1.
         21   -1    0    0  501  502 -0.00000000000E+00 -0.00000000000E+00 -0.90586356879E+02  0.90586356879E+02  0.00000000000E+00 0. -1.
         25    1    1    2    0    0 -0.83582891866E+02 -0.31006135631E+02  0.39983140957E+03  0.42829620164E+03  0.12500000000E+03 0.  0.
         25    1    1    2    0    0  0.44521123660E+02  0.12002687475E+03  0.79614739195E+02  0.19583689084E+03  0.12500000000E+03 0.  0.
         25    1    1    2    0    0  0.39061768206E+02 -0.89020739122E+02  0.32539127285E+03  0.36187704289E+03  0.12500000000E+03 0.  0.
</event>
<event>
 5    0  0.5668330E-005  0.2225701E+03  0.7546771E-02  0.1131981E+00
         21   -1    0    0  502  501  0.00000000000E+00  0.00000000000E+00  0.17635882867E+03  0.17635882867E+03  0.00000000000E+00 0.  1.
         21   -1    0    0  501  502 -0.00000000000E+00 -0.00000000000E+00 -0.28089020361E+03  0.28089020361E+03  0.00000000000E+00 0.  1.
         25    1    1    2    0    0  0.60604532133E+02 -0.59445870465E+02 -0.41821863136E+02  0.15678261723E+03  0.12500000000E+03 0.  0.
         25    1    1    2    0    0 -0.92031273504E+01  0.46056381481E+02  0.28922467741E+02  0.13662868282E+03  0.12500000000E+03 0.  0.
         25    1    1    2    0    0 -0.51401404782E+02  0.13389488984E+02 -0.91631979545E+02  0.16383773224E+03  0.12500000000E+03 0.  0.
</event>
<event>
 5    0  0.5668330E-005  0.3149679E+03  0.7546771E-02  0.1077989E+00
         21   -1    0    0  502  501  0.00000000000E+00  0.00000000000E+00  0.13621191055E+04  0.13621191055E+04  0.00000000000E+00 0. -1.
         21   -1    0    0  501  502 -0.00000000000E+00 -0.00000000000E+00 -0.72831207880E+02  0.72831207880E+02  0.00000000000E+00 0. -1.
         25    1    1    2    0    0  0.39547416423E+02 -0.86458708527E+02  0.67230993315E+03  0.69040911975E+03  0.12500000000E+03 0.  0.
         25    1    1    2    0    0 -0.12309130382E+03 -0.58070604243E+02  0.16909085933E+03  0.25048030434E+03  0.12500000000E+03 0.  0.
         25    1    1    2    0    0  0.83543887395E+02  0.14452931277E+03  0.44788710513E+03  0.49406088928E+03  0.12500000000E+03 0.  0.
</event>
<event>
 5    0  0.5668330E-005  0.3388810E+03  0.7546771E-02  0.1067274E+00
         21   -1    0    0  502  501  0.00000000000E+00  0.00000000000E+00  0.24599281179E+03  0.24599281179E+03  0.00000000000E+00 0.  1.
         21   -1    0    0  501  502 -0.00000000000E+00 -0.00000000000E+00 -0.46684437282E+03  0.46684437282E+03  0.00000000000E+00 0.  1.
         25    1    1    2    0    0 -0.15861488827E+03  0.76266080970E+02 -0.13577722273E+02  0.21629737037E+03  0.12500000000E+03 0.  0.
         25    1    1    2    0    0  0.22322542680E+03 -0.79758441144E+02 -0.29223670876E+02  0.26957378033E+03  0.12500000000E+03 0.  0.
         25    1    1    2    0    0 -0.64610538525E+02  0.34923601738E+01 -0.17805016788E+03  0.22696603391E+03  0.12500000000E+03 0.  0.
</event>
<event>
 5    0  0.5668330E-005  0.2904589E+03  0.7546771E-02  0.1090110E+00
         21   -1    0    0  502  501  0.00000000000E+00  0.00000000000E+00  0.12538296035E+03  0.12538296035E+03  0.00000000000E+00 0. -1.
         21   -1    0    0  501  502 -0.00000000000E+00 -0.00000000000E+00 -0.67286941209E+03  0.67286941209E+03  0.00000000000E+00 0. -1.
         25    1    1    2    0    0 -0.90042596227E+02  0.10576189182E+02 -0.14855468118E+03  0.21427323261E+03  0.12500000000E+03 0.  0.
         25    1    1    2    0    0  0.33868645704E+02  0.33299029190E+02 -0.41796238418E+03  0.43883193263E+03  0.12500000000E+03 0.  0.
         25    1    1    2    0    0  0.56173950524E+02 -0.43875218372E+02  0.19030613615E+02  0.14514720720E+03  0.12500000000E+03 0.  0.
</event>
<event>
 5    0  0.6877776E-005  0.5222101E+03  0.7546771E-02  0.1008139E+00
         21   -1    0    0  502  501  0.00000000000E+00  0.00000000000E+00  0.18383616985E+03  0.18383616985E+03  0.00000000000E+00 0.  1.
         21   -1    0    0  501  502 -0.00000000000E+00 -0.00000000000E+00 -0.14834045573E+04  0.14834045573E+04  0.00000000000E+00 0.  1.
         25    1    1    2    0    0 -0.74571438811E+02  0.33454487073E+03 -0.29607668241E+03  0.46985909790E+03  0.12500000000E+03 0.  0.
         25    1    1    2    0    0  0.66197054806E+02 -0.17448715338E+03 -0.96463792297E+03  0.99044391017E+03  0.12500000000E+03 0.  0.
         25    1    1    2    0    0  0.83743840053E+01 -0.16005771735E+03 -0.38853782072E+02  0.20693771907E+03  0.12500000000E+03 0.  0.
</event>
<event>
 5    0  0.5795437E-005  0.2604691E+03  0.7546771E-02  0.1106862E+00
         21   -1    0    0  502  501  0.00000000000E+00  0.00000000000E+00  0.24236929882E+03  0.24236929882E+03  0.00000000000E+00 0. -1.
         21   -1    0    0  501  502 -0.00000000000E+00 -0.00000000000E+00 -0.27992052873E+03  0.27992052873E+03  0.00000000000E+00 0. -1.
         25    1    1    2    0    0 -0.21352903327E+02  0.77071708550E+01 -0.64917924672E+02  0.14266984232E+03  0.12500000000E+03 0.  0.
         25    1    1    2    0    0 -0.10575589120E+03 -0.83766944437E+02  0.31070744599E+00  0.18391929220E+03  0.12500000000E+03 0.  0.
         25    1    1    2    0    0  0.12710879453E+03  0.76059773582E+02  0.27055987312E+02  0.19570069303E+03  0.12500000000E+03 0.  0.
</event>
<event>
 5    0  0.6184777E-005  0.2787487E+03  0.7546771E-02  0.1096374E+00
         21   -1    0    0  502  501  0.00000000000E+00  0.00000000000E+00  0.17621249599E+03  0.17621249599E+03  0.00000000000E+00 0.  1.
         21   -1    0    0  501  502 -0.00000000000E+00 -0.00000000000E+00 -0.44094971714E+03  0.44094971714E+03  0.00000000000E+00 0.  1.
         25    1    1    2    0    0 -0.59197365603E+02 -0.59620912246E+02  0.80319897752E+02  0.17069055992E+03  0.12500000000E+03 0.  0.
         25    1    1    2    0    0  0.38475829394E+02 -0.15779261934E+02 -0.12511813270E+03  0.18168357571E+03  0.12500000000E+03 0.  0.
         25    1    1    2    0    0  0.20721536210E+02  0.75400174180E+02 -0.21993898621E+03  0.26478807749E+03  0.12500000000E+03 0.  0.
</event>
<event>
 5    0  0.5668330E-005  0.3142214E+03  0.7546771E-02  0.1078340E+00
         21   -1    0    0  502  501  0.00000000000E+00  0.00000000000E+00  0.56949673571E+02  0.56949673571E+02  0.00000000000E+00 0. -1.
         21   -1    0    0  501  502 -0.00000000000E+00 -0.00000000000E+00 -0.17337247796E+04  0.17337247796E+04  0.00000000000E+00 0. -1.
         25    1    1    2    0    0 -0.84008109667E+02 -0.13130223006E+02 -0.90278128101E+03  0.91535173927E+03  0.12500000000E+03 0.  0.
         25    1    1    2    0    0  0.12153393256E+03 -0.57175919225E+02 -0.66889610566E+03  0.69360405324E+03  0.12500000000E+03 0.  0.
         25    1    1    2    0    0 -0.37525822890E+02  0.70306142231E+02 -0.10509771937E+03  0.18171866067E+03  0.12500000000E+03 0.  0.
</event>
<event>
 5    0  0.5668330E-005  0.4934896E+03  0.7546771E-02  0.1015492E+00
         21   -1    0    0  502  501  0.00000000000E+00  0.00000000000E+00  0.72260755549E+03  0.72260755549E+03  0.00000000000E+00 0. -1.
         21   -1    0    0  501  502 -0.00000000000E+00 -0.00000000000E+00 -0.33701837017E+03  0.33701837017E+03  0.00000000000E+00 0. -1.
         25    1    1    2    0    0  0.11830398734E+03  0.32928120914E+03  0.40737998490E+03  0.55136684722E+03  0.12500000000E+03 0.  0.
         25    1    1    2    0    0 -0.15290039527E+03 -0.24648363197E+03 -0.10561381045E+03  0.33303451572E+03  0.12500000000E+03 0.  0.
         25    1    1    2    0    0  0.34596407937E+02 -0.82797577165E+02  0.83823010869E+02  0.17522456271E+03  0.12500000000E+03 0.  0.
</event>
<event>
 5    0  0.5668330E-005  0.4426179E+03  0.7546771E-02  0.1029947E+00
         21   -1    0    0  502  501  0.00000000000E+00  0.00000000000E+00  0.39099408398E+03  0.39099408398E+03  0.00000000000E+00 0. -1.
         21   -1    0    0  501  502 -0.00000000000E+00 -0.00000000000E+00 -0.50105779698E+03  0.50105779698E+03  0.00000000000E+00 0. -1.
         25    1    1    2    0    0  0.19482423383E+03 -0.16639718519E+03  0.21288776885E+03  0.35579587892E+03  0.12500000000E+03 0.  0.
         25    1    1    2    0    0 -0.14496170453E+03  0.16849799545E+03 -0.30944998912E+03  0.40098599230E+03  0.12500000000E+03 0.  0.
         25    1    1    2    0    0 -0.49862529291E+02 -0.21008102614E+01 -0.13501492729E+02  0.13527000975E+03  0.12500000000E+03 0.  0.
</event>
<event>
 5    0  0.5668330E-005  0.4836743E+03  0.7546771E-02  0.1018130E+00
         21   -1    0    0  502  501  0.00000000000E+00  0.00000000000E+00  0.98830449299E+02  0.98830449299E+02  0.00000000000E+00 0. -1.
         21   -1    0    0  501  502 -0.00000000000E+00 -0.00000000000E+00 -0.23670922157E+04  0.23670922157E+04  0.00000000000E+00 0. -1.
         25    1    1    2    0    0 -0.46582532909E+01 -0.19086094297E+03 -0.10717334546E+04  0.10957587310E+04  0.12500000000E+03 0.  0.
         25    1    1    2    0    0  0.17664874297E+03 -0.16143325225E+02 -0.10892747673E+03  0.24280770278E+03  0.12500000000E+03 0.  0.
         25    1    1    2    0    0 -0.17199048968E+03  0.20700426820E+03 -0.10876008351E+04  0.11273562312E+04  0.12500000000E+03 0.  0.
</event>
<event>
 5    0  0.5668330E-005  0.2861294E+03  0.7546771E-02  0.1092388E+00
         21   -1    0    0  502  501  0.00000000000E+00  0.00000000000E+00  0.38469148225E+03  0.38469148225E+03  0.00000000000E+00 0. -1.
         21   -1    0    0  501  502 -0.00000000000E+00 -0.00000000000E+00 -0.21281996246E+03  0.21281996246E+03  0.00000000000E+00 0. -1.
         25    1    1    2    0    0 -0.13670941739E+02  0.63998576731E+02  0.21206397535E+03  0.25471325469E+03  0.12500000000E+03 0.  0.
         25    1    1    2    0    0  0.15010743026E+02 -0.10145974246E+03  0.65908584618E+02  0.17460911566E+03  0.12500000000E+03 0.  0.
         25    1    1    2    0    0 -0.13398012865E+01  0.37461165731E+02 -0.10610104019E+03  0.16818907436E+03  0.12500000000E+03 0.  0.
</event>
<event>
 5    0  0.5668330E-005  0.2137041E+03  0.7546771E-02  0.1138666E+00
         21   -1    0    0  502  501  0.00000000000E+00  0.00000000000E+00  0.11281427129E+04  0.11281427129E+04  0.00000000000E+00 0.  1.
         21   -1    0    0  501  502 -0.00000000000E+00 -0.00000000000E+00 -0.40481980953E+02  0.40481980953E+02  0.00000000000E+00 0.  1.
         25    1    1    2    0    0  0.64935290186E+02 -0.30563769348E+02  0.46010474805E+03  0.48215362187E+03  0.12500000000E+03 0.  0.
         25    1    1    2    0    0 -0.27514834080E+02  0.40706796871E+02  0.42135844100E+03  0.44224658869E+03  0.12500000000E+03 0.  0.
         25    1    1    2    0    0 -0.37420456106E+02 -0.10143027523E+02  0.20619754292E+03  0.24422448331E+03  0.12500000000E+03 0.  0.
</event>
<event>
 5    0  0.5668330E-005  0.3274241E+03  0.7546771E-02  0.1072282E+00
         21   -1    0    0  502  501  0.00000000000E+00  0.00000000000E+00  0.11649747519E+04  0.11649747519E+04  0.00000000000E+00 0.  1.
         21   -1    0    0  501  502 -0.00000000000E+00 -0.00000000000E+00 -0.92024756998E+02  0.92024756998E+02  0.00000000000E+00 0. -1.
         25    1    1    2    0    0 -0.15360705045E+03  0.11926813787E+03  0.70617529653E+03  0.74305354052E+03  0.12500000000E+03 0.  0.
         25    1    1    2    0    0  0.15310486986E+03 -0.18245439684E+02  0.21973555183E+03  0.29611266434E+03  0.12500000000E+03 0.  0.
         25    1    1    2    0    0  0.50218058133E+00 -0.10102269818E+03  0.14703914657E+03  0.21783330406E+03  0.12500000000E+03 0.  0.
</event>
<event>
 5    0  0.5668330E-005  0.5213716E+03  0.7546771E-02  0.1008346E+00
         21   -1    0    0  502  501  0.00000000000E+00  0.00000000000E+00  0.57489633084E+03  0.57489633084E+03  0.00000000000E+00 0.  1.
         21   -1    0    0  501  502 -0.00000000000E+00 -0.00000000000E+00 -0.47283011043E+03  0.47283011043E+03  0.00000000000E+00 0.  1.
         25    1    1    2    0    0 -0.11805978808E+03 -0.12073149931E+03 -0.30117418844E+03  0.36721260908E+03  0.12500000000E+03 0.  0.
         25    1    1    2    0    0 -0.98302734274E+02 -0.11901757998E+03  0.11197524480E+03  0.22801769089E+03  0.12500000000E+03 0.  0.
         25    1    1    2    0    0  0.21636252236E+03  0.23974907929E+03  0.29126516404E+03  0.45249614130E+03  0.12500000000E+03 0.  0.
</event>
<event>
 5    0  0.5668330E-005  0.3173647E+03  0.7546771E-02  0.1076869E+00
         21   -1    0    0  502  501  0.00000000000E+00  0.00000000000E+00  0.48954394703E+03  0.48954394703E+03  0.00000000000E+00 0. -1.
         21   -1    0    0  501  502 -0.00000000000E+00 -0.00000000000E+00 -0.20574325372E+03  0.20574325372E+03  0.00000000000E+00 0. -1.
         25    1    1    2    0    0  0.16783196966E+03 -0.61654149267E+01  0.31995514086E+03  0.38236353715E+03  0.12500000000E+03 0.  0.
         25    1    1    2    0    0 -0.82929886460E+02 -0.29215381913E+02  0.30410534000E+01  0.15285664073E+03  0.12500000000E+03 0.  0.
         25    1    1    2    0    0 -0.84902083200E+02  0.35380796839E+02 -0.39195500942E+02  0.16006702287E+03  0.12500000000E+03 0.  0.
</event>
<event>
 5    0  0.5668330E-005  0.4169801E+03  0.7546771E-02  0.1038054E+00
         21   -1    0    0  502  501  0.00000000000E+00  0.00000000000E+00  0.30680382283E+03  0.30680382283E+03  0.00000000000E+00 0. -1.
         21   -1    0    0  501  502 -0.00000000000E+00 -0.00000000000E+00 -0.56672165968E+03  0.56672165968E+03  0.00000000000E+00 0. -1.
         25    1    1    2    0    0  0.67626800791E+02  0.90632817207E+01  0.54776140970E+02  0.15258097155E+03  0.12500000000E+03 0.  0.
         25    1    1    2    0    0  0.80050678658E+02  0.66803518688E+02 -0.44623233406E+03  0.47499380756E+03  0.12500000000E+03 0.  0.
         25    1    1    2    0    0 -0.14767747945E+03 -0.75866800408E+02  0.13153835624E+03  0.24595070340E+03  0.12500000000E+03 0.  0.
</event>
<event>
 5    0  0.5668330E-005  0.2991742E+03  0.7546771E-02  0.1085654E+00
         21   -1    0    0  502  501  0.00000000000E+00  0.00000000000E+00  0.34605426800E+03  0.34605426800E+03  0.00000000000E+00 0. -1.
         21   -1    0    0  501  502 -0.00000000000E+00 -0.00000000000E+00 -0.25864492907E+03  0.25864492907E+03  0.00000000000E+00 0. -1.
         25    1    1    2    0    0 -0.85016657605E+01 -0.26514539023E+02 -0.70195460529E+02  0.14604006909E+03  0.12500000000E+03 0.  0.
         25    1    1    2    0    0  0.12857995268E+03  0.13609152885E+03  0.94020737878E+02  0.24396435725E+03  0.12500000000E+03 0.  0.
         25    1    1    2    0    0 -0.12007828692E+03 -0.10957698983E+03  0.63584061582E+02  0.21469477073E+03  0.12500000000E+03 0.  0.
</event>
<event>
 5    0  0.5668330E-005  0.2290049E+03  0.7546771E-02  0.1127342E+00
         21   -1    0    0  502  501  0.00000000000E+00  0.00000000000E+00  0.59583983844E+02  0.59583983844E+02  0.00000000000E+00 0. -1.
         21   -1    0    0  501  502 -0.00000000000E+00 -0.00000000000E+00 -0.88015703794E+03  0.88015703794E+03  0.00000000000E+00 0. -1.
         25    1    1    2    0    0 -0.10921340632E+03  0.38094288689E+02 -0.33563814487E+03  0.37637309580E+03  0.12500000000E+03 0.  0.
         25    1    1    2    0    0  0.70783875689E+02 -0.35477235577E+02 -0.32243896114E+03  0.35476876267E+03  0.12500000000E+03 0.  0.
         25    1    1    2    0    0  0.38429530636E+02 -0.26170531124E+01 -0.16249594808E+03  0.20859916331E+03  0.12500000000E+03 0.  0.
</event>
<event>
 5    0  0.5668330E-005  0.3448049E+03  0.7546771E-02  0.1064768E+00
         21   -1    0    0  502  501  0.00000000000E+00  0.00000000000E+00  0.60665233692E+03  0.60665233692E+03  0.00000000000E+00 0.  1.
         21   -1    0    0  501  502 -0.00000000000E+00 -0.00000000000E+00 -0.19597789039E+03  0.19597789039E+03  0.00000000000E+00 0.  1.
         25    1    1    2    0    0  0.31436870046E+02  0.28842243557E+02  0.29011396390E+03  0.31876521746E+03  0.12500000000E+03 0.  0.
         25    1    1    2    0    0 -0.52993061325E+02 -0.19601980136E+03 -0.65153333059E+01  0.23853611182E+03  0.12500000000E+03 0.  0.
         25    1    1    2    0    0  0.21556191279E+02  0.16717755780E+03  0.12707581594E+03  0.24532889804E+03  0.12500000000E+03 0.  0.
</event>
<event>
 5    0  0.5668330E-005  0.2214100E+03  0.7546771E-02  0.1132836E+00
         21   -1    0    0  502  501  0.00000000000E+00  0.00000000000E+00  0.56898713590E+03  0.56898713590E+03  0.00000000000E+00 0.  1.
         21   -1    0    0  501  502 -0.00000000000E+00 -0.00000000000E+00 -0.86157263932E+02  0.86157263932E+02  0.00000000000E+00 0.  1.
         25    1    1    2    0    0 -0.60492380511E+02  0.18557635818E+02  0.13383354046E+03  0.19375275611E+03  0.12500000000E+03 0.  0.
         25    1    1    2    0    0  0.21302953433E+01 -0.66231652034E+01  0.27993872801E+03  0.30665794612E+03  0.12500000000E+03 0.  0.
         25    1    1    2    0    0  0.58362085167E+02 -0.11934470615E+02  0.69057603490E+02  0.15473369760E+03  0.12500000000E+03 0.  0.
</event>
<event>
 5    0  0.5668330E-005  0.4722089E+03  0.7546771E-02  0.1021299E+00
         21   -1    0    0  502  501  0.00000000000E+00  0.00000000000E+00  0.20805716641E+04  0.20805716641E+04  0.00000000000E+00 0.  1.
         21   -1    0    0  501  502 -0.00000000000E+00 -0.00000000000E+00 -0.10717306063E+03  0.10717306063E+03  0.00000000000E+00 0.  1.
         25    1    1    2    0    0 -0.21346702959E+03  0.18623790739E+03  0.12080992405E+04  0.12471493518E+04  0.12500000000E+03 0.  0.
         25    1    1    2    0    0  0.30825294792E+03 -0.13267169487E+03  0.63782098111E+03  0.73147950243E+03  0.12500000000E+03 0.  0.
         25    1    1    2    0    0 -0.94785918330E+02 -0.53566212523E+02  0.12747838183E+03  0.20911587044E+03  0.12500000000E+03 0.  0.
</event>
<event>
 5    0  0.5668330E-005  0.3983280E+03  0.7546771E-02  0.1044360E+00
         21   -1    0    0  502  501  0.00000000000E+00  0.00000000000E+00  0.62677769339E+03  0.62677769339E+03  0.00000000000E+00 0.  1.
         21   -1    0    0  501  502 -0.00000000000E+00 -0.00000000000E+00 -0.25314423902E+03  0.25314423902E+03  0.00000000000E+00 0.  1.
         25    1    1    2    0    0 -0.25732681126E+03 -0.15288429927E+03  0.54082043123E+01  0.32441477376E+03  0.12500000000E+03 0.  0.
         25    1    1    2    0    0  0.12512608576E+03  0.16957187661E+02  0.99402577832E+02  0.20359262273E+03  0.12500000000E+03 0.  0.
         25    1    1    2    0    0  0.13220072550E+03  0.13592711161E+03  0.26882267223E+03  0.35191453593E+03  0.12500000000E+03 0.  0.
</event>
<event>
 5    0  0.5668330E-005  0.2662695E+03  0.7546771E-02  0.1103434E+00
         21   -1    0    0  502  501  0.00000000000E+00  0.00000000000E+00  0.22382940445E+03  0.22382940445E+03  0.00000000000E+00 0.  1.
         21   -1    0    0  501  502 -0.00000000000E+00 -0.00000000000E+00 -0.31675668091E+03  0.31675668091E+03  0.00000000000E+00 0.  1.
         25    1    1    2    0    0 -0.11195265698E+02  0.21718965343E+02  0.42898491032E+02  0.13439616052E+03  0.12500000000E+03 0.  0.
         25    1    1    2    0    0  0.14414677609E+03 -0.47779789588E+01 -0.26230985033E+02  0.19265042620E+03  0.12500000000E+03 0.  0.
         25    1    1    2    0    0 -0.13295151040E+03 -0.16940986384E+02 -0.10959478246E+03  0.21353949864E+03  0.12500000000E+03 0.  0.
</event>
<event>
 5    0  0.5668330E-005  0.3964269E+03  0.7546771E-02  0.1045024E+00
         21   -1    0    0  502  501  0.00000000000E+00  0.00000000000E+00  0.22912191244E+03  0.22912191244E+03  0.00000000000E+00 0.  1.
         21   -1    0    0  501  502 -0.00000000000E+00 -0.00000000000E+00 -0.68589796248E+03  0.68589796248E+03  0.00000000000E+00 0.  1.
         25    1    1    2    0    0  0.17590827318E+03  0.86236600853E+02  0.94145883234E+02  0.25073675285E+03  0.12500000000E+03 0.  0.
         25    1    1    2    0    0 -0.26183543366E+02 -0.77360236894E+02 -0.12130308142E+03  0.19237884956E+03  0.12500000000E+03 0.  0.
         25    1    1    2    0    0 -0.14972472981E+03 -0.88763639591E+01 -0.42961885185E+03  0.47190427252E+03  0.12500000000E+03 0.  0.
</event>
<event>
 5    0  0.5668330E-005  0.4249650E+03  0.7546771E-02  0.1035462E+00
         21   -1    0    0  502  501  0.00000000000E+00  0.00000000000E+00  0.43851916951E+03  0.43851916951E+03  0.00000000000E+00 0.  1.
         21   -1    0    0  501  502 -0.00000000000E+00 -0.00000000000E+00 -0.41182978936E+03  0.41182978936E+03  0.00000000000E+00 0.  1.
         25    1    1    2    0    0  0.18638377506E+02  0.28834624115E+03  0.14698630061E+03  0.34744915666E+03  0.12500000000E+03 0.  0.
         25    1    1    2    0    0  0.13387550980E+03 -0.15707837398E+03 -0.97554801563E+01  0.24148796469E+03  0.12500000000E+03 0.  0.
         25    1    1    2    0    0 -0.15251388731E+03 -0.13126786717E+03 -0.11054144030E+03  0.26141183752E+03  0.12500000000E+03 0.  0.
</event>
<event>
 5    0  0.5668330E-005  0.4550029E+03  0.7546771E-02  0.1026241E+00
         21   -1    0    0  502  501  0.00000000000E+00  0.00000000000E+00  0.48189795120E+03  0.48189795120E+03  0.00000000000E+00 0.  1.
         21   -1    0    0  501  502 -0.00000000000E+00 -0.00000000000E+00 -0.42960895554E+03  0.42960895554E+03  0.00000000000E+00 0.  1.
         25    1    1    2    0    0 -0.16456761103E+02 -0.16214875405E+01  0.40241947111E+03  0.42171066495E+03  0.12500000000E+03 0.  0.
         25    1    1    2    0    0  0.10452442570E+03 -0.64163237211E+02 -0.16150539635E+03  0.23822524977E+03  0.12500000000E+03 0.  0.
         25    1    1    2    0    0 -0.88067664595E+02  0.65784724751E+02 -0.18862507910E+03  0.25157099201E+03  0.12500000000E+03 0.  0.
</event>
<event>
 5    0  0.5668330E-005  0.2092869E+03  0.7546771E-02  0.1142132E+00
         21   -1    0    0  502  501  0.00000000000E+00  0.00000000000E+00  0.72663050923E+02  0.72663050923E+02  0.00000000000E+00 0.  1.
         21   -1    0    0  501  502 -0.00000000000E+00 -0.00000000000E+00 -0.60279595182E+03  0.60279595182E+03  0.00000000000E+00 0.  1.
         25    1    1    2    0    0 -0.40364854027E+02 -0.15577565363E+02 -0.23774396596E+03  0.27206465285E+03  0.12500000000E+03 0.  0.
         25    1    1    2    0    0  0.12327805456E+02  0.56845819276E+02 -0.18764467009E+03  0.23284961707E+03  0.12500000000E+03 0.  0.
         25    1    1    2    0    0  0.28037048572E+02 -0.41268253913E+02 -0.10474426485E+03  0.17054473282E+03  0.12500000000E+03 0.  0.
</event>
<event>
 5    0  0.5668330E-005  0.2735808E+03  0.7546771E-02  0.1099248E+00
         21   -1    0    0  502  501  0.00000000000E+00  0.00000000000E+00  0.24457666885E+03  0.24457666885E+03  0.00000000000E+00 0. -1.
         21   -1    0    0  501  502 -0.00000000000E+00 -0.00000000000E+00 -0.30602452957E+03  0.30602452957E+03  0.00000000000E+00 0. -1.
         25    1    1    2    0    0 -0.54166999726E+02  0.11273909010E+03  0.27457508825E+02  0.17894994017E+03  0.12500000000E+03 0.  0.
         25    1    1    2    0    0  0.23247378072E+02 -0.44977984560E+02  0.73502720514E+02  0.15359397646E+03  0.12500000000E+03 0.  0.
         25    1    1    2    0    0  0.30919621654E+02 -0.67761105539E+02 -0.16240809005E+03  0.21805728179E+03  0.12500000000E+03 0.  0.
</event>
<event>
 5    0  0.5668330E-005  0.3361298E+03  0.7546771E-02  0.1068456E+00
         21   -1    0    0  502  501  0.00000000000E+00  0.00000000000E+00  0.11358697304E+04  0.11358697304E+04  0.00000000000E+00 0.  1.
         21   -1    0    0  501  502 -0.00000000000E+00 -0.00000000000E+00 -0.99468475329E+02  0.99468475329E+02  0.00000000000E+00 0.  1.
         25    1    1    2    0    0 -0.35095016406E+01  0.12083046315E+03  0.54188882923E+02  0.18213663130E+03  0.12500000000E+03 0.  0.
         25    1    1    2    0    0  0.85418706079E+00  0.54521000224E+02  0.59199541717E+03  0.60750048811E+03  0.12500000000E+03 0.  0.
         25    1    1    2    0    0  0.26553145798E+01 -0.17535146338E+03  0.39021695502E+03  0.44570108636E+03  0.12500000000E+03 0.  0.
</event>
<event>
 5    0  0.5668330E-005  0.2777560E+03  0.7546771E-02  0.1096921E+00
         21   -1    0    0  502  501  0.00000000000E+00  0.00000000000E+00  0.34074327655E+03  0.34074327655E+03  0.00000000000E+00 0. -1.
         21   -1    0    0  501  502 -0.00000000000E+00 -0.00000000000E+00 -0.22641206394E+03  0.22641206394E+03  0.00000000000E+00 0. -1.
         25    1    1    2    0    0 -0.38023428824E+02 -0.49339338416E+02  0.29249031287E+02  0.14269077506E+03  0.12500000000E+03 0.  0.
         25    1    1    2    0    0 -0.79519848218E+02  0.15462841423E+03  0.34660296210E+02  0.21693245235E+03  0.12500000000E+03 0.  0.
         25    1    1    2    0    0  0.11754327704E+03 -0.10528907581E+03  0.50421885108E+02  0.20753211308E+03  0.12500000000E+03 0.  0.
</event>
<event>
 5    0  0.5668330E-005  0.3568544E+03  0.7546771E-02  0.1059836E+00
         21   -1    0    0  502  501  0.00000000000E+00  0.00000000000E+00  0.14967891954E+03  0.14967891954E+03  0.00000000000E+00 0.  1.
         21   -1    0    0  501  502 -0.00000000000E+00 -0.00000000000E+00 -0.85078799684E+03  0.85078799684E+03  0.00000000000E+00 0.  1.
         25    1    1    2    0    0  0.98719313265E+02 -0.61409259164E+02 -0.21734278324E+03  0.27636838703E+03  0.12500000000E+03 0.  0.
         25    1    1    2    0    0 -0.20120991274E+03  0.48753261320E+02 -0.31793225783E+02  0.24392236199E+03  0.12500000000E+03 0.  0.
         25    1    1    2    0    0  0.10249059947E+03  0.12655997844E+02 -0.45197306827E+03  0.48017616737E+03  0.12500000000E+03 0.  0.
</event>
<event>
 5    0  0.5668330E-005  0.2443958E+03  0.7546771E-02  0.1116899E+00
         21   -1    0    0  502  501  0.00000000000E+00  0.00000000000E+00  0.15754007075E+03  0.15754007075E+03  0.00000000000E+00 0. -1.
         21   -1    0    0  501  502 -0.00000000000E+00 -0.00000000000E+00 -0.37913734446E+03  0.37913734446E+03  0.00000000000E+00 0. -1.
         25    1    1    2    0    0 -0.55400349350E+02  0.33872865662E+02 -0.17184663120E+03  0.22219998738E+03  0.12500000000E+03 0.  0.
         25    1    1    2    0    0 -0.57329257186E+02 -0.93546994532E+01 -0.21963946387E+01  0.13785491751E+03  0.12500000000E+03 0.  0.
         25    1    1    2    0    0  0.11272960654E+03 -0.24518166209E+02 -0.47554247865E+02  0.17662251033E+03  0.12500000000E+03 0.  0.
</event>
<event>
 5    0  0.5668330E-005  0.4313315E+03  0.7546771E-02  0.1033440E+00
         21   -1    0    0  502  501  0.00000000000E+00  0.00000000000E+00  0.27218648425E+03  0.27218648425E+03  0.00000000000E+00 0. -1.
         21   -1    0    0  501  502 -0.00000000000E+00 -0.00000000000E+00 -0.68352732516E+03  0.68352732516E+03  0.00000000000E+00 0. -1.
         25    1    1    2    0    0  0.13299979572E+03  0.59641989380E+02 -0.19099154900E+03  0.27082999160E+03  0.12500000000E+03 0.  0.
         25    1    1    2    0    0  0.22276741594E+03 -0.32045026014E+00 -0.26656794405E+02  0.25682875420E+03  0.12500000000E+03 0.  0.
         25    1    1    2    0    0 -0.35576721167E+03 -0.59321539120E+02 -0.19369249751E+03  0.42805506362E+03  0.12500000000E+03 0.  0.
</event>
<event>
 5    0  0.6856389E-005  0.3097492E+03  0.7546771E-02  0.1080466E+00
         21   -1    0    0  502  501  0.00000000000E+00  0.00000000000E+00  0.31468960257E+03  0.31468960257E+03  0.00000000000E+00 0.  1.
         21   -1    0    0  501  502 -0.00000000000E+00 -0.00000000000E+00 -0.30488640036E+03  0.30488640036E+03  0.00000000000E+00 0.  1.
         25    1    1    2    0    0  0.50421838168E+02 -0.15963077744E+03  0.10272205550E+03  0.23281144207E+03  0.12500000000E+03 0.  0.
         25    1    1    2    0    0  0.41680324306E+02  0.32749338894E+02 -0.12397199744E+03  0.18385816485E+03  0.12500000000E+03 0.  0.
         25    1    1    2    0    0 -0.92102162474E+02  0.12688143855E+03  0.31053144156E+02  0.20290639601E+03  0.12500000000E+03 0.  0.
</event>
<event>
 5    0  0.5668330E-005  0.2622076E+03  0.7546771E-02  0.1105824E+00
         21   -1    0    0  502  501  0.00000000000E+00  0.00000000000E+00  0.80483800686E+02  0.80483800686E+02  0.00000000000E+00 0.  1.
         21   -1    0    0  501  502 -0.00000000000E+00 -0.00000000000E+00 -0.85424427417E+03  0.85424427417E+03  0.00000000000E+00 0.  1.
         25    1    1    2    0    0  0.12061876543E+03 -0.17175334444E+02 -0.19234516901E+03  0.25974129962E+03  0.12500000000E+03 0.  0.
         25    1    1    2    0    0 -0.74536825231E+02 -0.84341436194E+02 -0.22263194925E+03  0.27903261637E+03  0.12500000000E+03 0.  0.
         25    1    1    2    0    0 -0.46081940195E+02  0.10151677064E+03 -0.35878335523E+03  0.39595415886E+03  0.12500000000E+03 0.  0.
</event>
<event>
 5    0  0.6030610E-005  0.4815890E+03  0.7546771E-02  0.1018699E+00
         21   -1    0    0  502  501  0.00000000000E+00  0.00000000000E+00  0.89957084211E+03  0.89957084211E+03  0.00000000000E+00 0. -1.
         21   -1    0    0  501  502 -0.00000000000E+00 -0.00000000000E+00 -0.25782064218E+03  0.25782064218E+03  0.00000000000E+00 0. -1.
         25    1    1    2    0    0  0.12244998008E+03  0.18321767408E+02 -0.80551771945E+02  0.19350264273E+03  0.12500000000E+03 0.  0.
         25    1    1    2    0    0 -0.12276596392E+03  0.23224162016E+03  0.15126408778E+03  0.32789247671E+03  0.12500000000E+03 0.  0.
         25    1    1    2    0    0  0.31598384072E+00 -0.25056338757E+03  0.57103788410E+03  0.63599636486E+03  0.12500000000E+03 0.  0.
</event>
<event>
 5    0  0.5668330E-005  0.3688850E+03  0.7546771E-02  0.1055120E+00
         21   -1    0    0  502  501  0.00000000000E+00  0.00000000000E+00  0.61700479401E+02  0.61700479401E+02  0.00000000000E+00 0. -1.
         21   -1    0    0  501  502 -0.00000000000E+00 -0.00000000000E+00 -0.22054313773E+04  0.22054313773E+04  0.00000000000E+00 0. -1.
         25    1    1    2    0    0  0.66866118158E+01 -0.19891633592E+03 -0.63401135089E+03  0.67617143724E+03  0.12500000000E+03 0.  0.
         25    1    1    2    0    0 -0.11698861942E+03  0.31365715806E+01 -0.10529733888E+04  0.10668055740E+04  0.12500000000E+03 0.  0.
         25    1    1    2    0    0  0.11030200760E+03  0.19577976434E+03 -0.45674615819E+03  0.52415484547E+03  0.12500000000E+03 0.  0.
</event>
<event>
 5    0  0.5668330E-005  0.4092282E+03  0.7546771E-02  0.1040630E+00
         21   -1    0    0  502  501  0.00000000000E+00  0.00000000000E+00  0.15898147318E+03  0.15898147318E+03  0.00000000000E+00 0.  1.
         21   -1    0    0  501  502 -0.00000000000E+00 -0.00000000000E+00 -0.10533786394E+04  0.10533786394E+04  0.00000000000E+00 0.  1.
         25    1    1    2    0    0  0.10919537858E+03  0.15198672678E+03 -0.78688715088E+03  0.81843752605E+03  0.12500000000E+03 0.  0.
         25    1    1    2    0    0 -0.78359460241E+02  0.17035995562E+02 -0.10420854679E+03  0.18142450600E+03  0.12500000000E+03 0.  0.
         25    1    1    2    0    0 -0.30835918339E+02 -0.16902272234E+03 -0.33014685268E+01  0.21249808052E+03  0.12500000000E+03 0.  0.
</event>
<event>
 5    0  0.5668330E-005  0.3567975E+03  0.7546771E-02  0.1059859E+00
         21   -1    0    0  502  501  0.00000000000E+00  0.00000000000E+00  0.14222024027E+04  0.14222024027E+04  0.00000000000E+00 0. -1.
         21   -1    0    0  501  502 -0.00000000000E+00 -0.00000000000E+00 -0.89512171234E+02  0.89512171234E+02  0.00000000000E+00 0. -1.
         25    1    1    2    0    0 -0.80022227310E+02  0.61106944319E+02  0.88418246556E+02  0.18324956161E+03  0.12500000000E+03 0.  0.
         25    1    1    2    0    0  0.74341423839E+02 -0.10999605363E+03  0.11499520367E+04  0.11643197438E+04  0.12500000000E+03 0.  0.
         25    1    1    2    0    0  0.56808034702E+01  0.48889109313E+02  0.94319948160E+02  0.16414526846E+03  0.12500000000E+03 0.  0.
</event>
<event>
 5    0  0.6182062E-005  0.2945251E+03  0.7546771E-02  0.1088010E+00
         21   -1    0    0  502  501  0.00000000000E+00  0.00000000000E+00  0.42081888486E+03  0.42081888486E+03  0.00000000000E+00 0. -1.
         21   -1    0    0  501  502 -0.00000000000E+00 -0.00000000000E+00 -0.20613393867E+03  0.20613393867E+03  0.00000000000E+00 0. -1.
         25    1    1    2    0    0 -0.16878350529E+03 -0.35947368062E+02 -0.48642969337E+02  0.21856629062E+03  0.12500000000E+03 0.  0.
         25    1    1    2    0    0  0.81693308771E+02  0.52173520715E+02  0.11950120383E+03  0.19824583395E+03  0.12500000000E+03 0.  0.
         25    1    1    2    0    0  0.87090196519E+02 -0.16226152653E+02  0.14382671170E+03  0.21014069896E+03  0.12500000000E+03 0.  0.
</event>
<event>
 5    0  0.5668330E-005  0.2454807E+03  0.7546771E-02  0.1116195E+00
         21   -1    0    0  502  501  0.00000000000E+00  0.00000000000E+00  0.32700469359E+03  0.32700469359E+03  0.00000000000E+00 0. -1.
         21   -1    0    0  501  502 -0.00000000000E+00 -0.00000000000E+00 -0.18428099716E+03  0.18428099716E+03  0.00000000000E+00 0. -1.
         25    1    1    2    0    0  0.11922958084E+03 -0.45752505891E+02 -0.37101467308E+00  0.17870120983E+03  0.12500000000E+03 0.  0.
         25    1    1    2    0    0 -0.26127146022E+02 -0.42917537641E+01  0.23657575766E+02  0.12994509533E+03  0.12500000000E+03 0.  0.
         25    1    1    2    0    0 -0.93102434816E+02  0.50044259655E+02  0.11943713534E+03  0.20263938559E+03  0.12500000000E+03 0.  0.
</event>
<event>
 5    0  0.5668330E-005  0.4543861E+03  0.7546771E-02  0.1026422E+00
         21   -1    0    0  502  501  0.00000000000E+00  0.00000000000E+00  0.11633133781E+04  0.11633133781E+04  0.00000000000E+00 0. -1.
         21   -1    0    0  501  502 -0.00000000000E+00 -0.00000000000E+00 -0.17748164274E+03  0.17748164274E+03  0.00000000000E+00 0. -1.
         25    1    1    2    0    0  0.11232046314E+03 -0.22785534771E+03  0.12501126561E+03  0.30949436578E+03  0.12500000000E+03 0.  0.
         25    1    1    2    0    0 -0.95547612056E+02  0.28532759429E+03  0.82665758117E+03  0.88855440955E+03  0.12500000000E+03 0.  0.
         25    1    1    2    0    0 -0.16772851082E+02 -0.57472246574E+02  0.34162888627E+02  0.14274624555E+03  0.12500000000E+03 0.  0.
</event>
<event>
 5    0  0.5835914E-005  0.3626035E+03  0.7546771E-02  0.1057558E+00
         21   -1    0    0  502  501  0.00000000000E+00  0.00000000000E+00  0.98824483734E+03  0.98824483734E+03  0.00000000000E+00 0.  1.
         21   -1    0    0  501  502 -0.00000000000E+00 -0.00000000000E+00 -0.13304523452E+03  0.13304523452E+03  0.00000000000E+00 0.  1.
         25    1    1    2    0    0  0.98441221161E+02 -0.15517684966E+03  0.47918955713E+03  0.52822169622E+03  0.12500000000E+03 0.  0.
         25    1    1    2    0    0 -0.17541555744E+03 -0.47214421302E+01  0.28602588207E+03  0.35809037270E+03  0.12500000000E+03 0.  0.
         25    1    1    2    0    0  0.76974336281E+02  0.15989829179E+03  0.89984163619E+02  0.23497800294E+03  0.12500000000E+03 0.  0.
</event>
<event>
 5    0  0.5668330E-005  0.3975622E+03  0.7546771E-02  0.1044627E+00
         21   -1    0    0  502  501  0.00000000000E+00  0.00000000000E+00  0.97327191068E+03  0.97327191068E+03  0.00000000000E+00 0.  1.
         21   -1    0    0  501  502 -0.00000000000E+00 -0.00000000000E+00 -0.16239622341E+03  0.16239622341E+03  0.00000000000E+00 0.  1.
         25    1    1    2    0    0 -0.53831773653E+02 -0.12168895739E+03  0.25305058171E+03  0.31203470818E+03  0.12500000000E+03 0.  0.
         25    1    1    2    0    0  0.20352978008E+03  0.22471943986E+03  0.49591640945E+03  0.59454291955E+03  0.12500000000E+03 0.  0.
         25    1    1    2    0    0 -0.14969800643E+03 -0.10303048247E+03  0.61908696116E+02  0.22909050635E+03  0.12500000000E+03 0.  0.
</event>
<event>
 5    0  0.5668330E-005  0.3218820E+03  0.7546771E-02  0.1074786E+00
         21   -1    0    0  502  501  0.00000000000E+00  0.00000000000E+00  0.15094798896E+03  0.15094798896E+03  0.00000000000E+00 0.  1.
         21   -1    0    0  501  502 -0.00000000000E+00 -0.00000000000E+00 -0.68638217890E+03  0.68638217890E+03  0.00000000000E+00 0.  1.
         25    1    1    2    0    0  0.86091664855E+02 -0.41797327883E+02 -0.30779555711E+03  0.34571938961E+03  0.12500000000E+03 0.  0.
         25    1    1    2    0    0  0.66293060453E+02  0.15331782920E+03 -0.12252601749E+03  0.24194782821E+03  0.12500000000E+03 0.  0.
         25    1    1    2    0    0 -0.15238472531E+03 -0.11152050132E+03 -0.10511261533E+03  0.24966295004E+03  0.12500000000E+03 0.  0.
</event>
<event>
 5    0  0.5668330E-005  0.3635243E+03  0.7546771E-02  0.1057197E+00
         21   -1    0    0  502  501  0.00000000000E+00  0.00000000000E+00  0.68486998427E+03  0.68486998427E+03  0.00000000000E+00 0.  1.
         21   -1    0    0  501  502 -0.00000000000E+00 -0.00000000000E+00 -0.19295622015E+03  0.19295622015E+03  0.00000000000E+00 0.  1.
         25    1    1    2    0    0 -0.50435037561E+02 -0.22311534648E+03  0.92549302163E+02  0.27661258861E+03  0.12500000000E+03 0.  0.
         25    1    1    2    0    0 -0.71577594265E+02  0.21460593522E+03  0.15724500276E+03  0.30253933683E+03  0.12500000000E+03 0.  0.
         25    1    1    2    0    0  0.12201263183E+03  0.85094112523E+01  0.24211945920E+03  0.29867427898E+03  0.12500000000E+03 0.  0.
</event>
<event>
 5    0  0.5668330E-005  0.2735541E+03  0.7546771E-02  0.1099263E+00
         21   -1    0    0  502  501  0.00000000000E+00  0.00000000000E+00  0.23562357055E+03  0.23562357055E+03  0.00000000000E+00 0. -1.
         21   -1    0    0  501  502 -0.00000000000E+00 -0.00000000000E+00 -0.31759077420E+03  0.31759077420E+03  0.00000000000E+00 0. -1.
         25    1    1    2    0    0 -0.83849003332E+02  0.95855881061E+02 -0.36143548883E+02  0.18207240708E+03  0.12500000000E+03 0.  0.
         25    1    1    2    0    0 -0.92866786466E+01  0.34640410531E+02 -0.96129461351E+02  0.16171602822E+03  0.12500000000E+03 0.  0.
         25    1    1    2    0    0  0.93135681979E+02 -0.13049629159E+03  0.50305806584E+02  0.20942590946E+03  0.12500000000E+03 0.  0.
</event>
<event>
 5    0  0.8015546E-005  0.3819515E+03  0.7546771E-02  0.1050215E+00
         21   -1    0    0  502  501  0.00000000000E+00  0.00000000000E+00  0.44555170779E+03  0.44555170779E+03  0.00000000000E+00 0. -1.
         21   -1    0    0  501  502 -0.00000000000E+00 -0.00000000000E+00 -0.32742981061E+03  0.32742981061E+03  0.00000000000E+00 0. -1.
         25    1    1    2    0    0  0.78124753261E+02  0.17089255508E+03 -0.35891575879E+02  0.22851903132E+03  0.12500000000E+03 0.  0.
         25    1    1    2    0    0 -0.99347680209E+02 -0.18883405694E+03 -0.94632546293E+02  0.26478025123E+03  0.12500000000E+03 0.  0.
         25    1    1    2    0    0  0.21222926948E+02  0.17941501856E+02  0.24864601934E+03  0.27968223586E+03  0.12500000000E+03 0.  0.
</event>
<event>
 5    0  0.5668330E-005  0.2679447E+03  0.7546771E-02  0.1102462E+00
         21   -1    0    0  502  501  0.00000000000E+00  0.00000000000E+00  0.66166219611E+03  0.66166219611E+03  0.00000000000E+00 0. -1.
         21   -1    0    0  501  502 -0.00000000000E+00 -0.00000000000E+00 -0.10850602939E+03  0.10850602939E+03  0.00000000000E+00 0. -1.
         25    1    1    2    0    0 -0.53431235749E+01  0.11788426626E+03  0.35983540880E+02  0.17562762999E+03  0.12500000000E+03 0.  0.
         25    1    1    2    0    0  0.36007832708E+02 -0.22946511818E+02  0.20682540315E+03  0.24540752598E+03  0.12500000000E+03 0.  0.
         25    1    1    2    0    0 -0.30664709133E+02 -0.94937754446E+02  0.31034722269E+03  0.34913306953E+03  0.12500000000E+03 0.  0.
</event>
<event>
 5    0  0.5668330E-005  0.2622467E+03  0.7546771E-02  0.1105801E+00
         21   -1    0    0  502  501  0.00000000000E+00  0.00000000000E+00  0.30530054653E+03  0.30530054653E+03  0.00000000000E+00 0.  1.
         21   -1    0    0  501  502 -0.00000000000E+00 -0.00000000000E+00 -0.22526427310E+03  0.22526427310E+03  0.00000000000E+00 0.  1.
         25    1    1    2    0    0  0.71977279333E+01 -0.22391533304E+02 -0.78479516068E+02  0.14945642339E+03  0.12500000000E+03 0.  0.
         25    1    1    2    0    0  0.21192439500E+02  0.23109180981E+02 -0.48435354867E+02  0.13767402565E+03  0.12500000000E+03 0.  0.
         25    1    1    2    0    0 -0.28390167433E+02 -0.71764767704E+00  0.20695114437E+03  0.24343437058E+03  0.12500000000E+03 0.  0.
</event>
<event>
 5    0  0.5668330E-005  0.3153571E+03  0.7546771E-02  0.1077806E+00
         21   -1    0    0  502  501  0.00000000000E+00  0.00000000000E+00  0.46991402850E+03  0.46991402850E+03  0.00000000000E+00 0. -1.
         21   -1    0    0  501  502 -0.00000000000E+00 -0.00000000000E+00 -0.21163461142E+03  0.21163461142E+03  0.00000000000E+00 0. -1.
         25    1    1    2    0    0  0.29812147722E+02 -0.22969551348E+01  0.45591893082E+02  0.13637324103E+03  0.12500000000E+03 0.  0.
         25    1    1    2    0    0 -0.79912807828E+02  0.20764760238E+03  0.12724977398E+03  0.28516852668E+03  0.12500000000E+03 0.  0.
         25    1    1    2    0    0  0.50100660106E+02 -0.20535064725E+03  0.85437750010E+02  0.26000687221E+03  0.12500000000E+03 0.  0.
</event>
<event>
 5    0  0.5668330E-005  0.3833298E+03  0.7546771E-02  0.1049710E+00
         21   -1    0    0  502  501  0.00000000000E+00  0.00000000000E+00  0.12238889809E+04  0.12238889809E+04  0.00000000000E+00 0. -1.
         21   -1    0    0  501  502 -0.00000000000E+00 -0.00000000000E+00 -0.12006129737E+03  0.12006129737E+03  0.00000000000E+00 0. -1.
         25    1    1    2    0    0 -0.21301604095E+03 -0.47875341690E+02  0.53651862169E+03  0.59257498552E+03  0.12500000000E+03 0.  0.
         25    1    1    2    0    0  0.24067395237E+03 -0.76413674209E+02  0.20805291515E+03  0.35024850672E+03  0.12500000000E+03 0.  0.
         25    1    1    2    0    0 -0.27657911418E+02  0.12428901590E+03  0.35925614672E+03  0.40112678606E+03  0.12500000000E+03 0.  0.
</event>
<event>
 5    0  0.7293520E-005  0.2817227E+03  0.7546771E-02  0.1094752E+00
         21   -1    0    0  502  501  0.00000000000E+00  0.00000000000E+00  0.35152447368E+03  0.35152447368E+03  0.00000000000E+00 0.  1.
         21   -1    0    0  501  502 -0.00000000000E+00 -0.00000000000E+00 -0.22578141004E+03  0.22578141004E+03  0.00000000000E+00 0.  1.
         25    1    1    2    0    0 -0.62624545017E+01  0.75675281668E+02  0.12583967020E+03  0.19294193217E+03  0.12500000000E+03 0.  0.
         25    1    1    2    0    0 -0.93258045370E+02 -0.14104086125E+03  0.16594284316E+02  0.21092642756E+03  0.12500000000E+03 0.  0.
         25    1    1    2    0    0  0.99520499872E+02  0.65365579587E+02 -0.16690890883E+02  0.17343752399E+03  0.12500000000E+03 0.  0.
</event>
<event>
 5    0  0.5668330E-005  0.2037870E+03  0.7546771E-02  0.1146583E+00
         21   -1    0    0  502  501  0.00000000000E+00  0.00000000000E+00  0.28717302062E+03  0.28717302062E+03  0.00000000000E+00 0.  1.
         21   -1    0    0  501  502 -0.00000000000E+00 -0.00000000000E+00 -0.14461360966E+03  0.14461360966E+03  0.00000000000E+00 0.  1.
         25    1    1    2    0    0 -0.34164958735E+02  0.30279758324E+01  0.50872849016E+02  0.13924604055E+03  0.12500000000E+03 0.  0.
         25    1    1    2    0    0  0.15887330549E+02  0.56219877127E+02  0.52269180624E+02  0.14754710807E+03  0.12500000000E+03 0.  0.
         25    1    1    2    0    0  0.18277628186E+02 -0.59247852960E+02  0.39417381321E+02  0.14499348166E+03  0.12500000000E+03 0.  0.
</event>
<event>
 5    0  0.5668330E-005  0.4139246E+03  0.7546771E-02  0.1039062E+00
         21   -1    0    0  502  501  0.00000000000E+00  0.00000000000E+00  0.44652812415E+03  0.44652812415E+03  0.00000000000E+00 0.  1.
         21   -1    0    0  501  502 -0.00000000000E+00 -0.00000000000E+00 -0.38370163532E+03  0.38370163532E+03  0.00000000000E+00 0.  1.
         25    1    1    2    0    0 -0.10578064362E+03 -0.15941432152E+03  0.12534299168E+03  0.26064983413E+03  0.12500000000E+03 0.  0.
         25    1    1    2    0    0 -0.18585712625E+02 -0.13700848247E+03 -0.11747841220E+03  0.22032460216E+03  0.12500000000E+03 0.  0.
         25    1    1    2    0    0  0.12436635625E+03  0.29642280398E+03  0.54961909358E+02  0.34925532318E+03  0.12500000000E+03 0.  0.
</event>
<event>
 5    0  0.5668330E-005  0.2767056E+03  0.7546771E-02  0.1097502E+00
         21   -1    0    0  502  501  0.00000000000E+00  0.00000000000E+00  0.19021200581E+04  0.19021200581E+04  0.00000000000E+00 0. -1.
         21   -1    0    0  501  502 -0.00000000000E+00 -0.00000000000E+00 -0.40252977922E+02  0.40252977922E+02  0.00000000000E+00 0. -1.
         25    1    1    2    0    0  0.43126521486E+02  0.12680468388E+03  0.97898444205E+03  0.99597934842E+03  0.12500000000E+03 0.  0.
         25    1    1    2    0    0 -0.48194484994E+02  0.22921885087E+02  0.47805323923E+03  0.49699901483E+03  0.12500000000E+03 0.  0.
         25    1    1    2    0    0  0.50679635079E+01 -0.14972656896E+03  0.40482939894E+03  0.44939467281E+03  0.12500000000E+03 0.  0.
</event>
<event>
 5    0  0.5668330E-005  0.2552303E+03  0.7546771E-02  0.1110043E+00
         21   -1    0    0  502  501  0.00000000000E+00  0.00000000000E+00  0.11251381535E+04  0.11251381535E+04  0.00000000000E+00 0. -1.
         21   -1    0    0  501  502 -0.00000000000E+00 -0.00000000000E+00 -0.57897330189E+02  0.57897330189E+02  0.00000000000E+00 0. -1.
         25    1    1    2    0    0  0.59181761160E+02  0.11586351184E+03  0.31900714752E+03  0.36649337566E+03  0.12500000000E+03 0.  0.
         25    1    1    2    0    0 -0.80020007836E+02  0.84639912074E+01  0.31367895236E+03  0.34712292629E+03  0.12500000000E+03 0.  0.
         25    1    1    2    0    0  0.20838246676E+02 -0.12432750305E+03  0.43455472346E+03  0.46941918177E+03  0.12500000000E+03 0.  0.
</event>
<event>
 5    0  0.5668330E-005  0.3957273E+03  0.7546771E-02  0.1045269E+00
         21   -1    0    0  502  501  0.00000000000E+00  0.00000000000E+00  0.45574612184E+03  0.45574612184E+03  0.00000000000E+00 0. -1.
         21   -1    0    0  501  502 -0.00000000000E+00 -0.00000000000E+00 -0.34361251540E+03  0.34361251540E+03  0.00000000000E+00 0. -1.
         25    1    1    2    0    0 -0.35465404220E+02 -0.31509730031E+02  0.16198507728E+02  0.13467757659E+03  0.12500000000E+03 0.  0.
         25    1    1    2    0    0  0.27166714259E+03  0.50564063270E+02 -0.11431281002E+03  0.32411753947E+03  0.12500000000E+03 0.  0.
         25    1    1    2    0    0 -0.23620173837E+03 -0.19054333240E+02  0.21024790874E+03  0.34056352117E+03  0.12500000000E+03 0.  0.
</event>
<event>
 5    0  0.5668330E-005  0.3129839E+03  0.7546771E-02  0.1078924E+00
         21   -1    0    0  502  501  0.00000000000E+00  0.00000000000E+00  0.10026223086E+04  0.10026223086E+04  0.00000000000E+00 0. -1.
         21   -1    0    0  501  502 -0.00000000000E+00 -0.00000000000E+00 -0.97702695602E+02  0.97702695602E+02  0.00000000000E+00 0. -1.
         25    1    1    2    0    0  0.91998484921E+02  0.61565329132E+02  0.69597373255E+03  0.71572232561E+03  0.12500000000E+03 0.  0.
         25    1    1    2    0    0 -0.16739450176E+02 -0.11134113272E+03  0.11968659523E+03  0.20646292187E+03  0.12500000000E+03 0.  0.
         25    1    1    2    0    0 -0.75259034745E+02  0.49775803588E+02  0.89259285247E+02  0.17813975675E+03  0.12500000000E+03 0.  0.
</event>
<event>
 5    0  0.5668330E-005  0.2784340E+03  0.7546771E-02  0.1096547E+00
         21   -1    0    0  502  501  0.00000000000E+00  0.00000000000E+00  0.41896936649E+03  0.41896936649E+03  0.00000000000E+00 0.  1.
         21   -1    0    0  501  502 -0.00000000000E+00 -0.00000000000E+00 -0.18503863562E+03  0.18503863562E+03  0.00000000000E+00 0.  1.
         25    1    1    2    0    0 -0.74488158382E+01  0.15421265845E+02  0.90597154035E+02  0.15532593028E+03  0.12500000000E+03 0.  0.
         25    1    1    2    0    0  0.10068747814E+03  0.10597723707E+03  0.16022958836E+03  0.25033510345E+03  0.12500000000E+03 0.  0.
         25    1    1    2    0    0 -0.93238662306E+02 -0.12139850291E+03 -0.16896011529E+02  0.19834696838E+03  0.12500000000E+03 0.  0.
</event>
<event>
 5    0  0.5668330E-005  0.2462560E+03  0.7546771E-02  0.1115694E+00
         21   -1    0    0  502  501  0.00000000000E+00  0.00000000000E+00  0.57806773277E+03  0.57806773277E+03  0.00000000000E+00 0.  1.
         21   -1    0    0  501  502 -0.00000000000E+00 -0.00000000000E+00 -0.10490469646E+03  0.10490469646E+03  0.00000000000E+00 0.  1.
         25    1    1    2    0    0  0.25383250286E+02  0.75513790733E+02  0.14882179974E+03  0.21004659022E+03  0.12500000000E+03 0.  0.
         25    1    1    2    0    0  0.19599337935E+02 -0.14493807738E+03  0.15751109093E+03  0.24864819341E+03  0.12500000000E+03 0.  0.
         25    1    1    2    0    0 -0.44982588220E+02  0.69424286642E+02  0.16683014564E+03  0.22427764560E+03  0.12500000000E+03 0.  0.
</event>
<event>
 5    0  0.5668330E-005  0.3535070E+03  0.7546771E-02  0.1061185E+00
         21   -1    0    0  502  501  0.00000000000E+00  0.00000000000E+00  0.81837408702E+02  0.81837408702E+02  0.00000000000E+00 0.  1.
         21   -1    0    0  501  502 -0.00000000000E+00 -0.00000000000E+00 -0.15270182005E+04  0.15270182005E+04  0.00000000000E+00 0.  1.
         25    1    1    2    0    0  0.13394909424E+02  0.10314942954E+03 -0.35507192308E+03  0.39053847310E+03  0.12500000000E+03 0.  0.
         25    1    1    2    0    0  0.55396230290E+02 -0.52971863502E+02 -0.10522352340E+04  0.10624023477E+04  0.12500000000E+03 0.  0.
         25    1    1    2    0    0 -0.68791139713E+02 -0.50177566038E+02 -0.37873634678E+02  0.15591478840E+03  0.12500000000E+03 0.  0.
</event>
<event>
 5    0  0.6421640E-005  0.3130511E+03  0.7546771E-02  0.1078893E+00
         21   -1    0    0  502  501  0.00000000000E+00  0.00000000000E+00  0.27441351693E+03  0.27441351693E+03  0.00000000000E+00 0.  1.
         21   -1    0    0  501  502 -0.00000000000E+00 -0.00000000000E+00 -0.35712895080E+03  0.35712895080E+03  0.00000000000E+00 0.  1.
         25    1    1    2    0    0  0.13366488634E+03 -0.48922996890E+02 -0.34608554788E+01  0.18946434753E+03  0.12500000000E+03 0.  0.
         25    1    1    2    0    0 -0.76519680469E+02  0.16595956471E+03  0.40992523245E+02  0.22517376752E+03  0.12500000000E+03 0.  0.
         25    1    1    2    0    0 -0.57145205869E+02 -0.11703656782E+03 -0.12024710164E+03  0.21690435268E+03  0.12500000000E+03 0.  0.
</event>
<event>
 5    0  0.5668330E-005  0.3391278E+03  0.7546771E-02  0.1067168E+00
         21   -1    0    0  502  501  0.00000000000E+00  0.00000000000E+00  0.71445141034E+03  0.71445141034E+03  0.00000000000E+00 0. -1.
         21   -1    0    0  501  502 -0.00000000000E+00 -0.00000000000E+00 -0.16097335033E+03  0.16097335033E+03  0.00000000000E+00 0. -1.
         25    1    1    2    0    0 -0.53954879436E+02 -0.25332742868E+01 -0.49059990599E+01  0.13625936783E+03  0.12500000000E+03 0.  0.
         25    1    1    2    0    0  0.15068467161E+03 -0.81717374470E+02  0.51190318448E+03  0.55412405635E+03  0.12500000000E+03 0.  0.
         25    1    1    2    0    0 -0.96729792176E+02  0.84250648757E+02  0.46480874596E+02  0.18504133650E+03  0.12500000000E+03 0.  0.
</event>
<event>
 5    0  0.5668330E-005  0.3581571E+03  0.7546771E-02  0.1059316E+00
         21   -1    0    0  502  501  0.00000000000E+00  0.00000000000E+00  0.46706661573E+03  0.46706661573E+03  0.00000000000E+00 0.  1.
         21   -1    0    0  501  502 -0.00000000000E+00 -0.00000000000E+00 -0.27464281103E+03  0.27464281103E+03  0.00000000000E+00 0.  1.
         25    1    1    2    0    0 -0.11226365249E+03 -0.69208396012E+02  0.36085624245E+03  0.40402370904E+03  0.12500000000E+03 0.  0.
         25    1    1    2    0    0  0.37722726177E+02  0.27928088267E+02 -0.11808840333E+03  0.17824941286E+03  0.12500000000E+03 0.  0.
         25    1    1    2    0    0  0.74540926316E+02  0.41280307745E+02 -0.50344034414E+02  0.15943630485E+03  0.12500000000E+03 0.  0.
</event>
<event>
 5    0  0.5668330E-005  0.4398230E+03  0.7546771E-02  0.1030801E+00
         21   -1    0    0  502  501  0.00000000000E+00  0.00000000000E+00  0.38886949175E+03  0.38886949175E+03  0.00000000000E+00 0. -1.
         21   -1    0    0  501  502 -0.00000000000E+00 -0.00000000000E+00 -0.49745285472E+03  0.49745285472E+03  0.00000000000E+00 0. -1.
         25    1    1    2    0    0 -0.73176857727E+02  0.72135338543E+01  0.35040688901E+02  0.14919697536E+03  0.12500000000E+03 0.  0.
         25    1    1    2    0    0 -0.10216985915E+03  0.25444826038E+03  0.10250085153E+03  0.31829863634E+03  0.12500000000E+03 0.  0.
         25    1    1    2    0    0  0.17534671688E+03 -0.26166179423E+03 -0.24612490341E+03  0.41882673477E+03  0.12500000000E+03 0.  0.
</event>
<event>
 5    0  0.7235283E-005  0.2755015E+03  0.7546771E-02  0.1098172E+00
         21   -1    0    0  502  501  0.00000000000E+00  0.00000000000E+00  0.12118272142E+03  0.12118272142E+03  0.00000000000E+00 0.  1.
         21   -1    0    0  501  502 -0.00000000000E+00 -0.00000000000E+00 -0.62633596513E+03  0.62633596513E+03  0.00000000000E+00 0.  1.
         25    1    1    2    0    0  0.82920046236E+02 -0.16796047114E+03 -0.22847292830E+03  0.32079796274E+03  0.12500000000E+03 0.  0.
         25    1    1    2    0    0 -0.60968672165E+01  0.85547182760E+02 -0.94132051107E+02  0.17844140583E+03  0.12500000000E+03 0.  0.
         25    1    1    2    0    0 -0.76823179019E+02  0.82413288384E+02 -0.18254826430E+03  0.24827931798E+03  0.12500000000E+03 0.  0.
</event>
<event>
 5    0  0.5668330E-005  0.3249700E+03  0.7546771E-02  0.1073384E+00
         21   -1    0    0  502  501  0.00000000000E+00  0.00000000000E+00  0.75894581779E+02  0.75894581779E+02  0.00000000000E+00 0.  1.
         21   -1    0    0  501  502 -0.00000000000E+00 -0.00000000000E+00 -0.13914760304E+04  0.13914760304E+04  0.00000000000E+00 0.  1.
         25    1    1    2    0    0 -0.14633459450E+03 -0.39567160990E+02 -0.54659590068E+03  0.58083685525E+03  0.12500000000E+03 0.  0.
         25    1    1    2    0    0  0.49007522261E+02 -0.11174962019E+03 -0.54878855329E+03  0.57591977833E+03  0.12500000000E+03 0.  0.
         25    1    1    2    0    0  0.97327072239E+02  0.15131678118E+03 -0.22019699470E+03  0.31061397865E+03  0.12500000000E+03 0.  0.
</event>
<event>
 5    0  0.5677365E-005  0.3194111E+03  0.7546771E-02  0.1075921E+00
         21   -1    0    0  502  501  0.00000000000E+00  0.00000000000E+00  0.16147887024E+04  0.16147887024E+04  0.00000000000E+00 0.  1.
         21   -1    0    0  501  502 -0.00000000000E+00 -0.00000000000E+00 -0.63180692374E+02  0.63180692374E+02  0.00000000000E+00 0.  1.
         25    1    1    2    0    0  0.73186991082E+02 -0.10355032016E+03  0.77641151271E+03  0.79656690964E+03  0.12500000000E+03 0.  0.
         25    1    1    2    0    0 -0.86375624587E+02  0.10073975680E+03  0.72238948820E+03  0.74503746201E+03  0.12500000000E+03 0.  0.
         25    1    1    2    0    0  0.13188633505E+02  0.28105633658E+01  0.52807009107E+02  0.13636502312E+03  0.12500000000E+03 0.  0.
</event>
<event>
 5    0  0.5668330E-005  0.5152182E+03  0.7546771E-02  0.1009881E+00
         21   -1    0    0  502  501  0.00000000000E+00  0.00000000000E+00  0.17459742512E+03  0.17459742512E+03  0.00000000000E+00 0.  1.
         21   -1    0    0  501  502 -0.00000000000E+00 -0.00000000000E+00 -0.15203536381E+04  0.15203536381E+04  0.00000000000E+00 0.  1.
         25    1    1    2    0    0 -0.83887158850E+02  0.61486582242E+02 -0.89040366281E+03  0.90513056404E+03  0.12500000000E+03 0.  0.
         25    1    1    2    0    0 -0.17340963770E+03 -0.22783011111E+03 -0.18990139508E+03  0.36560224538E+03  0.12500000000E+03 0.  0.
         25    1    1    2    0    0  0.25729679655E+03  0.16634352887E+03 -0.26545115507E+03  0.42421825378E+03  0.12500000000E+03 0.  0.
</event>
<event>
 5    0  0.5668330E-005  0.2662085E+03  0.7546771E-02  0.1103469E+00
         21   -1    0    0  502  501  0.00000000000E+00  0.00000000000E+00  0.83978195307E+03  0.83978195307E+03  0.00000000000E+00 0.  1.
         21   -1    0    0  501  502 -0.00000000000E+00 -0.00000000000E+00 -0.84387351829E+02  0.84387351829E+02  0.00000000000E+00 0.  1.
         25    1    1    2    0    0  0.38808846293E+02  0.24286687041E+02  0.11454079750E+03  0.17561481717E+03  0.12500000000E+03 0.  0.
         25    1    1    2    0    0 -0.15191348744E+03  0.72110712212E+01  0.45448762557E+03  0.49529153941E+03  0.12500000000E+03 0.  0.
         25    1    1    2    0    0  0.11310464115E+03 -0.31497758262E+02  0.18636617817E+03  0.25326294832E+03  0.12500000000E+03 0.  0.
</event>
<event>
 5    0  0.5668330E-005  0.2736116E+03  0.7546771E-02  0.1099230E+00
         21   -1    0    0  502  501  0.00000000000E+00  0.00000000000E+00  0.10833078741E+04  0.10833078741E+04  0.00000000000E+00 0. -1.
         21   -1    0    0  501  502 -0.00000000000E+00 -0.00000000000E+00 -0.69106239992E+02  0.69106239992E+02  0.00000000000E+00 0. -1.
         25    1    1    2    0    0 -0.50518358339E+02 -0.22183501929E+02  0.34822506939E+03  0.37407206691E+03  0.12500000000E+03 0.  0.
         25    1    1    2    0    0  0.88603998643E+02 -0.78959559670E+02  0.55022107912E+03  0.57658782206E+03  0.12500000000E+03 0.  0.
         25    1    1    2    0    0 -0.38085640304E+02  0.10114306160E+03  0.11575548558E+03  0.20175422511E+03  0.12500000000E+03 0.  0.
</event>
<event>
 5    0  0.5668330E-005  0.5027077E+03  0.7546771E-02  0.1013075E+00
         21   -1    0    0  502  501  0.00000000000E+00  0.00000000000E+00  0.26608243066E+03  0.26608243066E+03  0.00000000000E+00 0.  1.
         21   -1    0    0  501  502 -0.00000000000E+00 -0.00000000000E+00 -0.94976225037E+03  0.94976225037E+03  0.00000000000E+00 0.  1.
         25    1    1    2    0    0  0.82468702955E+02 -0.14308783839E+02  0.63936503882E+02  0.16345857209E+03  0.12500000000E+03 0.  0.
         25    1    1    2    0    0 -0.70150141308E+01 -0.19856065583E+03  0.26632416915E+02  0.23624104237E+03  0.12500000000E+03 0.  0.
         25    1    1    2    0    0 -0.75453688824E+02  0.21286943967E+03 -0.77424874050E+03  0.81614506656E+03  0.12500000000E+03 0.  0.
</event>
<event>
 5    0  0.5668330E-005  0.3959868E+03  0.7546771E-02  0.1045178E+00
         21   -1    0    0  502  501  0.00000000000E+00  0.00000000000E+00  0.99401796794E+03  0.99401796794E+03  0.00000000000E+00 0. -1.
         21   -1    0    0  501  502 -0.00000000000E+00 -0.00000000000E+00 -0.15774919080E+03  0.15774919080E+03  0.00000000000E+00 0. -1.
         25    1    1    2    0    0  0.14752971153E+03 -0.19982936659E+03  0.14344711817E+03  0.31288794680E+03  0.12500000000E+03 0.  0.
         25    1    1    2    0    0  0.45856236995E+02  0.12465386512E+02  0.74727483980E+02  0.15319065635E+03  0.12500000000E+03 0.  0.
         25    1    1    2    0    0 -0.19338594853E+03  0.18736398008E+03  0.61809417498E+03  0.68568855559E+03  0.12500000000E+03 0.  0.
</event>
<event>
 5    0  0.5668330E-005  0.3682409E+03  0.7546771E-02  0.1055368E+00
         21   -1    0    0  502  501  0.00000000000E+00  0.00000000000E+00  0.19105521641E+03  0.19105521641E+03  0.00000000000E+00 0. -1.
         21   -1    0    0  501  502 -0.00000000000E+00 -0.00000000000E+00 -0.70974951163E+03  0.70974951163E+03  0.00000000000E+00 0. -1.
         25    1    1    2    0    0  0.17715781812E+03  0.97870974073E+01  0.26903009942E+02  0.21869945529E+03  0.12500000000E+03 0.  0.
         25    1    1    2    0    0 -0.22750310466E+03  0.34823219479E+02 -0.40503503243E+03  0.48233670474E+03  0.12500000000E+03 0.  0.
         25    1    1    2    0    0  0.50345286535E+02 -0.44610316886E+02 -0.14056227273E+03  0.19976856801E+03  0.12500000000E+03 0.  0.
</event>
<event>
 5    0  0.5668330E-005  0.3959250E+03  0.7546771E-02  0.1045200E+00
         21   -1    0    0  502  501  0.00000000000E+00  0.00000000000E+00  0.75327045264E+02  0.75327045264E+02  0.00000000000E+00 0. -1.
         21   -1    0    0  501  502 -0.00000000000E+00 -0.00000000000E+00 -0.20810134055E+04  0.20810134055E+04  0.00000000000E+00 0. -1.
         25    1    1    2    0    0  0.57097546201E+02  0.85730711635E+02 -0.22433324657E+03  0.27669530212E+03  0.12500000000E+03 0.  0.
         25    1    1    2    0    0  0.20742044502E+03 -0.54709905635E+02 -0.42903593809E+03  0.49569471549E+03  0.12500000000E+03 0.  0.
         25    1    1    2    0    0 -0.26451799122E+03 -0.31020806000E+02 -0.13523171756E+04  0.13839504332E+04  0.12500000000E+03 0.  0.
</event>
<event>
 5    0  0.5668330E-005  0.1944551E+03  0.7546771E-02  0.1154503E+00
         21   -1    0    0  502  501  0.00000000000E+00  0.00000000000E+00  0.58835011720E+02  0.58835011720E+02  0.00000000000E+00 0. -1.
         21   -1    0    0  501  502 -0.00000000000E+00 -0.00000000000E+00 -0.64269218457E+03  0.64269218457E+03  0.00000000000E+00 0. -1.
         25    1    1    2    0    0 -0.28575717676E+01 -0.11751455920E+02 -0.22981111353E+03  0.26188625457E+03  0.12500000000E+03 0.  0.
         25    1    1    2    0    0  0.93027826689E+00  0.37739171176E+02 -0.20860968117E+03  0.24610589090E+03  0.12500000000E+03 0.  0.
         25    1    1    2    0    0  0.19272935007E+01 -0.25987715255E+02 -0.14543637815E+03  0.19353505082E+03  0.12500000000E+03 0.  0.
</event>
<event>
 5    0  0.5668330E-005  0.3081857E+03  0.7546771E-02  0.1081219E+00
         21   -1    0    0  502  501  0.00000000000E+00  0.00000000000E+00  0.39855916413E+03  0.39855916413E+03  0.00000000000E+00 0. -1.
         21   -1    0    0  501  502 -0.00000000000E+00 -0.00000000000E+00 -0.23830442431E+03  0.23830442431E+03  0.00000000000E+00 0. -1.
         25    1    1    2    0    0 -0.85866667489E+02  0.51055842727E+02 -0.89351997681E+02  0.18327182858E+03  0.12500000000E+03 0.  0.
         25    1    1    2    0    0  0.72011440509E+02  0.14857395046E+02  0.27353252489E+03  0.30959882417E+03  0.12500000000E+03 0.  0.
         25    1    1    2    0    0  0.13855226980E+02 -0.65913237774E+02 -0.23925787392E+02  0.14399293570E+03  0.12500000000E+03 0.  0.
</event>
<event>
 5    0  0.5696241E-005  0.2897527E+03  0.7546771E-02  0.1090478E+00
         21   -1    0    0  502  501  0.00000000000E+00  0.00000000000E+00  0.59553842449E+02  0.59553842449E+02  0.00000000000E+00 0. -1.
         21   -1    0    0  501  502 -0.00000000000E+00 -0.00000000000E+00 -0.14097596960E+04  0.14097596960E+04  0.00000000000E+00 0. -1.
         25    1    1    2    0    0  0.66510957439E+02 -0.17310038626E+03 -0.64156616439E+03  0.67942593008E+03  0.12500000000E+03 0.  0.
         25    1    1    2    0    0  0.20330351385E+01  0.97978750178E+02 -0.50968522552E+03  0.53386140320E+03  0.12500000000E+03 0.  0.
         25    1    1    2    0    0 -0.68543992577E+02  0.75121636084E+02 -0.19895446365E+03  0.25602620517E+03  0.12500000000E+03 0.  0.
</event>
<event>
 5    0  0.5668330E-005  0.2637196E+03  0.7546771E-02  0.1104929E+00
         21   -1    0    0  502  501  0.00000000000E+00  0.00000000000E+00  0.38902570622E+03  0.38902570622E+03  0.00000000000E+00 0.  1.
         21   -1    0    0  501  502 -0.00000000000E+00 -0.00000000000E+00 -0.17877488110E+03  0.17877488110E+03  0.00000000000E+00 0.  1.
         25    1    1    2    0    0 -0.91018584730E+01 -0.61688493867E+01 -0.11578281325E+02  0.12601569398E+03  0.12500000000E+03 0.  0.
         25    1    1    2    0    0 -0.10846352723E+03 -0.79604683967E+02  0.67813260883E+02  0.19576741506E+03  0.12500000000E+03 0.  0.
         25    1    1    2    0    0  0.11756538570E+03  0.85773533354E+02  0.15401584556E+03  0.24601747828E+03  0.12500000000E+03 0.  0.
</event>
<event>
 5    0  0.5668330E-005  0.2925221E+03  0.7546771E-02  0.1089040E+00
         21   -1    0    0  502  501  0.00000000000E+00  0.00000000000E+00  0.20947954546E+03  0.20947954546E+03  0.00000000000E+00 0.  1.
         21   -1    0    0  501  502 -0.00000000000E+00 -0.00000000000E+00 -0.40848465389E+03  0.40848465389E+03  0.00000000000E+00 0.  1.
         25    1    1    2    0    0 -0.12752300119E+03  0.15261367887E+03 -0.18017510492E+03  0.29604242812E+03  0.12500000000E+03 0.  0.
         25    1    1    2    0    0  0.62422039021E+02 -0.59115087248E+02 -0.18128063143E+02  0.15278982679E+03  0.12500000000E+03 0.  0.
         25    1    1    2    0    0  0.65100962172E+02 -0.93498591622E+02 -0.70194036953E+00  0.16913194444E+03  0.12500000000E+03 0.  0.
</event>
<event>
 5    0  0.5668330E-005  0.2673879E+03  0.7546771E-02  0.1102784E+00
         21   -1    0    0  502  501  0.00000000000E+00  0.00000000000E+00  0.73169504150E+02  0.73169504150E+02  0.00000000000E+00 0.  1.
         21   -1    0    0  501  502 -0.00000000000E+00 -0.00000000000E+00 -0.97713209157E+03  0.97713209157E+03  0.00000000000E+00 0.  1.
         25    1    1    2    0    0  0.11084735272E+03  0.10588620995E+03 -0.49176919789E+03  0.53005751486E+03  0.12500000000E+03 0.  0.
         25    1    1    2    0    0 -0.95292139983E+02 -0.16395824034E+02 -0.25369750205E+03  0.29889268565E+03  0.12500000000E+03 0.  0.
         25    1    1    2    0    0 -0.15555212742E+02 -0.89490385913E+02 -0.15849588748E+03  0.22135139521E+03  0.12500000000E+03 0.  0.
</event>
<event>
 5    0  0.5668330E-005  0.2547572E+03  0.7546771E-02  0.1110335E+00
         21   -1    0    0  502  501  0.00000000000E+00  0.00000000000E+00  0.11170778629E+04  0.11170778629E+04  0.00000000000E+00 0.  1.
         21   -1    0    0  501  502 -0.00000000000E+00 -0.00000000000E+00 -0.58099108870E+02  0.58099108870E+02  0.00000000000E+00 0.  1.
         25    1    1    2    0    0  0.39544956733E+02 -0.82628216178E+02  0.31963312671E+03  0.35522044058E+03  0.12500000000E+03 0.  0.
         25    1    1    2    0    0  0.24858154469E+01  0.52788829473E+02  0.63451919623E+03  0.64887013352E+03  0.12500000000E+03 0.  0.
         25    1    1    2    0    0 -0.42030772180E+02  0.29839386705E+02  0.10482643106E+03  0.17108639764E+03  0.12500000000E+03 0.  0.
</event>
<event>
 5    0  0.5668330E-005  0.2346208E+03  0.7546771E-02  0.1123429E+00
         21   -1    0    0  502  501  0.00000000000E+00  0.00000000000E+00  0.18038039439E+03  0.18038039439E+03  0.00000000000E+00 0.  1.
         21   -1    0    0  501  502 -0.00000000000E+00 -0.00000000000E+00 -0.30517142521E+03  0.30517142521E+03  0.00000000000E+00 0.  1.
         25    1    1    2    0    0  0.19326115444E+02  0.62725612241E+02  0.70334425129E+02  0.15773373934E+03  0.12500000000E+03 0.  0.
         25    1    1    2    0    0 -0.31220397866E+01 -0.39582379002E+02 -0.12750938039E+03  0.18292116867E+03  0.12500000000E+03 0.  0.
         25    1    1    2    0    0 -0.16204075657E+02 -0.23143233239E+02 -0.67616075558E+02  0.14489691158E+03  0.12500000000E+03 0.  0.
</event>
<event>
 5    0  0.5668330E-005  0.2809871E+03  0.7546771E-02  0.1095151E+00
         21   -1    0    0  502  501  0.00000000000E+00  0.00000000000E+00  0.12047891156E+04  0.12047891156E+04  0.00000000000E+00 0. -1.
         21   -1    0    0  501  502 -0.00000000000E+00 -0.00000000000E+00 -0.65533245089E+02  0.65533245089E+02  0.00000000000E+00 0. -1.
         25    1    1    2    0    0  0.54755011256E+02 -0.80165673416E+02  0.80277145866E+03  0.81822470097E+03  0.12500000000E+03 0.  0.
         25    1    1    2    0    0 -0.70604093606E+02  0.90907399873E+02  0.14927342473E+03  0.22617835599E+03  0.12500000000E+03 0.  0.
         25    1    1    2    0    0  0.15849082349E+02 -0.10741726457E+02  0.18721098713E+03  0.22591930374E+03  0.12500000000E+03 0.  0.
</event>
<event>
 5    0  0.5668330E-005  0.2836271E+03  0.7546771E-02  0.1093724E+00
         21   -1    0    0  502  501  0.00000000000E+00  0.00000000000E+00  0.10105447192E+03  0.10105447192E+03  0.00000000000E+00 0. -1.
         21   -1    0    0  501  502 -0.00000000000E+00 -0.00000000000E+00 -0.79604906857E+03  0.79604906857E+03  0.00000000000E+00 0. -1.
         25    1    1    2    0    0  0.58091398831E+02  0.55495066234E+02 -0.31246701679E+02  0.15184093440E+03  0.12500000000E+03 0.  0.
         25    1    1    2    0    0 -0.57498919935E+02 -0.36573127215E+02 -0.57095750672E+03  0.58843962639E+03  0.12500000000E+03 0.  0.
         25    1    1    2    0    0 -0.59247889623E+00 -0.18921939018E+02 -0.92790388254E+02  0.15682297969E+03  0.12500000000E+03 0.  0.
</event>
<event>
 5    0  0.5668330E-005  0.4033310E+03  0.7546771E-02  0.1042632E+00
         21   -1    0    0  502  501  0.00000000000E+00  0.00000000000E+00  0.14716577093E+03  0.14716577093E+03  0.00000000000E+00 0.  1.
         21   -1    0    0  501  502 -0.00000000000E+00 -0.00000000000E+00 -0.11053923840E+04  0.11053923840E+04  0.00000000000E+00 0. -1.
         25    1    1    2    0    0  0.48161155294E+02  0.81479148521E+01 -0.12968966680E+03  0.18662876271E+03  0.12500000000E+03 0.  0.
         25    1    1    2    0    0  0.27492144200E+03 -0.25629876938E+02 -0.51908107667E+03  0.60108972210E+03  0.12500000000E+03 0.  0.
         25    1    1    2    0    0 -0.32308259729E+03  0.17481962086E+02 -0.30945586957E+03  0.46483967009E+03  0.12500000000E+03 0.  0.
</event>
<event>
 5    0  0.5668330E-005  0.2920847E+03  0.7546771E-02  0.1089266E+00
         21   -1    0    0  502  501  0.00000000000E+00  0.00000000000E+00  0.77906828943E+03  0.77906828943E+03  0.00000000000E+00 0.  1.
         21   -1    0    0  501  502 -0.00000000000E+00 -0.00000000000E+00 -0.10950705153E+03  0.10950705153E+03  0.00000000000E+00 0.  1.
         25    1    1    2    0    0  0.19194733164E+02  0.11177835071E+03  0.28765767537E+03  0.33351877859E+03  0.12500000000E+03 0.  0.
         25    1    1    2    0    0 -0.28355073534E+01  0.26835352242E+02  0.33973140806E+03  0.36300221192E+03  0.12500000000E+03 0.  0.
         25    1    1    2    0    0 -0.16359225811E+02 -0.13861370295E+03  0.42172154470E+02  0.19205435045E+03  0.12500000000E+03 0.  0.
</event>
<event>
 5    0  0.7334133E-005  0.4209148E+03  0.7546771E-02  0.1036769E+00
         21   -1    0    0  502  501  0.00000000000E+00  0.00000000000E+00  0.30794779918E+03  0.30794779918E+03  0.00000000000E+00 0. -1.
         21   -1    0    0  501  502 -0.00000000000E+00 -0.00000000000E+00 -0.57532241891E+03  0.57532241891E+03  0.00000000000E+00 0. -1.
         25    1    1    2    0    0 -0.59233827537E+02 -0.67229439944E+02 -0.38173882554E+03  0.41155555499E+03  0.12500000000E+03 0.  0.
         25    1    1    2    0    0 -0.17979866524E+02  0.21442643935E+03  0.76287386216E+02  0.26028203701E+03  0.12500000000E+03 0.  0.
         25    1    1    2    0    0  0.77213694061E+02 -0.14719699941E+03  0.38076819590E+02  0.21143262609E+03  0.12500000000E+03 0.  0.
</event>
<event>
 5    0  0.5668330E-005  0.4854539E+03  0.7546771E-02  0.1017647E+00
         21   -1    0    0  502  501  0.00000000000E+00  0.00000000000E+00  0.27763339877E+03  0.27763339877E+03  0.00000000000E+00 0. -1.
         21   -1    0    0  501  502 -0.00000000000E+00 -0.00000000000E+00 -0.84883682255E+03  0.84883682255E+03  0.00000000000E+00 0. -1.
         25    1    1    2    0    0  0.17645516360E+03  0.24320129878E+02 -0.65974102583E+03  0.69470217694E+03  0.12500000000E+03 0.  0.
         25    1    1    2    0    0 -0.16400050651E+02  0.49073604033E+02  0.15509309446E+03  0.20580585080E+03  0.12500000000E+03 0.  0.
         25    1    1    2    0    0 -0.16005511295E+03 -0.73393733911E+02 -0.66555492415E+02  0.22596219358E+03  0.12500000000E+03 0.  0.
</event>
<event>
 5    0  0.5668330E-005  0.3063616E+03  0.7546771E-02  0.1082103E+00
         21   -1    0    0  502  501  0.00000000000E+00  0.00000000000E+00  0.54300037345E+03  0.54300037345E+03  0.00000000000E+00 0.  1.
         21   -1    0    0  501  502 -0.00000000000E+00 -0.00000000000E+00 -0.17284962002E+03  0.17284962002E+03  0.00000000000E+00 0.  1.
         25    1    1    2    0    0  0.39332633012E+02  0.15091074227E+03  0.24828133931E+03  0.31873144119E+03  0.12500000000E+03 0.  0.
         25    1    1    2    0    0 -0.42316353756E+01 -0.66029955339E+02  0.18222598471E+03  0.23067113223E+03  0.12500000000E+03 0.  0.
         25    1    1    2    0    0 -0.35100997637E+02 -0.84880786931E+02 -0.60356570594E+02  0.16644742004E+03  0.12500000000E+03 0.  0.
</event>
<event>
 5    0  0.5668330E-005  0.5009321E+03  0.7546771E-02  0.1013536E+00
         21   -1    0    0  502  501  0.00000000000E+00  0.00000000000E+00  0.14539214690E+03  0.14539214690E+03  0.00000000000E+00 0.  1.
         21   -1    0    0  501  502 -0.00000000000E+00 -0.00000000000E+00 -0.17259043167E+04  0.17259043167E+04  0.00000000000E+00 0.  1.
         25    1    1    2    0    0  0.17451636519E+03  0.10944223051E+03 -0.17075109325E+03  0.29532101074E+03  0.12500000000E+03 0.  0.
         25    1    1    2    0    0  0.16428857712E+03 -0.25320547617E+02 -0.10080932732E+04  0.10293244941E+04  0.12500000000E+03 0.  0.
         25    1    1    2    0    0 -0.33880494231E+03 -0.84121682893E+02 -0.40166780337E+03  0.54665095878E+03  0.12500000000E+03 0.  0.
</event>
<event>
 5    0  0.5668330E-005  0.4068610E+03  0.7546771E-02  0.1041430E+00
         21   -1    0    0  502  501  0.00000000000E+00  0.00000000000E+00  0.80739992012E+03  0.80739992012E+03  0.00000000000E+00 0. -1.
         21   -1    0    0  501  502 -0.00000000000E+00 -0.00000000000E+00 -0.20502341053E+03  0.20502341053E+03  0.00000000000E+00 0. -1.
         25    1    1    2    0    0 -0.14937271902E+03  0.21625962750E+03  0.81731293827E+02  0.30230024821E+03  0.12500000000E+03 0.  0.
         25    1    1    2    0    0  0.92350875304E+02  0.47874506761E+02  0.87919567863E+02  0.18486617587E+03  0.12500000000E+03 0.  0.
         25    1    1    2    0    0  0.57021843718E+02 -0.26413413426E+03  0.43272564791E+03  0.52525690657E+03  0.12500000000E+03 0.  0.
</event>
<event>
 5    0  0.6447181E-005  0.3100542E+03  0.7546771E-02  0.1080320E+00
         21   -1    0    0  502  501  0.00000000000E+00  0.00000000000E+00  0.66913926844E+03  0.66913926844E+03  0.00000000000E+00 0.  1.
         21   -1    0    0  501  502 -0.00000000000E+00 -0.00000000000E+00 -0.14366758203E+03  0.14366758203E+03  0.00000000000E+00 0.  1.
         25    1    1    2    0    0 -0.10187798968E+03  0.70218875510E+02  0.64708067331E+02  0.18740850898E+03  0.12500000000E+03 0.  0.
         25    1    1    2    0    0  0.14450477872E+03  0.63278279580E+01  0.66156433144E+02  0.20229519551E+03  0.12500000000E+03 0.  0.
         25    1    1    2    0    0 -0.42626789038E+02 -0.76546703468E+02  0.39460718593E+03  0.42310314599E+03  0.12500000000E+03 0.  0.
</event>
<event>
 5    0  0.5668330E-005  0.2684612E+03  0.7546771E-02  0.1102164E+00
         21   -1    0    0  502  501  0.00000000000E+00  0.00000000000E+00  0.13185478670E+03  0.13185478670E+03  0.00000000000E+00 0. -1.
         21   -1    0    0  501  502 -0.00000000000E+00 -0.00000000000E+00 -0.54659687580E+03  0.54659687580E+03  0.00000000000E+00 0. -1.
         25    1    1    2    0    0  0.15185482236E+00 -0.98002747018E+01 -0.27044215668E+03  0.29809399282E+03  0.12500000000E+03 0.  0.
         25    1    1    2    0    0 -0.21862846851E+02 -0.10958965427E+03 -0.11594159880E+03  0.20385124657E+03  0.12500000000E+03 0.  0.
         25    1    1    2    0    0  0.21710992028E+02  0.11938992897E+03 -0.28358333618E+02  0.17650642311E+03  0.12500000000E+03 0.  0.
</event>
<event>
 5    0  0.7487411E-005  0.5713513E+03  0.7546771E-02  0.9966693E-01
         21   -1    0    0  502  501  0.00000000000E+00  0.00000000000E+00  0.42177778989E+03  0.42177778989E+03  0.00000000000E+00 0.  1.
         21   -1    0    0  501  502 -0.00000000000E+00 -0.00000000000E+00 -0.77396740825E+03  0.77396740825E+03  0.00000000000E+00 0.  1.
         25    1    1    2    0    0  0.90419180285E+02 -0.55531926166E+02 -0.47696719453E+03  0.50436309108E+03  0.12500000000E+03 0.  0.
         25    1    1    2    0    0 -0.29354040998E+03  0.15438502578E+03 -0.78209355013E+02  0.36296337513E+03  0.12500000000E+03 0.  0.
         25    1    1    2    0    0  0.20312122969E+03 -0.98853099619E+02  0.20298693117E+03  0.32841873193E+03  0.12500000000E+03 0.  0.
</event>
<event>
 5    0  0.5668330E-005  0.3034764E+03  0.7546771E-02  0.1083516E+00
         21   -1    0    0  502  501  0.00000000000E+00  0.00000000000E+00  0.10049955084E+04  0.10049955084E+04  0.00000000000E+00 0. -1.
         21   -1    0    0  501  502 -0.00000000000E+00 -0.00000000000E+00 -0.91640151783E+02  0.91640151783E+02  0.00000000000E+00 0. -1.
         25    1    1    2    0    0  0.14290593639E+03  0.59604983360E+02  0.19795934976E+03  0.28069158316E+03  0.12500000000E+03 0.  0.
         25    1    1    2    0    0  0.47582434719E+02 -0.64927636854E+02  0.17608969599E+03  0.23046098836E+03  0.12500000000E+03 0.  0.
         25    1    1    2    0    0 -0.19048837111E+03  0.53226534941E+01  0.53930631083E+03  0.58548308863E+03  0.12500000000E+03 0.  0.
</event>
<event>
 5    0  0.5668330E-005  0.3653790E+03  0.7546771E-02  0.1056474E+00
         21   -1    0    0  502  501  0.00000000000E+00  0.00000000000E+00  0.58838640690E+03  0.58838640690E+03  0.00000000000E+00 0. -1.
         21   -1    0    0  501  502 -0.00000000000E+00 -0.00000000000E+00 -0.22689475599E+03  0.22689475599E+03  0.00000000000E+00 0. -1.
         25    1    1    2    0    0  0.15989264237E+03 -0.18021217676E+03  0.13342101924E+03  0.30243719036E+03  0.12500000000E+03 0.  0.
         25    1    1    2    0    0 -0.17329708125E+03  0.97747220042E+02  0.26885188236E+03  0.35706124411E+03  0.12500000000E+03 0.  0.
         25    1    1    2    0    0  0.13404438879E+02  0.82464956719E+02 -0.40781250688E+02  0.15578272843E+03  0.12500000000E+03 0.  0.
</event>
<event>
 5    0  0.5668330E-005  0.2492553E+03  0.7546771E-02  0.1113776E+00
         21   -1    0    0  502  501  0.00000000000E+00  0.00000000000E+00  0.11497405676E+04  0.11497405676E+04  0.00000000000E+00 0.  1.
         21   -1    0    0  501  502 -0.00000000000E+00 -0.00000000000E+00 -0.54036729658E+02  0.54036729658E+02  0.00000000000E+00 0.  1.
         25    1    1    2    0    0 -0.12447859354E+03 -0.15203724707E+02  0.44625393295E+03  0.48009753818E+03  0.12500000000E+03 0.  0.
         25    1    1    2    0    0  0.13424806106E+03  0.47897392159E+01  0.46973192905E+03  0.50430007800E+03  0.12500000000E+03 0.  0.
         25    1    1    2    0    0 -0.97694675196E+01  0.10413985491E+02  0.17971797590E+03  0.21937968103E+03  0.12500000000E+03 0.  0.
</event>
<event>
 5    0  0.5668330E-005  0.2962694E+03  0.7546771E-02  0.1087121E+00
         21   -1    0    0  502  501  0.00000000000E+00  0.00000000000E+00  0.10580857963E+04  0.10580857963E+04  0.00000000000E+00 0. -1.
         21   -1    0    0  501  502 -0.00000000000E+00 -0.00000000000E+00 -0.82956935958E+02  0.82956935958E+02  0.00000000000E+00 0. -1.
         25    1    1    2    0    0  0.91854879624E+01  0.52671240263E+02  0.70043460400E+02  0.15293697749E+03  0.12500000000E+03 0.  0.
         25    1    1    2    0    0  0.20629293630E+02 -0.16099374586E+03  0.65895195124E+03  0.69006320580E+03  0.12500000000E+03 0.  0.
         25    1    1    2    0    0 -0.29814781593E+02  0.10832250560E+03  0.24613344870E+03  0.29804254896E+03  0.12500000000E+03 0.  0.
</event>
<event>
 5    0  0.6010833E-005  0.3076905E+03  0.7546771E-02  0.1081458E+00
         21   -1    0    0  502  501  0.00000000000E+00  0.00000000000E+00  0.67621937208E+03  0.67621937208E+03  0.00000000000E+00 0.  1.
         21   -1    0    0  501  502 -0.00000000000E+00 -0.00000000000E+00 -0.14000406433E+03  0.14000406433E+03  0.00000000000E+00 0.  1.
         25    1    1    2    0    0  0.14006946011E+03 -0.21285018687E+02 -0.69067119093E+01  0.18906403239E+03  0.12500000000E+03 0.  0.
         25    1    1    2    0    0 -0.27863123873E+02 -0.18699824189E+02  0.31886497194E+03  0.34413065458E+03  0.12500000000E+03 0.  0.
         25    1    1    2    0    0 -0.11220633623E+03  0.39984842876E+02  0.22425704773E+03  0.28302874943E+03  0.12500000000E+03 0.  0.
</event>
<event>
 5    0  0.5668330E-005  0.2056110E+03  0.7546771E-02  0.1145090E+00
         21   -1    0    0  502  501  0.00000000000E+00  0.00000000000E+00  0.40212688004E+03  0.40212688004E+03  0.00000000000E+00 0.  1.
         21   -1    0    0  501  502 -0.00000000000E+00 -0.00000000000E+00 -0.10513067788E+03  0.10513067788E+03  0.00000000000E+00 0.  1.
         25    1    1    2    0    0  0.18725849279E+02  0.29884601941E+02  0.95272432891E+02  0.16107632766E+03  0.12500000000E+03 0.  0.
         25    1    1    2    0    0 -0.30317561721E+02  0.43624016714E+02  0.10028397822E+03  0.16883153044E+03  0.12500000000E+03 0.  0.
         25    1    1    2    0    0  0.11591712442E+02 -0.73508618655E+02  0.10143979105E+03  0.17734969981E+03  0.12500000000E+03 0.  0.
</event>
<event>
 5    0  0.5668330E-005  0.4760409E+03  0.7546771E-02  0.1020229E+00
         21   -1    0    0  502  501  0.00000000000E+00  0.00000000000E+00  0.37678288344E+03  0.37678288344E+03  0.00000000000E+00 0.  1.
         21   -1    0    0  501  502 -0.00000000000E+00 -0.00000000000E+00 -0.60144692016E+03  0.60144692016E+03  0.00000000000E+00 0.  1.
         25    1    1    2    0    0  0.92918374273E+02  0.11854183999E+03 -0.28238775902E+03  0.34358963685E+03  0.12500000000E+03 0.  0.
         25    1    1    2    0    0 -0.19338836104E+03 -0.30080298920E+03  0.90996935242E+02  0.38959843265E+03  0.12500000000E+03 0.  0.
         25    1    1    2    0    0  0.10046998676E+03  0.18226114922E+03 -0.33273212935E+02  0.24504173411E+03  0.12500000000E+03 0.  0.
</event>
<event>
 5    0  0.5668330E-005  0.5323899E+03  0.7546771E-02  0.1005654E+00
         21   -1    0    0  502  501  0.00000000000E+00  0.00000000000E+00  0.21477359586E+04  0.21477359586E+04  0.00000000000E+00 0.  1.
         21   -1    0    0  501  502 -0.00000000000E+00 -0.00000000000E+00 -0.13197108198E+03  0.13197108198E+03  0.00000000000E+00 0.  1.
         25    1    1    2    0    0  0.77171933384E+01 -0.37708617635E+02  0.17423307845E+02  0.13194721131E+03  0.12500000000E+03 0.  0.
         25    1    1    2    0    0  0.27444334510E+03  0.17848490216E+03  0.15291935871E+04  0.15688320614E+04  0.12500000000E+03 0.  0.
         25    1    1    2    0    0 -0.28216053844E+03 -0.14077628452E+03  0.46914798173E+03  0.57892776794E+03  0.12500000000E+03 0.  0.
</event>
<event>
 5    0  0.5668330E-005  0.2956646E+03  0.7546771E-02  0.1087428E+00
         21   -1    0    0  502  501  0.00000000000E+00  0.00000000000E+00  0.81758023593E+02  0.81758023593E+02  0.00000000000E+00 0. -1.
         21   -1    0    0  501  502 -0.00000000000E+00 -0.00000000000E+00 -0.10692228401E+04  0.10692228401E+04  0.00000000000E+00 0. -1.
         25    1    1    2    0    0  0.12826759772E+03 -0.23401770738E+02 -0.49303445567E+03  0.52507922638E+03  0.12500000000E+03 0.  0.
         25    1    1    2    0    0 -0.14040247833E+02 -0.68868784941E+02 -0.36892970226E+03  0.39582087276E+03  0.12500000000E+03 0.  0.
         25    1    1    2    0    0 -0.11422734989E+03  0.92270555679E+02 -0.12550065854E+03  0.23008076452E+03  0.12500000000E+03 0.  0.
</event>
<event>
 5    0  0.5668330E-005  0.4281316E+03  0.7546771E-02  0.1034452E+00
         21   -1    0    0  502  501  0.00000000000E+00  0.00000000000E+00  0.29409628227E+04  0.29409628227E+04  0.00000000000E+00 0. -1.
         21   -1    0    0  501  502 -0.00000000000E+00 -0.00000000000E+00 -0.62325382312E+02  0.62325382312E+02  0.00000000000E+00 0. -1.
         25    1    1    2    0    0  0.17428860366E+03 -0.88413594921E+02  0.95112287297E+03  0.97900623114E+03  0.12500000000E+03 0.  0.
         25    1    1    2    0    0 -0.22660194559E+03 -0.28712237518E+02  0.17596346642E+04  0.17787950938E+04  0.12500000000E+03 0.  0.
         25    1    1    2    0    0  0.52313341934E+02  0.11712583244E+03  0.16787990319E+03  0.24548688003E+03  0.12500000000E+03 0.  0.
</event>
<event>
 5    0  0.5668330E-005  0.2717987E+03  0.7546771E-02  0.1100255E+00
         21   -1    0    0  502  501  0.00000000000E+00  0.00000000000E+00  0.67820644146E+03  0.67820644146E+03  0.00000000000E+00 0. -1.
         21   -1    0    0  501  502 -0.00000000000E+00 -0.00000000000E+00 -0.10892634642E+03  0.10892634642E+03  0.00000000000E+00 0. -1.
         25    1    1    2    0    0  0.47978731439E+02  0.11060850018E+02  0.39478090633E+03  0.41701470606E+03  0.12500000000E+03 0.  0.
         25    1    1    2    0    0  0.18778583050E+02  0.27935372491E+02 -0.14980311583E+02  0.13031665263E+03  0.12500000000E+03 0.  0.
         25    1    1    2    0    0 -0.66757314489E+02 -0.38996222510E+02  0.18947950030E+03  0.23980142919E+03  0.12500000000E+03 0.  0.
</event>
<event>
 5    0  0.5668330E-005  0.2345260E+03  0.7546771E-02  0.1123494E+00
         21   -1    0    0  502  501  0.00000000000E+00  0.00000000000E+00  0.24080763571E+03  0.24080763571E+03  0.00000000000E+00 0.  1.
         21   -1    0    0  501  502 -0.00000000000E+00 -0.00000000000E+00 -0.22840814375E+03  0.22840814375E+03  0.00000000000E+00 0.  1.
         25    1    1    2    0    0 -0.54612197592E+01 -0.13288628566E+03  0.86639997128E+01  0.18272562690E+03  0.12500000000E+03 0.  0.
         25    1    1    2    0    0 -0.29430883306E+01  0.44032080049E+02  0.83953167841E+01  0.13282683157E+03  0.12500000000E+03 0.  0.
         25    1    1    2    0    0  0.84043080898E+01  0.88854205607E+02 -0.46598245394E+01  0.15366332098E+03  0.12500000000E+03 0.  0.
</event>
<event>
 5    0  0.5668330E-005  0.2424714E+03  0.7546771E-02  0.1118157E+00
         21   -1    0    0  502  501  0.00000000000E+00  0.00000000000E+00  0.16089404061E+03  0.16089404061E+03  0.00000000000E+00 0. -1.
         21   -1    0    0  501  502 -0.00000000000E+00 -0.00000000000E+00 -0.36541064235E+03  0.36541064235E+03  0.00000000000E+00 0. -1.
         25    1    1    2    0    0  0.54287248881E+01  0.56458413012E+02 -0.76034523572E+02  0.15691804303E+03  0.12500000000E+03 0.  0.
         25    1    1    2    0    0 -0.12962748027E+02  0.88691498443E+02 -0.69722111987E+02  0.16887980232E+03  0.12500000000E+03 0.  0.
         25    1    1    2    0    0  0.75340231391E+01 -0.14514991146E+03 -0.58759966185E+02  0.20050683760E+03  0.12500000000E+03 0.  0.
</event>
<event>
 5    0  0.5668330E-005  0.3659256E+03  0.7546771E-02  0.1056262E+00
         21   -1    0    0  502  501  0.00000000000E+00  0.00000000000E+00  0.53175053283E+03  0.53175053283E+03  0.00000000000E+00 0. -1.
         21   -1    0    0  501  502 -0.00000000000E+00 -0.00000000000E+00 -0.25181264883E+03  0.25181264883E+03  0.00000000000E+00 0.  1.
         25    1    1    2    0    0  0.57421322525E+02 -0.10365178027E+02  0.12050805199E+03  0.18317160203E+03  0.12500000000E+03 0.  0.
         25    1    1    2    0    0  0.16131687100E+03 -0.17265039236E+03  0.67301574637E+02  0.27565520637E+03  0.12500000000E+03 0.  0.
         25    1    1    2    0    0 -0.21873819353E+03  0.18301557039E+03  0.92128257370E+02  0.32473637326E+03  0.12500000000E+03 0.  0.
</event>
<event>
 5    0  0.5668330E-005  0.3279612E+03  0.7546771E-02  0.1072043E+00
         21   -1    0    0  502  501  0.00000000000E+00  0.00000000000E+00  0.41916456268E+02  0.41916456268E+02  0.00000000000E+00 0.  1.
         21   -1    0    0  501  502 -0.00000000000E+00 -0.00000000000E+00 -0.25660226413E+04  0.25660226413E+04  0.00000000000E+00 0.  1.
         25    1    1    2    0    0 -0.28511722089E+02 -0.43931018681E+02 -0.11505378859E+04  0.11584926757E+04  0.12500000000E+03 0.  0.
         25    1    1    2    0    0  0.14659919844E+03  0.11297781214E+03 -0.10757241866E+04  0.10986641145E+04  0.12500000000E+03 0.  0.
         25    1    1    2    0    0 -0.11808747636E+03 -0.69046793459E+02 -0.29784411255E+03  0.35078230733E+03  0.12500000000E+03 0.  0.
</event>
<event>
 5    0  0.5668330E-005  0.2918220E+03  0.7546771E-02  0.1089402E+00
         21   -1    0    0  502  501  0.00000000000E+00  0.00000000000E+00  0.10273980815E+03  0.10273980815E+03  0.00000000000E+00 0.  1.
         21   -1    0    0  501  502 -0.00000000000E+00 -0.00000000000E+00 -0.82889081963E+03  0.82889081963E+03  0.00000000000E+00 0.  1.
         25    1    1    2    0    0 -0.17895014566E+01 -0.18586049689E+03 -0.33908460608E+03  0.40638737271E+03  0.12500000000E+03 0.  0.
         25    1    1    2    0    0 -0.10919552527E+02 -0.23806476181E+01 -0.17296294722E+03  0.21369624522E+03  0.12500000000E+03 0.  0.
         25    1    1    2    0    0  0.12709053984E+02  0.18824114450E+03 -0.21410345818E+03  0.31154700984E+03  0.12500000000E+03 0.  0.
</event>
<event>
 5    0  0.5668330E-005  0.2158774E+03  0.7546771E-02  0.1136994E+00
         21   -1    0    0  502  501  0.00000000000E+00  0.00000000000E+00  0.35412640306E+02  0.35412640306E+02  0.00000000000E+00 0. -1.
         21   -1    0    0  501  502 -0.00000000000E+00 -0.00000000000E+00 -0.13160007386E+04  0.13160007386E+04  0.00000000000E+00 0. -1.
         25    1    1    2    0    0 -0.23934144110E+02  0.83770508145E+02 -0.45273856247E+03  0.47768980232E+03  0.12500000000E+03 0.  0.
         25    1    1    2    0    0  0.31872355921E+02 -0.59105202123E+02 -0.54902399748E+03  0.56706403677E+03  0.12500000000E+03 0.  0.
         25    1    1    2    0    0 -0.79382118116E+01 -0.24665306022E+02 -0.27882553831E+03  0.30665953978E+03  0.12500000000E+03 0.  0.
</event>
<event>
 5    0  0.5668330E-005  0.2218795E+03  0.7546771E-02  0.1132490E+00
         21   -1    0    0  502  501  0.00000000000E+00  0.00000000000E+00  0.10209584389E+04  0.10209584389E+04  0.00000000000E+00 0.  1.
         21   -1    0    0  501  502 -0.00000000000E+00 -0.00000000000E+00 -0.48219889179E+02  0.48219889179E+02  0.00000000000E+00 0.  1.
         25    1    1    2    0    0  0.10623851357E+02  0.57242062827E+02  0.27170094852E+03  0.30468988398E+03  0.12500000000E+03 0.  0.
         25    1    1    2    0    0 -0.36713252596E+02  0.12380139753E+02  0.49686767784E+03  0.51381282590E+03  0.12500000000E+03 0.  0.
         25    1    1    2    0    0  0.26089401239E+02 -0.69622202580E+02  0.20416992332E+03  0.25067561815E+03  0.12500000000E+03 0.  0.
</event>
<event>
 5    0  0.5668330E-005  0.3222995E+03  0.7546771E-02  0.1074596E+00
         21   -1    0    0  502  501  0.00000000000E+00  0.00000000000E+00  0.40658130934E+03  0.40658130934E+03  0.00000000000E+00 0.  1.
         21   -1    0    0  501  502 -0.00000000000E+00 -0.00000000000E+00 -0.25548877397E+03  0.25548877397E+03  0.00000000000E+00 0.  1.
         25    1    1    2    0    0 -0.10777704829E+03  0.61180071843E+02  0.16797047161E+03  0.24330633503E+03  0.12500000000E+03 0.  0.
         25    1    1    2    0    0  0.13475253728E+03 -0.11866129160E+03 -0.11545623735E+03  0.24737399049E+03  0.12500000000E+03 0.  0.
         25    1    1    2    0    0 -0.26975488989E+02  0.57481219757E+02  0.98578301105E+02  0.17138975780E+03  0.12500000000E+03 0.  0.
</event>
<event>
 5    0  0.5668330E-005  0.4040208E+03  0.7546771E-02  0.1042396E+00
         21   -1    0    0  502  501  0.00000000000E+00  0.00000000000E+00  0.23908891226E+03  0.23908891226E+03  0.00000000000E+00 0. -1.
         21   -1    0    0  501  502 -0.00000000000E+00 -0.00000000000E+00 -0.68272841919E+03  0.68272841919E+03  0.00000000000E+00 0. -1.
         25    1    1    2    0    0  0.50563704005E+02 -0.15486900769E+03 -0.31848821220E+03  0.37894701347E+03  0.12500000000E+03 0.  0.
         25    1    1    2    0    0 -0.18179454895E+03  0.24136805688E+03 -0.66981254655E+02  0.33379527466E+03  0.12500000000E+03 0.  0.
         25    1    1    2    0    0  0.13123084495E+03 -0.86499049191E+02 -0.58170040071E+02  0.20907504332E+03  0.12500000000E+03 0.  0.
</event>
<event>
 5    0  0.5668330E-005  0.2533933E+03  0.7546771E-02  0.1111179E+00
         21   -1    0    0  502  501  0.00000000000E+00  0.00000000000E+00  0.46479513611E+02  0.46479513611E+02  0.00000000000E+00 0.  1.
         21   -1    0    0  501  502 -0.00000000000E+00 -0.00000000000E+00 -0.13814297926E+04  0.13814297926E+04  0.00000000000E+00 0.  1.
         25    1    1    2    0    0 -0.33833193255E+02  0.33635974190E+00 -0.58528070492E+03  0.59943581946E+03  0.12500000000E+03 0.  0.
         25    1    1    2    0    0  0.12601421688E+03  0.54130344019E+02 -0.44611959622E+03  0.48317426580E+03  0.12500000000E+03 0.  0.
         25    1    1    2    0    0 -0.92181023623E+02 -0.54466703761E+02 -0.30354997783E+03  0.34529922093E+03  0.12500000000E+03 0.  0.
</event>
<event>
 5    0  0.5668330E-005  0.2715965E+03  0.7546771E-02  0.1100369E+00
         21   -1    0    0  502  501  0.00000000000E+00  0.00000000000E+00  0.15261623727E+04  0.15261623727E+04  0.00000000000E+00 0.  1.
         21   -1    0    0  501  502 -0.00000000000E+00 -0.00000000000E+00 -0.48333426786E+02  0.48333426786E+02  0.00000000000E+00 0. -1.
         25    1    1    2    0    0  0.36266894954E+02 -0.59359307199E+02  0.19961492848E+03  0.24558081092E+03  0.12500000000E+03 0.  0.
         25    1    1    2    0    0 -0.31673712011E+02 -0.75350399304E+02  0.84831442410E+03  0.86136128822E+03  0.12500000000E+03 0.  0.
         25    1    1    2    0    0 -0.45931829431E+01  0.13470970650E+03  0.42989959329E+03  0.46755370030E+03  0.12500000000E+03 0.  0.
</event>
<event>
 5    0  0.5852454E-005  0.2876965E+03  0.7546771E-02  0.1091558E+00
         21   -1    0    0  502  501  0.00000000000E+00  0.00000000000E+00  0.19901849423E+03  0.19901849423E+03  0.00000000000E+00 0.  1.
         21   -1    0    0  501  502 -0.00000000000E+00 -0.00000000000E+00 -0.41588739324E+03  0.41588739324E+03  0.00000000000E+00 0.  1.
         25    1    1    2    0    0  0.51520579065E+02 -0.49538714262E+02  0.76545007569E+02  0.16307235346E+03  0.12500000000E+03 0.  0.
         25    1    1    2    0    0 -0.95547669333E+02  0.10160692744E+03 -0.22821023133E+03  0.29522573482E+03  0.12500000000E+03 0.  0.
         25    1    1    2    0    0  0.44027090268E+02 -0.52068213175E+02 -0.65203675253E+02  0.15660779919E+03  0.12500000000E+03 0.  0.
</event>
<event>
 5    0  0.6067851E-005  0.2960485E+03  0.7546771E-02  0.1087233E+00
         21   -1    0    0  502  501  0.00000000000E+00  0.00000000000E+00  0.65968992820E+02  0.65968992820E+02  0.00000000000E+00 0. -1.
         21   -1    0    0  501  502 -0.00000000000E+00 -0.00000000000E+00 -0.13285740800E+04  0.13285740800E+04  0.00000000000E+00 0. -1.
         25    1    1    2    0    0  0.42212634917E+02  0.45575271683E+02 -0.11128552086E+03  0.17851744758E+03  0.12500000000E+03 0.  0.
         25    1    1    2    0    0  0.34024218786E+02  0.10473425584E+03 -0.34900060411E+03  0.38672126070E+03  0.12500000000E+03 0.  0.
         25    1    1    2    0    0 -0.76236853703E+02 -0.15030952752E+03 -0.80231896217E+03  0.82930436450E+03  0.12500000000E+03 0.  0.
</event>
<event>
 5    0  0.5668330E-005  0.2641339E+03  0.7546771E-02  0.1104685E+00
         21   -1    0    0  502  501  0.00000000000E+00  0.00000000000E+00  0.10959723864E+03  0.10959723864E+03  0.00000000000E+00 0.  1.
         21   -1    0    0  501  502 -0.00000000000E+00 -0.00000000000E+00 -0.63657377893E+03  0.63657377893E+03  0.00000000000E+00 0.  1.
         25    1    1    2    0    0  0.12146309125E+03 -0.64563625447E+02 -0.15407837289E+03  0.24142677826E+03  0.12500000000E+03 0.  0.
         25    1    1    2    0    0 -0.14989418868E+03  0.49505816447E+02 -0.16634999432E+03  0.26118272200E+03  0.12500000000E+03 0.  0.
         25    1    1    2    0    0  0.28431097425E+02  0.15057809000E+02 -0.20654817308E+03  0.24356151731E+03  0.12500000000E+03 0.  0.
</event>
<event>
 5    0  0.5668330E-005  0.3889418E+03  0.7546771E-02  0.1047677E+00
         21   -1    0    0  502  501  0.00000000000E+00  0.00000000000E+00  0.75266589777E+03  0.75266589777E+03  0.00000000000E+00 0.  1.
         21   -1    0    0  501  502 -0.00000000000E+00 -0.00000000000E+00 -0.20098658433E+03  0.20098658433E+03  0.00000000000E+00 0.  1.
         25    1    1    2    0    0 -0.69532073638E+02 -0.18613955335E+03 -0.44530252368E+02  0.23893636384E+03  0.12500000000E+03 0.  0.
         25    1    1    2    0    0 -0.79133739038E+02  0.53210548583E+02  0.27039608221E+03  0.31278195665E+03  0.12500000000E+03 0.  0.
         25    1    1    2    0    0  0.14866581268E+03  0.13292900477E+03  0.32581348361E+03  0.40193416161E+03  0.12500000000E+03 0.  0.
</event>
<event>
 5    0  0.5668330E-005  0.4086211E+03  0.7546771E-02  0.1040835E+00
         21   -1    0    0  502  501  0.00000000000E+00  0.00000000000E+00  0.29248053124E+04  0.29248053124E+04  0.00000000000E+00 0.  1.
         21   -1    0    0  501  502 -0.00000000000E+00 -0.00000000000E+00 -0.57087983406E+02  0.57087983406E+02  0.00000000000E+00 0.  1.
         25    1    1    2    0    0  0.34888664505E+02 -0.28761376209E+02  0.12269580448E+04  0.12341375448E+04  0.12500000000E+03 0.  0.
         25    1    1    2    0    0 -0.20831703236E+03 -0.37916908251E+02  0.29750944572E+03  0.38596702993E+03  0.12500000000E+03 0.  0.
         25    1    1    2    0    0  0.17342836786E+03  0.66678284460E+02  0.13432498384E+04  0.13617887211E+04  0.12500000000E+03 0.  0.
</event>
<event>
 5    0  0.5668330E-005  0.3485744E+03  0.7546771E-02  0.1063202E+00
         21   -1    0    0  502  501  0.00000000000E+00  0.00000000000E+00  0.96493436979E+02  0.96493436979E+02  0.00000000000E+00 0.  1.
         21   -1    0    0  501  502 -0.00000000000E+00 -0.00000000000E+00 -0.12591956932E+04  0.12591956932E+04  0.00000000000E+00 0.  1.
         25    1    1    2    0    0  0.36306319256E+02  0.14402448863E+03 -0.37694526275E+03  0.42399756279E+03  0.12500000000E+03 0.  0.
         25    1    1    2    0    0 -0.67293351453E+02 -0.11662300387E+03 -0.77843463220E+03  0.79982172813E+03  0.12500000000E+03 0.  0.
         25    1    1    2    0    0  0.30987032197E+02 -0.27401484760E+02 -0.73223612711E+01  0.13186983926E+03  0.12500000000E+03 0.  0.
</event>
<event>
 5    0  0.5949377E-005  0.4129701E+03  0.7546771E-02  0.1039379E+00
         21   -1    0    0  502  501  0.00000000000E+00  0.00000000000E+00  0.10090065869E+04  0.10090065869E+04  0.00000000000E+00 0. -1.
         21   -1    0    0  501  502 -0.00000000000E+00 -0.00000000000E+00 -0.16902201903E+03  0.16902201903E+03  0.00000000000E+00 0. -1.
         25    1    1    2    0    0 -0.21939199750E+03 -0.12491151433E+03  0.16833827957E+03  0.32817451355E+03  0.12500000000E+03 0.  0.
         25    1    1    2    0    0  0.87594235727E+02 -0.59459426149E+02  0.53015006780E+03  0.55488040863E+03  0.12500000000E+03 0.  0.
         25    1    1    2    0    0  0.13179776177E+03  0.18437094048E+03  0.14149622054E+03  0.29497368379E+03  0.12500000000E+03 0.  0.
</event>
<event>
 5    0  0.5668330E-005  0.2203038E+03  0.7546771E-02  0.1133657E+00
         21   -1    0    0  502  501  0.00000000000E+00  0.00000000000E+00  0.17083262121E+03  0.17083262121E+03  0.00000000000E+00 0. -1.
         21   -1    0    0  501  502 -0.00000000000E+00 -0.00000000000E+00 -0.28410133877E+03  0.28410133877E+03  0.00000000000E+00 0. -1.
         25    1    1    2    0    0 -0.79856314605E+02  0.37913373724E+02 -0.93958765320E+02  0.17963213652E+03  0.12500000000E+03 0.  0.
         25    1    1    2    0    0  0.10847166335E+02 -0.82974336447E+01 -0.29383182504E+02  0.12913125043E+03  0.12500000000E+03 0.  0.
         25    1    1    2    0    0  0.69009148270E+02 -0.29615940079E+02  0.10073230263E+02  0.14617057303E+03  0.12500000000E+03 0.  0.
</event>
<event>
 5    0  0.5668330E-005  0.3181119E+03  0.7546771E-02  0.1076522E+00
         21   -1    0    0  502  501  0.00000000000E+00  0.00000000000E+00  0.31419217757E+03  0.31419217757E+03  0.00000000000E+00 0.  1.
         21   -1    0    0  501  502 -0.00000000000E+00 -0.00000000000E+00 -0.32208056540E+03  0.32208056540E+03  0.00000000000E+00 0.  1.
         25    1    1    2    0    0  0.12026086761E+03 -0.54113155696E+02  0.75696720654E+02  0.19683979124E+03  0.12500000000E+03 0.  0.
         25    1    1    2    0    0 -0.14813146891E+03 -0.49445781169E+02 -0.16163540792E+03  0.25717469248E+03  0.12500000000E+03 0.  0.
         25    1    1    2    0    0  0.27870601306E+02  0.10355893687E+03  0.78050299436E+02  0.18225825925E+03  0.12500000000E+03 0.  0.
</event>
<event>
 5    0  0.5668330E-005  0.2384655E+03  0.7546771E-02  0.1120819E+00
         21   -1    0    0  502  501  0.00000000000E+00  0.00000000000E+00  0.19101733274E+03  0.19101733274E+03  0.00000000000E+00 0.  1.
         21   -1    0    0  501  502 -0.00000000000E+00 -0.00000000000E+00 -0.29769974506E+03  0.29769974506E+03  0.00000000000E+00 0.  1.
         25    1    1    2    0    0  0.60123991504E+02  0.47934569704E+02  0.22253563090E+02  0.14843462668E+03  0.12500000000E+03 0.  0.
         25    1    1    2    0    0  0.11845645493E+02  0.40515735827E+02 -0.10659549440E+03  0.16961557592E+03  0.12500000000E+03 0.  0.
         25    1    1    2    0    0 -0.71969636997E+02 -0.88450305531E+02 -0.22340481011E+02  0.17066687520E+03  0.12500000000E+03 0.  0.
</event>
<event>
 5    0  0.5668330E-005  0.4470618E+03  0.7546771E-02  0.1028602E+00
         21   -1    0    0  502  501  0.00000000000E+00  0.00000000000E+00  0.19140918709E+03  0.19140918709E+03  0.00000000000E+00 0. -1.
         21   -1    0    0  501  502 -0.00000000000E+00 -0.00000000000E+00 -0.10441727601E+04  0.10441727601E+04  0.00000000000E+00 0. -1.
         25    1    1    2    0    0 -0.10610415075E+03 -0.34808709281E+03 -0.45439035413E+03  0.59541440100E+03  0.12500000000E+03 0.  0.
         25    1    1    2    0    0 -0.28851498959E+02  0.13854637978E+03 -0.52659724452E+02  0.19602437328E+03  0.12500000000E+03 0.  0.
         25    1    1    2    0    0  0.13495564971E+03  0.20954071303E+03 -0.34571349440E+03  0.44414317288E+03  0.12500000000E+03 0.  0.
</event>
<event>
 5    0  0.5668330E-005  0.2734316E+03  0.7546771E-02  0.1099331E+00
         21   -1    0    0  502  501  0.00000000000E+00  0.00000000000E+00  0.10184275078E+04  0.10184275078E+04  0.00000000000E+00 0. -1.
         21   -1    0    0  501  502 -0.00000000000E+00 -0.00000000000E+00 -0.73412061587E+02  0.73412061587E+02  0.00000000000E+00 0. -1.
         25    1    1    2    0    0  0.14920250436E+03 -0.36622404218E+02  0.59660550502E+03  0.62862207758E+03  0.12500000000E+03 0.  0.
         25    1    1    2    0    0 -0.61492282501E+02  0.24781355794E+02  0.10731454254E+03  0.17758611275E+03  0.12500000000E+03 0.  0.
         25    1    1    2    0    0 -0.87710221858E+02  0.11841048424E+02  0.24109539862E+03  0.28563137902E+03  0.12500000000E+03 0.  0.
</event>
<event>
 5    0  0.5668330E-005  0.2989863E+03  0.7546771E-02  0.1085748E+00
         21   -1    0    0  502  501  0.00000000000E+00  0.00000000000E+00  0.10596239021E+03  0.10596239021E+03  0.00000000000E+00 0. -1.
         21   -1    0    0  501  502 -0.00000000000E+00 -0.00000000000E+00 -0.84362742263E+03  0.84362742263E+03  0.00000000000E+00 0. -1.
         25    1    1    2    0    0  0.12371647204E+03 -0.99963965637E+02 -0.15829261162E+03  0.25686593930E+03  0.12500000000E+03 0.  0.
         25    1    1    2    0    0 -0.20819119132E+01  0.72740890609E+02 -0.45325926862E+03  0.47577782221E+03  0.12500000000E+03 0.  0.
         25    1    1    2    0    0 -0.12163456012E+03  0.27223075028E+02 -0.12611315218E+03  0.21694605132E+03  0.12500000000E+03 0.  0.
</event>
<event>
 5    0  0.5668330E-005  0.2518772E+03  0.7546771E-02  0.1112124E+00
         21   -1    0    0  502  501  0.00000000000E+00  0.00000000000E+00  0.91401499668E+02  0.91401499668E+02  0.00000000000E+00 0. -1.
         21   -1    0    0  501  502 -0.00000000000E+00 -0.00000000000E+00 -0.69410353563E+03  0.69410353563E+03  0.00000000000E+00 0. -1.
         25    1    1    2    0    0  0.71038758079E+02  0.20034431530E+02 -0.35895782448E+03  0.38719969441E+03  0.12500000000E+03 0.  0.
         25    1    1    2    0    0 -0.60771853921E+02 -0.17167023589E+02 -0.23370116601E+03  0.27245028890E+03  0.12500000000E+03 0.  0.
         25    1    1    2    0    0 -0.10266904158E+02 -0.28674079415E+01 -0.10043045477E+02  0.12585505199E+03  0.12500000000E+03 0.  0.
</event>
<event>
 5    0  0.5668330E-005  0.3451325E+03  0.7546771E-02  0.1064631E+00
         21   -1    0    0  502  501  0.00000000000E+00  0.00000000000E+00  0.20546926257E+03  0.20546926257E+03  0.00000000000E+00 0.  1.
         21   -1    0    0  501  502 -0.00000000000E+00 -0.00000000000E+00 -0.57972868578E+03  0.57972868578E+03  0.00000000000E+00 0.  1.
         25    1    1    2    0    0 -0.23043405689E+02 -0.11153322096E+03 -0.99295132433E+02  0.19609992669E+03  0.12500000000E+03 0.  0.
         25    1    1    2    0    0  0.98995132288E+02  0.24470634219E+03 -0.25947373466E+03  0.39068254262E+03  0.12500000000E+03 0.  0.
         25    1    1    2    0    0 -0.75951726599E+02 -0.13317312124E+03 -0.15490556107E+02  0.19841547904E+03  0.12500000000E+03 0.  0.
</event>
<event>
 5    0  0.5668330E-005  0.4487956E+03  0.7546771E-02  0.1028082E+00
         21   -1    0    0  502  501  0.00000000000E+00  0.00000000000E+00  0.30529612086E+03  0.30529612086E+03  0.00000000000E+00 0. -1.
         21   -1    0    0  501  502 -0.00000000000E+00 -0.00000000000E+00 -0.65974459298E+03  0.65974459298E+03  0.00000000000E+00 0. -1.
         25    1    1    2    0    0 -0.21063760440E+03  0.18523622326E+03 -0.30878487960E+03  0.43549254950E+03  0.12500000000E+03 0.  0.
         25    1    1    2    0    0  0.56075157917E+02 -0.46448400862E+02 -0.19650769868E+03  0.24401260811E+03  0.12500000000E+03 0.  0.
         25    1    1    2    0    0  0.15456244649E+03 -0.13878782240E+03  0.15084410616E+03  0.28553555623E+03  0.12500000000E+03 0.  0.
</event>
<event>
 5    0  0.5668330E-005  0.3187261E+03  0.7546771E-02  0.1076237E+00
         21   -1    0    0  502  501  0.00000000000E+00  0.00000000000E+00  0.52509095123E+02  0.52509095123E+02  0.00000000000E+00 0. -1.
         21   -1    0    0  501  502 -0.00000000000E+00 -0.00000000000E+00 -0.19346430191E+04  0.19346430191E+04  0.00000000000E+00 0. -1.
         25    1    1    2    0    0 -0.12141178279E+03 -0.72201870077E+02 -0.43738901598E+03  0.47632770478E+03  0.12500000000E+03 0.  0.
         25    1    1    2    0    0  0.16085453087E+03 -0.44530955325E-01 -0.12432294163E+04  0.12598089393E+04  0.12500000000E+03 0.  0.
         25    1    1    2    0    0 -0.39442748084E+02  0.72246401033E+02 -0.20151549171E+03  0.25101547012E+03  0.12500000000E+03 0.  0.
</event>
<event>
 5    0  0.5668330E-005  0.3267534E+03  0.7546771E-02  0.1072582E+00
         21   -1    0    0  502  501  0.00000000000E+00  0.00000000000E+00  0.34206103707E+03  0.34206103707E+03  0.00000000000E+00 0. -1.
         21   -1    0    0  501  502 -0.00000000000E+00 -0.00000000000E+00 -0.31213086168E+03  0.31213086168E+03  0.00000000000E+00 0. -1.
         25    1    1    2    0    0  0.18964250326E+01 -0.52790244588E+01 -0.82675715252E+02  0.14997245887E+03  0.12500000000E+03 0.  0.
         25    1    1    2    0    0  0.42995529100E+02  0.20853815136E+03  0.78175012731E+02  0.25898476540E+03  0.12500000000E+03 0.  0.
         25    1    1    2    0    0 -0.44891954133E+02 -0.20325912690E+03  0.34430877903E+02  0.24523467448E+03  0.12500000000E+03 0.  0.
</event>
<event>
 5    0  0.5668330E-005  0.3184618E+03  0.7546771E-02  0.1076359E+00
         21   -1    0    0  502  501  0.00000000000E+00  0.00000000000E+00  0.23384942811E+03  0.23384942811E+03  0.00000000000E+00 0. -1.
         21   -1    0    0  501  502 -0.00000000000E+00 -0.00000000000E+00 -0.43368887042E+03  0.43368887042E+03  0.00000000000E+00 0. -1.
         25    1    1    2    0    0 -0.92184895196E+02  0.13274749891E+03  0.36318073501E+02  0.20751856744E+03  0.12500000000E+03 0.  0.
         25    1    1    2    0    0  0.11673428724E+03 -0.69935457011E+02 -0.39317267389E+00  0.18477829026E+03  0.12500000000E+03 0.  0.
         25    1    1    2    0    0 -0.24549392044E+02 -0.62812041903E+02 -0.23576434314E+03  0.27524144083E+03  0.12500000000E+03 0.  0.
</event>
<event>
 5    0  0.5668330E-005  0.3319268E+03  0.7546771E-02  0.1070287E+00
         21   -1    0    0  502  501  0.00000000000E+00  0.00000000000E+00  0.11183696704E+04  0.11183696704E+04  0.00000000000E+00 0. -1.
         21   -1    0    0  501  502 -0.00000000000E+00 -0.00000000000E+00 -0.98514317517E+02  0.98514317517E+02  0.00000000000E+00 0. -1.
         25    1    1    2    0    0 -0.26411188520E+02 -0.81077408477E+02  0.34498842009E+03  0.37671356100E+03  0.12500000000E+03 0.  0.
         25    1    1    2    0    0  0.14267700186E+03  0.14666813102E+03  0.14636079228E+03  0.28091769085E+03  0.12500000000E+03 0.  0.
         25    1    1    2    0    0 -0.11626581334E+03 -0.65590722541E+02  0.52850614054E+03  0.55925273609E+03  0.12500000000E+03 0.  0.
</event>
<event>
 5    0  0.5668330E-005  0.3644001E+03  0.7546771E-02  0.1056855E+00
         21   -1    0    0  502  501  0.00000000000E+00  0.00000000000E+00  0.52610511118E+03  0.52610511118E+03  0.00000000000E+00 0. -1.
         21   -1    0    0  501  502 -0.00000000000E+00 -0.00000000000E+00 -0.25239717976E+03  0.25239717976E+03  0.00000000000E+00 0. -1.
         25    1    1    2    0    0  0.32861013679E+02  0.54025789158E+02  0.31811926257E+03  0.34759674528E+03  0.12500000000E+03 0.  0.
         25    1    1    2    0    0  0.67372373205E+02  0.64137347424E+01  0.12553730775E+03  0.18964384594E+03  0.12500000000E+03 0.  0.
         25    1    1    2    0    0 -0.10023338688E+03 -0.60439523901E+02 -0.16994863889E+03  0.24126169973E+03  0.12500000000E+03 0.  0.
</event>
<event>
 5    0  0.5668330E-005  0.2888939E+03  0.7546771E-02  0.1090928E+00
         21   -1    0    0  502  501  0.00000000000E+00  0.00000000000E+00  0.77059693569E+03  0.77059693569E+03  0.00000000000E+00 0.  1.
         21   -1    0    0  501  502 -0.00000000000E+00 -0.00000000000E+00 -0.10830524911E+03  0.10830524911E+03  0.00000000000E+00 0.  1.
         25    1    1    2    0    0  0.11588234101E+03  0.97025196910E+02  0.23920380949E+03  0.30933164770E+03  0.12500000000E+03 0.  0.
         25    1    1    2    0    0 -0.10490251334E+03 -0.34541601599E+02  0.39196383566E+03  0.42597923425E+03  0.12500000000E+03 0.  0.
         25    1    1    2    0    0 -0.10979827672E+02 -0.62483595311E+02  0.31124041426E+02  0.14359130285E+03  0.12500000000E+03 0.  0.
</event>
<event>
 5    0  0.5668330E-005  0.2299278E+03  0.7546771E-02  0.1126691E+00
         21   -1    0    0  502  501  0.00000000000E+00  0.00000000000E+00  0.61076442411E+03  0.61076442411E+03  0.00000000000E+00 0.  1.
         21   -1    0    0  501  502 -0.00000000000E+00 -0.00000000000E+00 -0.86558426645E+02  0.86558426645E+02  0.00000000000E+00 0.  1.
         25    1    1    2    0    0  0.20293035892E+02 -0.26260401913E+02  0.24931710637E+03  0.28086551149E+03  0.12500000000E+03 0.  0.
         25    1    1    2    0    0  0.53587904256E+02  0.79021931798E+02  0.12152041702E+03  0.19876705195E+03  0.12500000000E+03 0.  0.
         25    1    1    2    0    0 -0.73880940148E+02 -0.52761529884E+02  0.15336847407E+03  0.21769028732E+03  0.12500000000E+03 0.  0.
</event>
<event>
 5    0  0.5668330E-005  0.2513488E+03  0.7546771E-02  0.1112455E+00
         21   -1    0    0  502  501  0.00000000000E+00  0.00000000000E+00  0.13491044068E+04  0.13491044068E+04  0.00000000000E+00 0. -1.
         21   -1    0    0  501  502 -0.00000000000E+00 -0.00000000000E+00 -0.46828279366E+02  0.46828279366E+02  0.00000000000E+00 0. -1.
         25    1    1    2    0    0 -0.23780959682E+02 -0.10773790430E+03  0.43384695097E+03  0.46478077298E+03  0.12500000000E+03 0.  0.
         25    1    1    2    0    0  0.73731607900E+02 -0.80940948074E+01  0.52198080945E+03  0.54184022535E+03  0.12500000000E+03 0.  0.
         25    1    1    2    0    0 -0.49950648218E+02  0.11583199911E+03  0.34644836700E+03  0.38931168782E+03  0.12500000000E+03 0.  0.
</event>
<event>
 5    0  0.5668330E-005  0.3310718E+03  0.7546771E-02  0.1070664E+00
         21   -1    0    0  502  501  0.00000000000E+00  0.00000000000E+00  0.23221324362E+03  0.23221324362E+03  0.00000000000E+00 0.  1.
         21   -1    0    0  501  502 -0.00000000000E+00 -0.00000000000E+00 -0.47201678403E+03  0.47201678403E+03  0.00000000000E+00 0.  1.
         25    1    1    2    0    0 -0.12996793838E+03  0.86966462997E+02 -0.38993648052E+02  0.20396160247E+03  0.12500000000E+03 0.  0.
         25    1    1    2    0    0 -0.39384123496E+02  0.81479497648E+02 -0.16891857302E+03  0.22879795024E+03  0.12500000000E+03 0.  0.
         25    1    1    2    0    0  0.16935206188E+03 -0.16844596065E+03 -0.31891319332E+02  0.27147047495E+03  0.12500000000E+03 0.  0.
</event>
<event>
 5    0  0.5668330E-005  0.6634371E+03  0.7546771E-02  0.9781887E-01
         21   -1    0    0  502  501  0.00000000000E+00  0.00000000000E+00  0.79400056858E+03  0.79400056858E+03  0.00000000000E+00 0.  1.
         21   -1    0    0  501  502 -0.00000000000E+00 -0.00000000000E+00 -0.55434312555E+03  0.55434312555E+03  0.00000000000E+00 0.  1.
         25    1    1    2    0    0  0.21026619539E+03 -0.46441118108E+03 -0.16978950615E+03  0.55167299593E+03  0.12500000000E+03 0.  0.
         25    1    1    2    0    0 -0.21599276920E+03  0.45208204761E+03  0.20281260757E+03  0.55478735377E+03  0.12500000000E+03 0.  0.
         25    1    1    2    0    0  0.57265738095E+01  0.12329133474E+02  0.20663434161E+03  0.24188334443E+03  0.12500000000E+03 0.  0.
</event>
<event>
 5    0  0.5668330E-005  0.2862492E+03  0.7546771E-02  0.1092324E+00
         21   -1    0    0  502  501  0.00000000000E+00  0.00000000000E+00  0.10592409252E+04  0.10592409252E+04  0.00000000000E+00 0. -1.
         21   -1    0    0  501  502 -0.00000000000E+00 -0.00000000000E+00 -0.77355949283E+02  0.77355949283E+02  0.00000000000E+00 0. -1.
         25    1    1    2    0    0  0.42269621204E+01  0.45155971454E+01  0.21985231535E+03  0.25297884969E+03  0.12500000000E+03 0.  0.
         25    1    1    2    0    0 -0.51177972120E+01 -0.18522395352E+03  0.44364006264E+03  0.49676514570E+03  0.12500000000E+03 0.  0.
         25    1    1    2    0    0  0.89083509162E+00  0.18070835637E+03  0.31839259796E+03  0.38685287912E+03  0.12500000000E+03 0.  0.
</event>
<event>
 5    0  0.5668330E-005  0.3690913E+03  0.7546771E-02  0.1055041E+00
         21   -1    0    0  502  501  0.00000000000E+00  0.00000000000E+00  0.93885579461E+02  0.93885579461E+02  0.00000000000E+00 0.  1.
         21   -1    0    0  501  502 -0.00000000000E+00 -0.00000000000E+00 -0.14510046364E+04  0.14510046364E+04  0.00000000000E+00 0.  1.
         25    1    1    2    0    0 -0.10857892195E+03  0.43885245971E+02 -0.22028343891E+03  0.27904316971E+03  0.12500000000E+03 0.  0.
         25    1    1    2    0    0 -0.15745739149E+03  0.84180357648E+02 -0.30938207388E+03  0.37844607329E+03  0.12500000000E+03 0.  0.
         25    1    1    2    0    0  0.26603631344E+03 -0.12806560362E+03 -0.82745354410E+03  0.88740097281E+03  0.12500000000E+03 0.  0.
</event>
<event>
 5    0  0.5668330E-005  0.3274936E+03  0.7546771E-02  0.1072251E+00
         21   -1    0    0  502  501  0.00000000000E+00  0.00000000000E+00  0.10661141103E+03  0.10661141103E+03  0.00000000000E+00 0. -1.
         21   -1    0    0  501  502 -0.00000000000E+00 -0.00000000000E+00 -0.10060094319E+04  0.10060094319E+04  0.00000000000E+00 0. -1.
         25    1    1    2    0    0 -0.11403573064E+02 -0.11018927711E+03 -0.31847165094E+03  0.35961216709E+03  0.12500000000E+03 0.  0.
         25    1    1    2    0    0  0.20225137710E+03  0.47888009494E+02 -0.30100779876E+03  0.38656121884E+03  0.12500000000E+03 0.  0.
         25    1    1    2    0    0 -0.19084780404E+03  0.62301267611E+02 -0.27991857112E+03  0.36644745696E+03  0.12500000000E+03 0.  0.
</event>
<event>
 5    0  0.5668330E-005  0.2113022E+03  0.7546771E-02  0.1140539E+00
         21   -1    0    0  502  501  0.00000000000E+00  0.00000000000E+00  0.14705690909E+03  0.14705690909E+03  0.00000000000E+00 0.  1.
         21   -1    0    0  501  502 -0.00000000000E+00 -0.00000000000E+00 -0.30361453680E+03  0.30361453680E+03  0.00000000000E+00 0.  1.
         25    1    1    2    0    0  0.47158256883E+02 -0.21456213883E+02 -0.18983815474E+02  0.13663694799E+03  0.12500000000E+03 0.  0.
         25    1    1    2    0    0  0.30098280950E+02 -0.17079810169E+02 -0.74226347742E+02  0.14943954340E+03  0.12500000000E+03 0.  0.
         25    1    1    2    0    0 -0.77256537833E+02  0.38536024052E+02 -0.63347464495E+02  0.16459495450E+03  0.12500000000E+03 0.  0.
</event>
<event>
 5    0  0.5668330E-005  0.4833869E+03  0.7546771E-02  0.1018208E+00
         21   -1    0    0  502  501  0.00000000000E+00  0.00000000000E+00  0.85180740646E+03  0.85180740646E+03  0.00000000000E+00 0. -1.
         21   -1    0    0  501  502 -0.00000000000E+00 -0.00000000000E+00 -0.27431427835E+03  0.27431427835E+03  0.00000000000E+00 0. -1.
         25    1    1    2    0    0 -0.91713456100E+02 -0.22972965891E+03  0.17603345074E+03  0.32832887475E+03  0.12500000000E+03 0.  0.
         25    1    1    2    0    0 -0.18993120352E+03  0.47374952318E+02  0.37197208481E+03  0.43852762747E+03  0.12500000000E+03 0.  0.
         25    1    1    2    0    0  0.28164465962E+03  0.18235470660E+03  0.29487592562E+02  0.35926518259E+03  0.12500000000E+03 0.  0.
</event>
<event>
 5    0  0.5668330E-005  0.2884828E+03  0.7546771E-02  0.1091144E+00
         21   -1    0    0  502  501  0.00000000000E+00  0.00000000000E+00  0.56144722656E+03  0.56144722656E+03  0.00000000000E+00 0.  1.
         21   -1    0    0  501  502 -0.00000000000E+00 -0.00000000000E+00 -0.14822818837E+03  0.14822818837E+03  0.00000000000E+00 0.  1.
         25    1    1    2    0    0  0.10767671424E+03  0.11199357525E+03  0.21448067398E+03  0.29285456322E+03  0.12500000000E+03 0.  0.
         25    1    1    2    0    0 -0.96485839240E+02 -0.14498748812E+03  0.19051529342E+03  0.28679603538E+03  0.12500000000E+03 0.  0.
         25    1    1    2    0    0 -0.11190875004E+02  0.32993912865E+02  0.82230707976E+01  0.13002481633E+03  0.12500000000E+03 0.  0.
</event>
<event>
 5    0  0.5668330E-005  0.2728989E+03  0.7546771E-02  0.1099632E+00
         21   -1    0    0  502  501  0.00000000000E+00  0.00000000000E+00  0.15195526395E+04  0.15195526395E+04  0.00000000000E+00 0. -1.
         21   -1    0    0  501  502 -0.00000000000E+00 -0.00000000000E+00 -0.49010336883E+02  0.49010336883E+02  0.00000000000E+00 0. -1.
         25    1    1    2    0    0 -0.61419091940E+02  0.96033732727E+02  0.34426188648E+03  0.38358314504E+03  0.12500000000E+03 0.  0.
         25    1    1    2    0    0  0.13439583682E+03 -0.84272580776E+02  0.44939222801E+03  0.49268903319E+03  0.12500000000E+03 0.  0.
         25    1    1    2    0    0 -0.72976744881E+02 -0.11761151952E+02  0.67688818814E+03  0.69229079817E+03  0.12500000000E+03 0.  0.
</event>
<event>
 5    0  0.5668330E-005  0.2359180E+03  0.7546771E-02  0.1122542E+00
         21   -1    0    0  502  501  0.00000000000E+00  0.00000000000E+00  0.96177272056E+02  0.96177272056E+02  0.00000000000E+00 0. -1.
         21   -1    0    0  501  502 -0.00000000000E+00 -0.00000000000E+00 -0.57869474337E+03  0.57869474337E+03  0.00000000000E+00 0. -1.
         25    1    1    2    0    0  0.95636915399E+02  0.26610586184E+01 -0.26123650821E+03  0.30499674431E+03  0.12500000000E+03 0.  0.
         25    1    1    2    0    0 -0.52403118015E+02 -0.70569767506E+01 -0.32896774130E+02  0.13965344767E+03  0.12500000000E+03 0.  0.
         25    1    1    2    0    0 -0.43233797385E+02  0.43959181322E+01 -0.18838418898E+03  0.23022182344E+03  0.12500000000E+03 0.  0.
</event>
<event>
 5    0  0.5668330E-005  0.4692060E+03  0.7546771E-02  0.1022145E+00
         21   -1    0    0  502  501  0.00000000000E+00  0.00000000000E+00  0.10955127806E+04  0.10955127806E+04  0.00000000000E+00 0. -1.
         21   -1    0    0  501  502 -0.00000000000E+00 -0.00000000000E+00 -0.20096003044E+03  0.20096003044E+03  0.00000000000E+00 0. -1.
         25    1    1    2    0    0  0.28405482759E+03 -0.12955945800E+03  0.47653988983E+03  0.58325643146E+03  0.12500000000E+03 0.  0.
         25    1    1    2    0    0 -0.33025667949E+03  0.21528966585E+03  0.34573429500E+03  0.53905131231E+03  0.12500000000E+03 0.  0.
         25    1    1    2    0    0  0.46201851897E+02 -0.85730207847E+02  0.72278565357E+02  0.17416506730E+03  0.12500000000E+03 0.  0.
</event>
<event>
 5    0  0.5993851E-005  0.2730661E+03  0.7546771E-02  0.1099538E+00
         21   -1    0    0  502  501  0.00000000000E+00  0.00000000000E+00  0.44640614483E+02  0.44640614483E+02  0.00000000000E+00 0. -1.
         21   -1    0    0  501  502 -0.00000000000E+00 -0.00000000000E+00 -0.16703420705E+04  0.16703420705E+04  0.00000000000E+00 0. -1.
         25    1    1    2    0    0  0.52106901842E+02 -0.39235050030E+02 -0.22405585471E+03  0.26472730196E+03  0.12500000000E+03 0.  0.
         25    1    1    2    0    0 -0.41854589106E+02 -0.85825294891E+02 -0.34896307481E+03  0.38277671749E+03  0.12500000000E+03 0.  0.
         25    1    1    2    0    0 -0.10252312736E+02  0.12506034492E+03 -0.10526825265E+04  0.10674786656E+04  0.12500000000E+03 0.  0.
</event>
<event>
 5    0  0.5668330E-005  0.2791664E+03  0.7546771E-02  0.1096145E+00
         21   -1    0    0  502  501  0.00000000000E+00  0.00000000000E+00  0.28331654617E+03  0.28331654617E+03  0.00000000000E+00 0. -1.
         21   -1    0    0  501  502 -0.00000000000E+00 -0.00000000000E+00 -0.27507713273E+03  0.27507713273E+03  0.00000000000E+00 0. -1.
         25    1    1    2    0    0  0.10620968087E+03  0.33460027716E+02  0.13779342525E+03  0.21682273361E+03  0.12500000000E+03 0.  0.
         25    1    1    2    0    0 -0.74225165041E+02  0.43019238366E+02 -0.11614304664E+03  0.19098229572E+03  0.12500000000E+03 0.  0.
         25    1    1    2    0    0 -0.31984515832E+02 -0.76479266082E+02 -0.13410965171E+02  0.15058864957E+03  0.12500000000E+03 0.  0.
</event>
<event>
 5    0  0.5668330E-005  0.5521468E+03  0.7546771E-02  0.1000998E+00
         21   -1    0    0  502  501  0.00000000000E+00  0.00000000000E+00  0.15442226913E+04  0.15442226913E+04  0.00000000000E+00 0.  1.
         21   -1    0    0  501  502 -0.00000000000E+00 -0.00000000000E+00 -0.19742362837E+03  0.19742362837E+03  0.00000000000E+00 0.  1.
         25    1    1    2    0    0 -0.30234443204E+03  0.22435308890E+03  0.20968498527E+03  0.44870843221E+03  0.12500000000E+03 0.  0.
         25    1    1    2    0    0  0.21366569918E+03 -0.25024418137E+03  0.37176931401E+03  0.51196933908E+03  0.12500000000E+03 0.  0.
         25    1    1    2    0    0  0.88678732855E+02  0.25891092470E+02  0.76534476362E+03  0.78096854836E+03  0.12500000000E+03 0.  0.
</event>
<event>
 5    0  0.5668330E-005  0.3204237E+03  0.7546771E-02  0.1075454E+00
         21   -1    0    0  502  501  0.00000000000E+00  0.00000000000E+00  0.82363416737E+02  0.82363416737E+02  0.00000000000E+00 0. -1.
         21   -1    0    0  501  502 -0.00000000000E+00 -0.00000000000E+00 -0.12465651514E+04  0.12465651514E+04  0.00000000000E+00 0. -1.
         25    1    1    2    0    0 -0.16003651975E+03  0.71545418504E+02 -0.32521731211E+03  0.39002786395E+03  0.12500000000E+03 0.  0.
         25    1    1    2    0    0  0.14125316615E+03  0.95956676995E+02 -0.42320187716E+03  0.47316484405E+03  0.12500000000E+03 0.  0.
         25    1    1    2    0    0  0.18783353600E+02 -0.16750209550E+03 -0.41578254543E+03  0.46573586017E+03  0.12500000000E+03 0.  0.
</event>
<event>
 5    0  0.6460655E-005  0.3083130E+03  0.7546771E-02  0.1081157E+00
         21   -1    0    0  502  501  0.00000000000E+00  0.00000000000E+00  0.74413851609E+03  0.74413851609E+03  0.00000000000E+00 0. -1.
         21   -1    0    0  501  502 -0.00000000000E+00 -0.00000000000E+00 -0.12774087395E+03  0.12774087395E+03  0.00000000000E+00 0. -1.
         25    1    1    2    0    0  0.15519524315E+03  0.12669401834E+03  0.39011986961E+03  0.45602132675E+03  0.12500000000E+03 0.  0.
         25    1    1    2    0    0 -0.11510893588E+03 -0.70086296661E+02  0.19793243292E+03  0.27011924052E+03  0.12500000000E+03 0.  0.
         25    1    1    2    0    0 -0.40086307276E+02 -0.56607721680E+02  0.28345339613E+02  0.14573882277E+03  0.12500000000E+03 0.  0.
</event>
<event>
 5    0  0.6409555E-005  0.4340646E+03  0.7546771E-02  0.1032584E+00
         21   -1    0    0  502  501  0.00000000000E+00  0.00000000000E+00  0.25332983416E+03  0.25332983416E+03  0.00000000000E+00 0. -1.
         21   -1    0    0  501  502 -0.00000000000E+00 -0.00000000000E+00 -0.74374198699E+03  0.74374198699E+03  0.00000000000E+00 0. -1.
         25    1    1    2    0    0  0.30888147311E+03 -0.11306768242E+03 -0.16139597143E+03  0.38712494732E+03  0.12500000000E+03 0.  0.
         25    1    1    2    0    0 -0.19481513148E+03 -0.20297073555E+02 -0.31847788616E+03  0.39423098638E+03  0.12500000000E+03 0.  0.
         25    1    1    2    0    0 -0.11406634163E+03  0.13336475598E+03 -0.10538295246E+02  0.21571588745E+03  0.12500000000E+03 0.  0.
</event>
<event>
 5    0  0.5668330E-005  0.3519480E+03  0.7546771E-02  0.1061818E+00
         21   -1    0    0  502  501  0.00000000000E+00  0.00000000000E+00  0.10930415940E+03  0.10930415940E+03  0.00000000000E+00 0. -1.
         21   -1    0    0  501  502 -0.00000000000E+00 -0.00000000000E+00 -0.11332361271E+04  0.11332361271E+04  0.00000000000E+00 0. -1.
         25    1    1    2    0    0 -0.98934384430E+02  0.92458973314E+02 -0.15276877207E+02  0.18491905566E+03  0.12500000000E+03 0.  0.
         25    1    1    2    0    0  0.93123070808E+02 -0.10963089176E+03 -0.65094312144E+03  0.67826453990E+03  0.12500000000E+03 0.  0.
         25    1    1    2    0    0  0.58113136226E+01  0.17171918447E+02 -0.35771196909E+03  0.37935669096E+03  0.12500000000E+03 0.  0.
</event>
<event>
 5    0  0.5668330E-005  0.2554105E+03  0.7546771E-02  0.1109932E+00
         21   -1    0    0  502  501  0.00000000000E+00  0.00000000000E+00  0.51340761135E+02  0.51340761135E+02  0.00000000000E+00 0. -1.
         21   -1    0    0  501  502 -0.00000000000E+00 -0.00000000000E+00 -0.12706188817E+04  0.12706188817E+04  0.00000000000E+00 0. -1.
         25    1    1    2    0    0 -0.31793999254E+02 -0.59497509379E+02 -0.18481672236E+03  0.23309447200E+03  0.12500000000E+03 0.  0.
         25    1    1    2    0    0  0.44733277768E+02  0.49270042534E+02 -0.20073291737E+03  0.24565688948E+03  0.12500000000E+03 0.  0.
         25    1    1    2    0    0 -0.12939278513E+02  0.10227466845E+02 -0.83372848081E+03  0.84320828134E+03  0.12500000000E+03 0.  0.
</event>
<event>
 5    0  0.8768935E-005  0.2798104E+03  0.7546771E-02  0.1095793E+00
         21   -1    0    0  502  501  0.00000000000E+00  0.00000000000E+00  0.24103336586E+03  0.24103336586E+03  0.00000000000E+00 0.  1.
         21   -1    0    0  501  502 -0.00000000000E+00 -0.00000000000E+00 -0.32482583102E+03  0.32482583102E+03  0.00000000000E+00 0.  1.
         25    1    1    2    0    0 -0.47586221741E+02  0.38663806651E+02 -0.98289381617E+02  0.17042635061E+03  0.12500000000E+03 0.  0.
         25    1    1    2    0    0 -0.51843052679E+02 -0.80991303852E+02  0.12105929478E+03  0.19881560870E+03  0.12500000000E+03 0.  0.
         25    1    1    2    0    0  0.99429274420E+02  0.42327497202E+02 -0.10656237832E+03  0.19661723756E+03  0.12500000000E+03 0.  0.
</event>
<event>
 5    0  0.5668330E-005  0.2387406E+03  0.7546771E-02  0.1120635E+00
         21   -1    0    0  502  501  0.00000000000E+00  0.00000000000E+00  0.85273531295E+02  0.85273531295E+02  0.00000000000E+00 0.  1.
         21   -1    0    0  501  502 -0.00000000000E+00 -0.00000000000E+00 -0.66840290490E+03  0.66840290490E+03  0.00000000000E+00 0.  1.
         25    1    1    2    0    0  0.11478373066E+02  0.94695863434E+02 -0.21004633981E+03  0.26238049559E+03  0.12500000000E+03 0.  0.
         25    1    1    2    0    0 -0.14010156842E+02 -0.62267624807E+02 -0.32405117758E+03  0.35313978434E+03  0.12500000000E+03 0.  0.
         25    1    1    2    0    0  0.25317837752E+01 -0.32428238627E+02 -0.49031856218E+02  0.13815615626E+03  0.12500000000E+03 0.  0.
</event>
<event>
 5    0  0.5668330E-005  0.3791869E+03  0.7546771E-02  0.1051235E+00
         21   -1    0    0  502  501  0.00000000000E+00  0.00000000000E+00  0.36585841321E+02  0.36585841321E+02  0.00000000000E+00 0. -1.
         21   -1    0    0  501  502 -0.00000000000E+00 -0.00000000000E+00 -0.39300098780E+04  0.39300098780E+04  0.00000000000E+00 0. -1.
         25    1    1    2    0    0 -0.13569537041E+03 -0.18313457496E+03 -0.18235718659E+04  0.18420072900E+04  0.12500000000E+03 0.  0.
         25    1    1    2    0    0  0.20459726846E+03 -0.71695363101E+01 -0.11204408033E+04  0.11458289743E+04  0.12500000000E+03 0.  0.
         25    1    1    2    0    0 -0.68901898054E+02  0.19030411127E+03 -0.94941136746E+03  0.97875945512E+03  0.12500000000E+03 0.  0.
</event>
<event>
 5    0  0.5668330E-005  0.3587715E+03  0.7546771E-02  0.1059071E+00
         21   -1    0    0  502  501  0.00000000000E+00  0.00000000000E+00  0.45305024912E+03  0.45305024912E+03  0.00000000000E+00 0.  1.
         21   -1    0    0  501  502 -0.00000000000E+00 -0.00000000000E+00 -0.28411201313E+03  0.28411201313E+03  0.00000000000E+00 0.  1.
         25    1    1    2    0    0 -0.59185445678E+02  0.10472866576E+03  0.11375576057E+02  0.17385457757E+03  0.12500000000E+03 0.  0.
         25    1    1    2    0    0  0.23852250371E+03 -0.60654451160E+01 -0.11933111514E+02  0.26962413384E+03  0.12500000000E+03 0.  0.
         25    1    1    2    0    0 -0.17933705803E+03 -0.98663220645E+02  0.16949577145E+03  0.29368355083E+03  0.12500000000E+03 0.  0.
</event>
<event>
 5    0  0.5668330E-005  0.2540271E+03  0.7546771E-02  0.1110786E+00
         21   -1    0    0  502  501  0.00000000000E+00  0.00000000000E+00  0.22017840298E+04  0.22017840298E+04  0.00000000000E+00 0. -1.
         21   -1    0    0  501  502 -0.00000000000E+00 -0.00000000000E+00 -0.29307938905E+02  0.29307938905E+02  0.00000000000E+00 0. -1.
         25    1    1    2    0    0 -0.10006021038E+03  0.57148655831E+02  0.88743648820E+03  0.90357431080E+03  0.12500000000E+03 0.  0.
         25    1    1    2    0    0  0.99386068498E+02  0.23279122976E+02  0.42266964593E+03  0.45243136250E+03  0.12500000000E+03 0.  0.
         25    1    1    2    0    0  0.67414187961E+00 -0.80427778807E+02  0.86236995681E+03  0.87508629544E+03  0.12500000000E+03 0.  0.
</event>
<event>
 5    0  0.5668330E-005  0.3172208E+03  0.7546771E-02  0.1076936E+00
         21   -1    0    0  502  501  0.00000000000E+00  0.00000000000E+00  0.51231596248E+03  0.51231596248E+03  0.00000000000E+00 0. -1.
         21   -1    0    0  501  502 -0.00000000000E+00 -0.00000000000E+00 -0.19641988525E+03  0.19641988525E+03  0.00000000000E+00 0. -1.
         25    1    1    2    0    0  0.43127474500E+02  0.78714413376E+02 -0.48921182936E+02  0.16147513762E+03  0.12500000000E+03 0.  0.
         25    1    1    2    0    0 -0.15707540962E+02 -0.15852309587E+03  0.66744623025E+02  0.21320446400E+03  0.12500000000E+03 0.  0.
         25    1    1    2    0    0 -0.27419933539E+02  0.79808682489E+02  0.29807263714E+03  0.33405624611E+03  0.12500000000E+03 0.  0.
</event>
<event>
 5    0  0.5668330E-005  0.3344205E+03  0.7546771E-02  0.1069198E+00
         21   -1    0    0  502  501  0.00000000000E+00  0.00000000000E+00  0.15919319525E+03  0.15919319525E+03  0.00000000000E+00 0.  1.
         21   -1    0    0  501  502 -0.00000000000E+00 -0.00000000000E+00 -0.70252419873E+03  0.70252419873E+03  0.00000000000E+00 0.  1.
         25    1    1    2    0    0 -0.11005294303E+03 -0.18094670270E+02  0.53978498186E+02  0.17600495910E+03  0.12500000000E+03 0.  0.
         25    1    1    2    0    0  0.50234176248E+02 -0.61351433747E+02 -0.42831748064E+03  0.45317583244E+03  0.12500000000E+03 0.  0.
         25    1    1    2    0    0  0.59818766780E+02  0.79446104017E+02 -0.16899202103E+03  0.23253660244E+03  0.12500000000E+03 0.  0.
</event>
<event>
 5    0  0.5668330E-005  0.2885147E+03  0.7546771E-02  0.1091127E+00
         21   -1    0    0  502  501  0.00000000000E+00  0.00000000000E+00  0.75447968742E+02  0.75447968742E+02  0.00000000000E+00 0. -1.
         21   -1    0    0  501  502 -0.00000000000E+00 -0.00000000000E+00 -0.11032868025E+04  0.11032868025E+04  0.00000000000E+00 0. -1.
         25    1    1    2    0    0 -0.29285383785E+02 -0.11059963309E+02 -0.38476292728E+03  0.40576774971E+03  0.12500000000E+03 0.  0.
         25    1    1    2    0    0  0.47960883440E+02 -0.14282571569E+03 -0.16846515776E+03  0.25827299662E+03  0.12500000000E+03 0.  0.
         25    1    1    2    0    0 -0.18675499656E+02  0.15388567900E+03 -0.47461074871E+03  0.51469402491E+03  0.12500000000E+03 0.  0.
</event>
<event>
 5    0  0.5668330E-005  0.3170673E+03  0.7546771E-02  0.1077007E+00
         21   -1    0    0  502  501  0.00000000000E+00  0.00000000000E+00  0.54240167940E+03  0.54240167940E+03  0.00000000000E+00 0.  1.
         21   -1    0    0  501  502 -0.00000000000E+00 -0.00000000000E+00 -0.18534544954E+03  0.18534544954E+03  0.00000000000E+00 0.  1.
         25    1    1    2    0    0  0.13537558687E+03  0.33528462695E+02  0.61047935821E+02  0.19698364856E+03  0.12500000000E+03 0.  0.
         25    1    1    2    0    0 -0.91100273256E+02 -0.17351626841E+03  0.22986152525E+03  0.32690744253E+03  0.12500000000E+03 0.  0.
         25    1    1    2    0    0 -0.44275313617E+02  0.13998780572E+03  0.66146768788E+02  0.20385603785E+03  0.12500000000E+03 0.  0.
</event>
<event>
 5    0  0.5668330E-005  0.2639435E+03  0.7546771E-02  0.1104797E+00
         21   -1    0    0  502  501  0.00000000000E+00  0.00000000000E+00  0.61944541930E+02  0.61944541930E+02  0.00000000000E+00 0. -1.
         21   -1    0    0  501  502 -0.00000000000E+00 -0.00000000000E+00 -0.11246536130E+04  0.11246536130E+04  0.00000000000E+00 0. -1.
         25    1    1    2    0    0  0.14636636562E+03  0.32333292836E+02 -0.34426212692E+03  0.39573977162E+03  0.12500000000E+03 0.  0.
         25    1    1    2    0    0  0.71013118636E+00 -0.45601212378E+02 -0.35510068295E+03  0.37921164261E+03  0.12500000000E+03 0.  0.
         25    1    1    2    0    0 -0.14707649681E+03  0.13267919542E+02 -0.36334626118E+03  0.41164674068E+03  0.12500000000E+03 0.  0.
</event>
<event>
 5    0  0.5668330E-005  0.2497958E+03  0.7546771E-02  0.1113434E+00
         21   -1    0    0  502  501  0.00000000000E+00  0.00000000000E+00  0.31918010404E+03  0.31918010404E+03  0.00000000000E+00 0. -1.
         21   -1    0    0  501  502 -0.00000000000E+00 -0.00000000000E+00 -0.19549447662E+03  0.19549447662E+03  0.00000000000E+00 0. -1.
         25    1    1    2    0    0  0.76891370951E+02 -0.92101702870E+02  0.10708950524E+03  0.20368644710E+03  0.12500000000E+03 0.  0.
         25    1    1    2    0    0 -0.38301078313E+02 -0.22167571386E+02  0.32604900852E+02  0.13655201712E+03  0.12500000000E+03 0.  0.
         25    1    1    2    0    0 -0.38590292638E+02  0.11426927426E+03 -0.16008778672E+02  0.17443611644E+03  0.12500000000E+03 0.  0.
</event>
<event>
 5    0  0.5969727E-005  0.2857224E+03  0.7546771E-02  0.1092604E+00
         21   -1    0    0  502  501  0.00000000000E+00  0.00000000000E+00  0.48725186938E+03  0.48725186938E+03  0.00000000000E+00 0.  1.
         21   -1    0    0  501  502 -0.00000000000E+00 -0.00000000000E+00 -0.16754640052E+03  0.16754640052E+03  0.00000000000E+00 0.  1.
         25    1    1    2    0    0 -0.16915769205E+03  0.64545008547E+02  0.74452639801E+02  0.23226833293E+03  0.12500000000E+03 0.  0.
         25    1    1    2    0    0  0.30933835300E+02 -0.53337595205E+01  0.16925518009E+03  0.21273849474E+03  0.12500000000E+03 0.  0.
         25    1    1    2    0    0  0.13822385675E+03 -0.59211249027E+02  0.75997648968E+02  0.20979144223E+03  0.12500000000E+03 0.  0.
</event>
<event>
 5    0  0.6292878E-005  0.2984613E+03  0.7546771E-02  0.1086012E+00
         21   -1    0    0  502  501  0.00000000000E+00  0.00000000000E+00  0.46201773754E+03  0.46201773754E+03  0.00000000000E+00 0. -1.
         21   -1    0    0  501  502 -0.00000000000E+00 -0.00000000000E+00 -0.19280459562E+03  0.19280459562E+03  0.00000000000E+00 0. -1.
         25    1    1    2    0    0 -0.49407984680E+02 -0.11898839708E+02  0.52183768591E+02  0.14467507401E+03  0.12500000000E+03 0.  0.
         25    1    1    2    0    0 -0.14477116376E+03  0.44949988205E+01 -0.26361949136E+01  0.19133960488E+03  0.12500000000E+03 0.  0.
         25    1    1    2    0    0  0.19417914844E+03  0.74038408878E+01  0.21966556824E+03  0.31880765427E+03  0.12500000000E+03 0.  0.
</event>
<event>
 5    0  0.5668330E-005  0.2421287E+03  0.7546771E-02  0.1118383E+00
         21   -1    0    0  502  501  0.00000000000E+00  0.00000000000E+00  0.79948156216E+03  0.79948156216E+03  0.00000000000E+00 0.  1.
         21   -1    0    0  501  502 -0.00000000000E+00 -0.00000000000E+00 -0.73330385498E+02  0.73330385498E+02  0.00000000000E+00 0.  1.
         25    1    1    2    0    0  0.67099894719E+02 -0.86715892091E+02  0.40675454893E+03  0.43942724641E+03  0.12500000000E+03 0.  0.
         25    1    1    2    0    0 -0.20358822271E+02  0.66412478933E+02  0.95556858314E+02  0.17199189566E+03  0.12500000000E+03 0.  0.
         25    1    1    2    0    0 -0.46741072448E+02  0.20303413159E+02  0.22383976943E+03  0.26139280559E+03  0.12500000000E+03 0.  0.
</event>
<event>
 5    0  0.5668330E-005  0.2736780E+03  0.7546771E-02  0.1099193E+00
         21   -1    0    0  502  501  0.00000000000E+00  0.00000000000E+00  0.93983764015E+02  0.93983764015E+02  0.00000000000E+00 0.  1.
         21   -1    0    0  501  502 -0.00000000000E+00 -0.00000000000E+00 -0.79694226832E+03  0.79694226832E+03  0.00000000000E+00 0.  1.
         25    1    1    2    0    0  0.86372847308E+02 -0.67432067094E+02 -0.10679732895E+03  0.19758041880E+03  0.12500000000E+03 0.  0.
         25    1    1    2    0    0  0.45653428217E+02  0.82619683438E+01 -0.39003980338E+03  0.41219964077E+03  0.12500000000E+03 0.  0.
         25    1    1    2    0    0 -0.13202627552E+03  0.59170098751E+02 -0.20612137198E+03  0.28114597277E+03  0.12500000000E+03 0.  0.
</event>
<event>
 5    0  0.6716195E-005  0.2732319E+03  0.7546771E-02  0.1099444E+00
         21   -1    0    0  502  501  0.00000000000E+00  0.00000000000E+00  0.59042041991E+03  0.59042041991E+03  0.00000000000E+00 0.  1.
         21   -1    0    0  501  502 -0.00000000000E+00 -0.00000000000E+00 -0.12644491024E+03  0.12644491024E+03  0.00000000000E+00 0.  1.
         25    1    1    2    0    0  0.93448056425E+02  0.37153449840E+02  0.33732800437E+03  0.37353460431E+03  0.12500000000E+03 0.  0.
         25    1    1    2    0    0 -0.97971713743E+02 -0.56321085161E+02  0.13585612409E+03  0.21645417016E+03  0.12500000000E+03 0.  0.
         25    1    1    2    0    0  0.45236573183E+01  0.19167635321E+02 -0.92086187907E+01  0.12687655567E+03  0.12500000000E+03 0.  0.
</event>
<event>
 5    0  0.5668330E-005  0.3488879E+03  0.7546771E-02  0.1063072E+00
         21   -1    0    0  502  501  0.00000000000E+00  0.00000000000E+00  0.30929583982E+03  0.30929583982E+03  0.00000000000E+00 0. -1.
         21   -1    0    0  501  502 -0.00000000000E+00 -0.00000000000E+00 -0.39354796824E+03  0.39354796824E+03  0.00000000000E+00 0. -1.
         25    1    1    2    0    0  0.10894656218E+03  0.11244964541E+03  0.11089036641E+03  0.22898897250E+03  0.12500000000E+03 0.  0.
         25    1    1    2    0    0 -0.77980305063E+01 -0.14896282902E+03 -0.23409213623E+03  0.30442546206E+03  0.12500000000E+03 0.  0.
         25    1    1    2    0    0 -0.10114853167E+03  0.36513183602E+02  0.38949641395E+02  0.16942937349E+03  0.12500000000E+03 0.  0.
</event>
<event>
 5    0  0.5668330E-005  0.2710883E+03  0.7546771E-02  0.1100658E+00
         21   -1    0    0  502  501  0.00000000000E+00  0.00000000000E+00  0.37989708502E+02  0.37989708502E+02  0.00000000000E+00 0. -1.
         21   -1    0    0  501  502 -0.00000000000E+00 -0.00000000000E+00 -0.19344419732E+04  0.19344419732E+04  0.00000000000E+00 0. -1.
         25    1    1    2    0    0  0.25500320475E+02 -0.34509357243E+02 -0.36665922841E+03  0.38975011464E+03  0.12500000000E+03 0.  0.
         25    1    1    2    0    0  0.10086896113E+03  0.57654610984E+02 -0.11514169000E+04  0.11639950511E+04  0.12500000000E+03 0.  0.
         25    1    1    2    0    0 -0.12636928161E+03 -0.23145253741E+02 -0.37837613636E+03  0.41868651599E+03  0.12500000000E+03 0.  0.
</event>
<event>
 5    0  0.5668330E-005  0.3249925E+03  0.7546771E-02  0.1073374E+00
         21   -1    0    0  502  501  0.00000000000E+00  0.00000000000E+00  0.26930720559E+03  0.26930720559E+03  0.00000000000E+00 0.  1.
         21   -1    0    0  501  502 -0.00000000000E+00 -0.00000000000E+00 -0.39219192642E+03  0.39219192642E+03  0.00000000000E+00 0.  1.
         25    1    1    2    0    0  0.10535629469E+02  0.21996299696E+03 -0.57720207196E+02  0.25971396158E+03  0.12500000000E+03 0.  0.
         25    1    1    2    0    0  0.41194416476E+02  0.58195538516E+01 -0.38374091462E+02  0.13721668285E+03  0.12500000000E+03 0.  0.
         25    1    1    2    0    0 -0.51730045946E+02 -0.22578255081E+03 -0.26790422177E+02  0.26456848759E+03  0.12500000000E+03 0.  0.
</event>
<event>
 5    0  0.5668330E-005  0.3498270E+03  0.7546771E-02  0.1062686E+00
         21   -1    0    0  502  501  0.00000000000E+00  0.00000000000E+00  0.15563532874E+03  0.15563532874E+03  0.00000000000E+00 0.  1.
         21   -1    0    0  501  502 -0.00000000000E+00 -0.00000000000E+00 -0.78631829709E+03  0.78631829709E+03  0.00000000000E+00 0.  1.
         25    1    1    2    0    0  0.80517601369E+02  0.19934341552E+03 -0.29416777702E+03  0.38520197621E+03  0.12500000000E+03 0.  0.
         25    1    1    2    0    0 -0.49566681065E+02 -0.16137051215E+03 -0.17671975501E+02  0.21079515360E+03  0.12500000000E+03 0.  0.
         25    1    1    2    0    0 -0.30950920304E+02 -0.37972903370E+02 -0.31884321583E+03  0.34595649602E+03  0.12500000000E+03 0.  0.
</event>
<event>
 5    0  0.5668330E-005  0.3115557E+03  0.7546771E-02  0.1079603E+00
         21   -1    0    0  502  501  0.00000000000E+00  0.00000000000E+00  0.11790839185E+03  0.11790839185E+03  0.00000000000E+00 0. -1.
         21   -1    0    0  501  502 -0.00000000000E+00 -0.00000000000E+00 -0.82324030273E+03  0.82324030273E+03  0.00000000000E+00 0. -1.
         25    1    1    2    0    0 -0.73365600419E+02  0.22676335212E+02 -0.48062922130E+02  0.15437542546E+03  0.12500000000E+03 0.  0.
         25    1    1    2    0    0  0.95390262747E+01  0.43287287224E+02 -0.23985564630E+02  0.13477792686E+03  0.12500000000E+03 0.  0.
         25    1    1    2    0    0  0.63826574144E+02 -0.65963622436E+02 -0.63328342412E+03  0.65199534225E+03  0.12500000000E+03 0.  0.
</event>
<event>
 5    0  0.6218084E-005  0.2996327E+03  0.7546771E-02  0.1085424E+00
         21   -1    0    0  502  501  0.00000000000E+00  0.00000000000E+00  0.78130805451E+03  0.78130805451E+03  0.00000000000E+00 0. -1.
         21   -1    0    0  501  502 -0.00000000000E+00 -0.00000000000E+00 -0.11490955076E+03  0.11490955076E+03  0.00000000000E+00 0. -1.
         25    1    1    2    0    0 -0.75382847883E+01 -0.10302841683E+02  0.43010473883E+03  0.44808264935E+03  0.12500000000E+03 0.  0.
         25    1    1    2    0    0  0.24352276982E+02 -0.12175081494E+03  0.19128763167E+03  0.26006201637E+03  0.12500000000E+03 0.  0.
         25    1    1    2    0    0 -0.16813992194E+02  0.13205365662E+03  0.45006133252E+02  0.18807293955E+03  0.12500000000E+03 0.  0.
</event>
<event>
 5    0  0.6521828E-005  0.3325723E+03  0.7546771E-02  0.1070004E+00
         21   -1    0    0  502  501  0.00000000000E+00  0.00000000000E+00  0.88194967037E+03  0.88194967037E+03  0.00000000000E+00 0. -1.
         21   -1    0    0  501  502 -0.00000000000E+00 -0.00000000000E+00 -0.12540892023E+03  0.12540892023E+03  0.00000000000E+00 0. -1.
         25    1    1    2    0    0 -0.13726546054E+03 -0.33046647989E+02  0.55670799929E+02  0.19661669707E+03  0.12500000000E+03 0.  0.
         25    1    1    2    0    0 -0.39011921323E+02 -0.49469369352E+02  0.44173190638E+03  0.46338021713E+03  0.12500000000E+03 0.  0.
         25    1    1    2    0    0  0.17627738186E+03  0.82516017341E+02  0.25913804383E+03  0.34736167641E+03  0.12500000000E+03 0.  0.
</event>
<event>
 5    0  0.5668330E-005  0.3098546E+03  0.7546771E-02  0.1080416E+00
         21   -1    0    0  502  501  0.00000000000E+00  0.00000000000E+00  0.24606716234E+03  0.24606716234E+03  0.00000000000E+00 0. -1.
         21   -1    0    0  501  502 -0.00000000000E+00 -0.00000000000E+00 -0.39017739421E+03  0.39017739421E+03  0.00000000000E+00 0. -1.
         25    1    1    2    0    0 -0.12366416121E+03  0.12090902196E+03 -0.71272132563E+02  0.22498118419E+03  0.12500000000E+03 0.  0.
         25    1    1    2    0    0  0.13633203504E+03  0.41974759872E+02  0.89818554070E+01  0.18987885077E+03  0.12500000000E+03 0.  0.
         25    1    1    2    0    0 -0.12667873827E+02 -0.16288378183E+03 -0.81819954706E+02  0.22138452159E+03  0.12500000000E+03 0.  0.
</event>
<event>
 5    0  0.5668330E-005  0.3095824E+03  0.7546771E-02  0.1080546E+00
         21   -1    0    0  502  501  0.00000000000E+00  0.00000000000E+00  0.82920010134E+03  0.82920010134E+03  0.00000000000E+00 0. -1.
         21   -1    0    0  501  502 -0.00000000000E+00 -0.00000000000E+00 -0.11558279575E+03  0.11558279575E+03  0.00000000000E+00 0. -1.
         25    1    1    2    0    0 -0.14525906774E+03 -0.91965529240E+02  0.16885375125E+03  0.27146720730E+03  0.12500000000E+03 0.  0.
         25    1    1    2    0    0  0.18292352119E+02 -0.76856757905E+02  0.24138855578E+03  0.28308127145E+03  0.12500000000E+03 0.  0.
         25    1    1    2    0    0  0.12696671562E+03  0.16882228714E+03  0.30337499855E+03  0.39023441834E+03  0.12500000000E+03 0.  0.
</event>
<event>
 5    0  0.5668330E-005  0.2697640E+03  0.7546771E-02  0.1101415E+00
         21   -1    0    0  502  501  0.00000000000E+00  0.00000000000E+00  0.14268807141E+03  0.14268807141E+03  0.00000000000E+00 0. -1.
         21   -1    0    0  501  502 -0.00000000000E+00 -0.00000000000E+00 -0.51001172016E+03  0.51001172016E+03  0.00000000000E+00 0. -1.
         25    1    1    2    0    0  0.26860642187E+01  0.88223883678E+02 -0.23076415098E+03  0.27688943997E+03  0.12500000000E+03 0.  0.
         25    1    1    2    0    0  0.34985643755E+02 -0.15065543747E+03 -0.42911005505E+02  0.20343896014E+03  0.12500000000E+03 0.  0.
         25    1    1    2    0    0 -0.37671707974E+02  0.62431553792E+02 -0.93648492269E+02  0.17237139146E+03  0.12500000000E+03 0.  0.
</event>
<event>
 5    0  0.5668330E-005  0.2307187E+03  0.7546771E-02  0.1126135E+00
         21   -1    0    0  502  501  0.00000000000E+00  0.00000000000E+00  0.21556669339E+03  0.21556669339E+03  0.00000000000E+00 0. -1.
         21   -1    0    0  501  502 -0.00000000000E+00 -0.00000000000E+00 -0.24693570551E+03  0.24693570551E+03  0.00000000000E+00 0. -1.
         25    1    1    2    0    0 -0.19428157416E+02 -0.76432086405E+01  0.11530811257E+01  0.12673674106E+03  0.12500000000E+03 0.  0.
         25    1    1    2    0    0  0.26490641106E+02  0.14462219861E+02 -0.12548854269E+03  0.17967549699E+03  0.12500000000E+03 0.  0.
         25    1    1    2    0    0 -0.70624836897E+01 -0.68190112208E+01  0.92966449447E+02  0.15609016085E+03  0.12500000000E+03 0.  0.
</event>
<event>
 5    0  0.5668330E-005  0.3422660E+03  0.7546771E-02  0.1065835E+00
         21   -1    0    0  502  501  0.00000000000E+00  0.00000000000E+00  0.15433394072E+04  0.15433394072E+04  0.00000000000E+00 0.  1.
         21   -1    0    0  501  502 -0.00000000000E+00 -0.00000000000E+00 -0.75904232780E+02  0.75904232780E+02  0.00000000000E+00 0.  1.
         25    1    1    2    0    0  0.43962784566E+01 -0.31911013227E+02  0.36781393248E+03  0.38980729720E+03  0.12500000000E+03 0.  0.
         25    1    1    2    0    0 -0.18668411201E+03  0.26542621522E+02  0.19652737615E+03  0.29967228436E+03  0.12500000000E+03 0.  0.
         25    1    1    2    0    0  0.18228783356E+03  0.53683917051E+01  0.90309386584E+03  0.92976405846E+03  0.12500000000E+03 0.  0.
</event>
<event>
 5    0  0.5668330E-005  0.2646517E+03  0.7546771E-02  0.1104380E+00
         21   -1    0    0  502  501  0.00000000000E+00  0.00000000000E+00  0.40489140690E+02  0.40489140690E+02  0.00000000000E+00 0. -1.
         21   -1    0    0  501  502 -0.00000000000E+00 -0.00000000000E+00 -0.17298598727E+04  0.17298598727E+04  0.00000000000E+00 0. -1.
         25    1    1    2    0    0  0.56618677612E+02  0.12643280123E+02 -0.47483802654E+03  0.49443066110E+03  0.12500000000E+03 0.  0.
         25    1    1    2    0    0 -0.94499024529E+02  0.40728966901E+02 -0.10349414957E+04  0.10475293857E+04  0.12500000000E+03 0.  0.
         25    1    1    2    0    0  0.37880346917E+02 -0.53372247024E+02 -0.17959120978E+03  0.22838896660E+03  0.12500000000E+03 0.  0.
</event>
<event>
 5    0  0.5668330E-005  0.2955715E+03  0.7546771E-02  0.1087476E+00
         21   -1    0    0  502  501  0.00000000000E+00  0.00000000000E+00  0.15941468297E+03  0.15941468297E+03  0.00000000000E+00 0.  1.
         21   -1    0    0  501  502 -0.00000000000E+00 -0.00000000000E+00 -0.54802049879E+03  0.54802049879E+03  0.00000000000E+00 0.  1.
         25    1    1    2    0    0  0.65304004895E+02  0.69579767172E+02 -0.17253312789E+03  0.23344943195E+03  0.12500000000E+03 0.  0.
         25    1    1    2    0    0 -0.62952433459E+02 -0.13717398023E+03 -0.25967375596E+03  0.32532317665E+03  0.12500000000E+03 0.  0.
         25    1    1    2    0    0 -0.23515714356E+01  0.67594213058E+02  0.43601068034E+02  0.14866257317E+03  0.12500000000E+03 0.  0.
</event>
<event>
 5    0  0.5740828E-005  0.3539245E+03  0.7546771E-02  0.1061016E+00
         21   -1    0    0  502  501  0.00000000000E+00  0.00000000000E+00  0.93148978969E+03  0.93148978969E+03  0.00000000000E+00 0. -1.
         21   -1    0    0  501  502 -0.00000000000E+00 -0.00000000000E+00 -0.13447550560E+03  0.13447550560E+03  0.00000000000E+00 0. -1.
         25    1    1    2    0    0 -0.24298200420E+02  0.76338378500E+01 -0.80556262887E+01  0.12782242033E+03  0.12500000000E+03 0.  0.
         25    1    1    2    0    0 -0.97347696488E+01 -0.20795247642E+03  0.39091384699E+03  0.46019303988E+03  0.12500000000E+03 0.  0.
         25    1    1    2    0    0  0.34032970068E+02  0.20031863857E+03  0.41415606339E+03  0.47794983508E+03  0.12500000000E+03 0.  0.
</event>
<event>
 5    0  0.5668330E-005  0.3502596E+03  0.7546771E-02  0.1062509E+00
         21   -1    0    0  502  501  0.00000000000E+00  0.00000000000E+00  0.93034045515E+02  0.93034045515E+02  0.00000000000E+00 0. -1.
         21   -1    0    0  501  502 -0.00000000000E+00 -0.00000000000E+00 -0.13186764261E+04  0.13186764261E+04  0.00000000000E+00 0. -1.
         25    1    1    2    0    0  0.23820074007E+03  0.11718185022E+03 -0.42658312625E+03  0.51775413296E+03  0.12500000000E+03 0.  0.
         25    1    1    2    0    0 -0.10613976676E+03  0.30200594297E+02 -0.32803650166E+03  0.36798189140E+03  0.12500000000E+03 0.  0.
         25    1    1    2    0    0 -0.13206097331E+03 -0.14738244452E+03 -0.47102275268E+03  0.52597444726E+03  0.12500000000E+03 0.  0.
</event>
<event>
 5    0  0.5668330E-005  0.2897731E+03  0.7546771E-02  0.1090468E+00
         21   -1    0    0  502  501  0.00000000000E+00  0.00000000000E+00  0.16870872834E+04  0.16870872834E+04  0.00000000000E+00 0.  1.
         21   -1    0    0  501  502 -0.00000000000E+00 -0.00000000000E+00 -0.49771236786E+02  0.49771236786E+02  0.00000000000E+00 0.  1.
         25    1    1    2    0    0  0.64390945181E+02  0.21506652376E+02  0.12863282040E+03  0.19178147043E+03  0.12500000000E+03 0.  0.
         25    1    1    2    0    0 -0.12417608922E+03  0.41434936834E+02  0.79386350151E+03  0.81423633802E+03  0.12500000000E+03 0.  0.
         25    1    1    2    0    0  0.59785144036E+02 -0.62941589210E+02  0.71481972474E+03  0.73084071177E+03  0.12500000000E+03 0.  0.
</event>
<event>
 5    0  0.5668330E-005  0.2702708E+03  0.7546771E-02  0.1101125E+00
         21   -1    0    0  502  501  0.00000000000E+00  0.00000000000E+00  0.10762831615E+04  0.10762831615E+04  0.00000000000E+00 0.  1.
         21   -1    0    0  501  502 -0.00000000000E+00 -0.00000000000E+00 -0.67869054358E+02  0.67869054358E+02  0.00000000000E+00 0.  1.
         25    1    1    2    0    0 -0.23292754412E+02 -0.10845624671E+03  0.39014902464E+03  0.42443676948E+03  0.12500000000E+03 0.  0.
         25    1    1    2    0    0  0.10077598374E+03  0.64651344187E+02  0.49014337612E+03  0.51980873825E+03  0.12500000000E+03 0.  0.
         25    1    1    2    0    0 -0.77483229331E+02  0.43804902524E+02  0.12812170640E+03  0.19990670815E+03  0.12500000000E+03 0.  0.
</event>
<event>
 5    0  0.5668330E-005  0.2614458E+03  0.7546771E-02  0.1106278E+00
         21   -1    0    0  502  501  0.00000000000E+00  0.00000000000E+00  0.17792549032E+03  0.17792549032E+03  0.00000000000E+00 0. -1.
         21   -1    0    0  501  502 -0.00000000000E+00 -0.00000000000E+00 -0.38417163466E+03  0.38417163466E+03  0.00000000000E+00 0. -1.
         25    1    1    2    0    0  0.29732057804E+02 -0.11751626153E+03  0.24353329160E+02  0.17581851901E+03  0.12500000000E+03 0.  0.
         25    1    1    2    0    0 -0.13972297966E+02  0.44827749340E+01 -0.41577935020E+02  0.13254827446E+03  0.12500000000E+03 0.  0.
         25    1    1    2    0    0 -0.15759759838E+02  0.11303348660E+03 -0.18902153848E+03  0.25373033152E+03  0.12500000000E+03 0.  0.
</event>
<event>
 5    0  0.5668330E-005  0.3341726E+03  0.7546771E-02  0.1069305E+00
         21   -1    0    0  502  501  0.00000000000E+00  0.00000000000E+00  0.18633851021E+03  0.18633851021E+03  0.00000000000E+00 0.  1.
         21   -1    0    0  501  502 -0.00000000000E+00 -0.00000000000E+00 -0.59929287136E+03  0.59929287136E+03  0.00000000000E+00 0.  1.
         25    1    1    2    0    0 -0.17465188416E+03  0.12350755267E+03 -0.30844896928E+03  0.39563008335E+03  0.12500000000E+03 0.  0.
         25    1    1    2    0    0 -0.33173268876E+01 -0.37320937604E+02 -0.83945130515E+02  0.15516327522E+03  0.12500000000E+03 0.  0.
         25    1    1    2    0    0  0.17796921104E+03 -0.86186615064E+02 -0.20560261364E+02  0.23483802299E+03  0.12500000000E+03 0.  0.
</event>
<event>
 5    0  0.5668330E-005  0.2969707E+03  0.7546771E-02  0.1086765E+00
         21   -1    0    0  502  501  0.00000000000E+00  0.00000000000E+00  0.62808393348E+02  0.62808393348E+02  0.00000000000E+00 0. -1.
         21   -1    0    0  501  502 -0.00000000000E+00 -0.00000000000E+00 -0.14041375320E+04  0.14041375320E+04  0.00000000000E+00 0. -1.
         25    1    1    2    0    0 -0.30247297348E+02  0.19194093828E+03 -0.52692927108E+03  0.57535700179E+03  0.12500000000E+03 0.  0.
         25    1    1    2    0    0  0.58155789557E+01 -0.16727889585E+03 -0.64646666373E+03  0.67938221736E+03  0.12500000000E+03 0.  0.
         25    1    1    2    0    0  0.24431718393E+02 -0.24662042432E+02 -0.16793320383E+03  0.21220670618E+03  0.12500000000E+03 0.  0.
</event>
<event>
 5    0  0.5668330E-005  0.3186766E+03  0.7546771E-02  0.1076260E+00
         21   -1    0    0  502  501  0.00000000000E+00  0.00000000000E+00  0.20779916003E+03  0.20779916003E+03  0.00000000000E+00 0.  1.
         21   -1    0    0  501  502 -0.00000000000E+00 -0.00000000000E+00 -0.48871613259E+03  0.48871613259E+03  0.00000000000E+00 0.  1.
         25    1    1    2    0    0  0.64617853264E+02  0.52571891631E+02 -0.52808518224E+02  0.15922628661E+03  0.12500000000E+03 0.  0.
         25    1    1    2    0    0 -0.87700781669E+02 -0.19485833817E+03 -0.10361322122E+02  0.24777723070E+03  0.12500000000E+03 0.  0.
         25    1    1    2    0    0  0.23082928405E+02  0.14228644654E+03 -0.21774713221E+03  0.28951177530E+03  0.12500000000E+03 0.  0.
</event>
<event>
 5    0  0.5668330E-005  0.6801208E+03  0.7546771E-02  0.9751845E-01
         21   -1    0    0  502  501  0.00000000000E+00  0.00000000000E+00  0.49977354128E+03  0.49977354128E+03  0.00000000000E+00 0.  1.
         21   -1    0    0  501  502 -0.00000000000E+00 -0.00000000000E+00 -0.92554791384E+03  0.92554791384E+03  0.00000000000E+00 0.  1.
         25    1    1    2    0    0 -0.46263618380E+02 -0.50827653882E+03 -0.31489286874E+03  0.61259112064E+03  0.12500000000E+03 0.  0.
         25    1    1    2    0    0  0.69102342595E+02  0.48669783927E+03  0.14386814886E+03  0.52723141481E+03  0.12500000000E+03 0.  0.
         25    1    1    2    0    0 -0.22838724215E+02  0.21578699548E+02 -0.25474965267E+03  0.28549891967E+03  0.12500000000E+03 0.  0.
</event>
<event>
 5    0  0.5668330E-005  0.3466406E+03  0.7546771E-02  0.1064002E+00
         21   -1    0    0  502  501  0.00000000000E+00  0.00000000000E+00  0.40456968135E+03  0.40456968135E+03  0.00000000000E+00 0. -1.
         21   -1    0    0  501  502 -0.00000000000E+00 -0.00000000000E+00 -0.29700615692E+03  0.29700615692E+03  0.00000000000E+00 0. -1.
         25    1    1    2    0    0 -0.10328273176E+03  0.21302538043E+03  0.15121306508E+03  0.30746955368E+03  0.12500000000E+03 0.  0.
         25    1    1    2    0    0  0.21660559856E+02 -0.15983291888E+02  0.38612749702E+02  0.13356867115E+03  0.12500000000E+03 0.  0.
         25    1    1    2    0    0  0.81622171907E+02 -0.19704208854E+03 -0.82262290357E+02  0.26053761344E+03  0.12500000000E+03 0.  0.
</event>
<event>
 5    0  0.5668330E-005  0.2981932E+03  0.7546771E-02  0.1086147E+00
         21   -1    0    0  502  501  0.00000000000E+00  0.00000000000E+00  0.29496751651E+03  0.29496751651E+03  0.00000000000E+00 0. -1.
         21   -1    0    0  501  502 -0.00000000000E+00 -0.00000000000E+00 -0.30145416325E+03  0.30145416325E+03  0.00000000000E+00 0. -1.
         25    1    1    2    0    0 -0.40170360651E+02 -0.15915254810E+03 -0.64683064276E+02  0.21622231672E+03  0.12500000000E+03 0.  0.
         25    1    1    2    0    0 -0.10737400886E+02  0.19863322971E+03  0.31079125426E+02  0.23698388924E+03  0.12500000000E+03 0.  0.
         25    1    1    2    0    0  0.50907761536E+02 -0.39480681609E+02  0.27117292112E+02  0.14321547380E+03  0.12500000000E+03 0.  0.
</event>
<event>
 5    0  0.5668330E-005  0.4620491E+03  0.7546771E-02  0.1024189E+00
         21   -1    0    0  502  501  0.00000000000E+00  0.00000000000E+00  0.15732744469E+04  0.15732744469E+04  0.00000000000E+00 0. -1.
         21   -1    0    0  501  502 -0.00000000000E+00 -0.00000000000E+00 -0.13569745515E+03  0.13569745515E+03  0.00000000000E+00 0. -1.
         25    1    1    2    0    0 -0.10759918169E+03  0.30003672263E+03  0.53126407161E+03  0.63203333188E+03  0.12500000000E+03 0.  0.
         25    1    1    2    0    0  0.19540910397E+03  0.13966935332E+02  0.37361362087E+03  0.43999083046E+03  0.12500000000E+03 0.  0.
         25    1    1    2    0    0 -0.87809922273E+02 -0.31400365796E+03  0.53269929930E+03  0.63694773972E+03  0.12500000000E+03 0.  0.
</event>
<event>
 5    0  0.5668330E-005  0.3718242E+03  0.7546771E-02  0.1053998E+00
         21   -1    0    0  502  501  0.00000000000E+00  0.00000000000E+00  0.12889547640E+03  0.12889547640E+03  0.00000000000E+00 0. -1.
         21   -1    0    0  501  502 -0.00000000000E+00 -0.00000000000E+00 -0.10725998590E+04  0.10725998590E+04  0.00000000000E+00 0. -1.
         25    1    1    2    0    0  0.26677582574E+03  0.12367344260E+03 -0.24825793830E+03  0.40462509256E+03  0.12500000000E+03 0.  0.
         25    1    1    2    0    0 -0.13039579498E+03 -0.86213366278E+02 -0.36860522703E+03  0.41944084358E+03  0.12500000000E+03 0.  0.
         25    1    1    2    0    0 -0.13638003076E+03 -0.37460076322E+02 -0.32684121726E+03  0.37742939923E+03  0.12500000000E+03 0.  0.
</event>
<event>
 5    0  0.5668330E-005  0.3158363E+03  0.7546771E-02  0.1077582E+00
         21   -1    0    0  502  501  0.00000000000E+00  0.00000000000E+00  0.11511188211E+03  0.11511188211E+03  0.00000000000E+00 0.  1.
         21   -1    0    0  501  502 -0.00000000000E+00 -0.00000000000E+00 -0.86657056647E+03  0.86657056647E+03  0.00000000000E+00 0.  1.
         25    1    1    2    0    0  0.16899944275E+03  0.81849600725E+02 -0.27064586216E+03  0.35232705189E+03  0.12500000000E+03 0.  0.
         25    1    1    2    0    0 -0.66533633855E+02 -0.68192350353E+01 -0.30423834204E+02  0.14499598646E+03  0.12500000000E+03 0.  0.
         25    1    1    2    0    0 -0.10246580889E+03 -0.75030365689E+02 -0.45038898801E+03  0.48435941024E+03  0.12500000000E+03 0.  0.
</event>
<event>
 5    0  0.5668330E-005  0.3308806E+03  0.7546771E-02  0.1070748E+00
         21   -1    0    0  502  501  0.00000000000E+00  0.00000000000E+00  0.10408208304E+03  0.10408208304E+03  0.00000000000E+00 0.  1.
         21   -1    0    0  501  502 -0.00000000000E+00 -0.00000000000E+00 -0.10518807921E+04  0.10518807921E+04  0.00000000000E+00 0.  1.
         25    1    1    2    0    0 -0.73087762638E+02 -0.17903967898E+03 -0.59469493413E+03  0.63771787836E+03  0.12500000000E+03 0.  0.
         25    1    1    2    0    0 -0.46741532335E+02  0.94657743527E+02 -0.25264646095E+03  0.30099849416E+03  0.12500000000E+03 0.  0.
         25    1    1    2    0    0  0.11982929497E+03  0.84381935457E+02 -0.10045731397E+03  0.21724650261E+03  0.12500000000E+03 0.  0.
</event>
<event>
 5    0  0.5668330E-005  0.3023349E+03  0.7546771E-02  0.1084079E+00
         21   -1    0    0  502  501  0.00000000000E+00  0.00000000000E+00  0.96573605313E+02  0.96573605313E+02  0.00000000000E+00 0. -1.
         21   -1    0    0  501  502 -0.00000000000E+00 -0.00000000000E+00 -0.94649470516E+03  0.94649470516E+03  0.00000000000E+00 0. -1.
         25    1    1    2    0    0 -0.57980300364E+01  0.26941643148E+02 -0.16601461417E+03  0.20963139413E+03  0.12500000000E+03 0.  0.
         25    1    1    2    0    0  0.18139771851E+03  0.66984895315E+02 -0.24969703711E+03  0.33965529412E+03  0.12500000000E+03 0.  0.
         25    1    1    2    0    0 -0.17559968847E+03 -0.93926538464E+02 -0.43420944857E+03  0.49378162222E+03  0.12500000000E+03 0.  0.
</event>
<event>
 5    0  0.5668330E-005  0.2436854E+03  0.7546771E-02  0.1117362E+00
         21   -1    0    0  502  501  0.00000000000E+00  0.00000000000E+00  0.20922763555E+03  0.20922763555E+03  0.00000000000E+00 0. -1.
         21   -1    0    0  501  502 -0.00000000000E+00 -0.00000000000E+00 -0.28381813261E+03  0.28381813261E+03  0.00000000000E+00 0. -1.
         25    1    1    2    0    0 -0.45237599625E+02  0.13952134875E+02  0.43655993591E+02  0.14061275996E+03  0.12500000000E+03 0.  0.
         25    1    1    2    0    0  0.14754784131E+02 -0.11328486881E+03 -0.65026529865E+02  0.18139629197E+03  0.12500000000E+03 0.  0.
         25    1    1    2    0    0  0.30482815494E+02  0.99332733932E+02 -0.53219960789E+02  0.17103671623E+03  0.12500000000E+03 0.  0.
</event>
<event>
 5    0  0.5668330E-005  0.3209704E+03  0.7546771E-02  0.1075204E+00
         21   -1    0    0  502  501  0.00000000000E+00  0.00000000000E+00  0.66457913232E+03  0.66457913232E+03  0.00000000000E+00 0. -1.
         21   -1    0    0  501  502 -0.00000000000E+00 -0.00000000000E+00 -0.15501835793E+03  0.15501835793E+03  0.00000000000E+00 0.  1.
         25    1    1    2    0    0  0.21260155653E+03 -0.36545947642E+02  0.17890521453E+03  0.30686658977E+03  0.12500000000E+03 0.  0.
         25    1    1    2    0    0 -0.17982327275E+03  0.10797723210E+03  0.20251176728E+03  0.31722469633E+03  0.12500000000E+03 0.  0.
         25    1    1    2    0    0 -0.32778283786E+02 -0.71431284460E+02  0.12814379257E+03  0.19550620415E+03  0.12500000000E+03 0.  0.
</event>
<event>
 5    0  0.5668330E-005  0.3437691E+03  0.7546771E-02  0.1065202E+00
         21   -1    0    0  502  501  0.00000000000E+00  0.00000000000E+00  0.53780184730E+03  0.53780184730E+03  0.00000000000E+00 0. -1.
         21   -1    0    0  501  502 -0.00000000000E+00 -0.00000000000E+00 -0.21974117964E+03  0.21974117964E+03  0.00000000000E+00 0. -1.
         25    1    1    2    0    0  0.91207983488E+01  0.15611731905E+03 -0.12487055637E+02  0.20059095899E+03  0.12500000000E+03 0.  0.
         25    1    1    2    0    0 -0.94913052971E+02 -0.22943588757E+03  0.23012482930E+03  0.36087636552E+03  0.12500000000E+03 0.  0.
         25    1    1    2    0    0  0.85792254622E+02  0.73318568520E+02  0.10042289399E+03  0.19607570242E+03  0.12500000000E+03 0.  0.
</event>
<event>
 5    0  0.5668330E-005  0.2314390E+03  0.7546771E-02  0.1125631E+00
         21   -1    0    0  502  501  0.00000000000E+00  0.00000000000E+00  0.11828646795E+04  0.11828646795E+04  0.00000000000E+00 0. -1.
         21   -1    0    0  501  502 -0.00000000000E+00 -0.00000000000E+00 -0.45283297107E+02  0.45283297107E+02  0.00000000000E+00 0. -1.
         25    1    1    2    0    0  0.72939723684E+02 -0.35585447503E+01  0.28159951863E+03  0.31663252426E+03  0.12500000000E+03 0.  0.
         25    1    1    2    0    0 -0.29761478370E+02  0.83786429535E+02  0.50911691485E+03  0.53172450042E+03  0.12500000000E+03 0.  0.
         25    1    1    2    0    0 -0.43178245314E+02 -0.80227884785E+02  0.34686494888E+03  0.37979095187E+03  0.12500000000E+03 0.  0.
</event>
<event>
 5    0  0.6427614E-005  0.3124319E+03  0.7546771E-02  0.1079186E+00
         21   -1    0    0  502  501  0.00000000000E+00  0.00000000000E+00  0.14831441158E+03  0.14831441158E+03  0.00000000000E+00 0.  1.
         21   -1    0    0  501  502 -0.00000000000E+00 -0.00000000000E+00 -0.65815362925E+03  0.65815362925E+03  0.00000000000E+00 0.  1.
         25    1    1    2    0    0 -0.89434317314E+02  0.64098617963E+02  0.26378124216E+02  0.16860585807E+03  0.12500000000E+03 0.  0.
         25    1    1    2    0    0  0.23619302674E+01 -0.12859154605E+03 -0.25892919537E+03  0.31497728909E+03  0.12500000000E+03 0.  0.
         25    1    1    2    0    0  0.87072387046E+02  0.64492928090E+02 -0.27728814652E+03  0.32288489367E+03  0.12500000000E+03 0.  0.
</event>
<event>
 5    0  0.5668330E-005  0.3582813E+03  0.7546771E-02  0.1059266E+00
         21   -1    0    0  502  501  0.00000000000E+00  0.00000000000E+00  0.54774746429E+03  0.54774746429E+03  0.00000000000E+00 0. -1.
         21   -1    0    0  501  502 -0.00000000000E+00 -0.00000000000E+00 -0.23435159829E+03  0.23435159829E+03  0.00000000000E+00 0. -1.
         25    1    1    2    0    0 -0.29749567682E+02 -0.22076869535E+03  0.62374208796E+02  0.26294371174E+03  0.12500000000E+03 0.  0.
         25    1    1    2    0    0 -0.26548153828E+02  0.11230796495E+02 -0.40815446704E+02  0.13461736868E+03  0.12500000000E+03 0.  0.
         25    1    1    2    0    0  0.56297721510E+02  0.20953789885E+03  0.29183710391E+03  0.38453798216E+03  0.12500000000E+03 0.  0.
</event>
<event>
 5    0  0.5668330E-005  0.3839902E+03  0.7546771E-02  0.1049469E+00
         21   -1    0    0  502  501  0.00000000000E+00  0.00000000000E+00  0.76210911713E+03  0.76210911713E+03  0.00000000000E+00 0.  1.
         21   -1    0    0  501  502 -0.00000000000E+00 -0.00000000000E+00 -0.19347420198E+03  0.19347420198E+03  0.00000000000E+00 0.  1.
         25    1    1    2    0    0  0.16555085199E+03 -0.12723697423E+03  0.13022545932E+03  0.27600725074E+03  0.12500000000E+03 0.  0.
         25    1    1    2    0    0  0.13122307673E+03  0.43329350009E+02  0.14995624575E+03  0.23918362001E+03  0.12500000000E+03 0.  0.
         25    1    1    2    0    0 -0.29677392872E+03  0.83907624220E+02  0.28845321009E+03  0.44039244837E+03  0.12500000000E+03 0.  0.
</event>
<event>
 5    0  0.5668330E-005  0.2757587E+03  0.7546771E-02  0.1098028E+00
         21   -1    0    0  502  501  0.00000000000E+00  0.00000000000E+00  0.16087210937E+04  0.16087210937E+04  0.00000000000E+00 0. -1.
         21   -1    0    0  501  502 -0.00000000000E+00 -0.00000000000E+00 -0.47269142545E+02  0.47269142545E+02  0.00000000000E+00 0. -1.
         25    1    1    2    0    0 -0.17185620485E+03  0.28972077718E+02  0.51141017296E+03  0.55456226111E+03  0.12500000000E+03 0.  0.
         25    1    1    2    0    0  0.91082357929E+01 -0.19347392277E+02  0.38038723773E+03  0.40096973973E+03  0.12500000000E+03 0.  0.
         25    1    1    2    0    0  0.16274796906E+03 -0.96246854411E+01  0.66965454049E+03  0.70045823545E+03  0.12500000000E+03 0.  0.
</event>
<event>
 5    0  0.5668330E-005  0.3011400E+03  0.7546771E-02  0.1084672E+00
         21   -1    0    0  502  501  0.00000000000E+00  0.00000000000E+00  0.68426645294E+02  0.68426645294E+02  0.00000000000E+00 0. -1.
         21   -1    0    0  501  502 -0.00000000000E+00 -0.00000000000E+00 -0.13252925940E+04  0.13252925940E+04  0.00000000000E+00 0. -1.
         25    1    1    2    0    0 -0.54413082453E+02 -0.99895095774E+02 -0.55832962459E+03  0.58334962363E+03  0.12500000000E+03 0.  0.
         25    1    1    2    0    0 -0.10881093556E+03  0.91980257203E+02 -0.22582538519E+03  0.29482586727E+03  0.12500000000E+03 0.  0.
         25    1    1    2    0    0  0.16322401802E+03  0.79148385714E+01 -0.47271093896E+03  0.51554374843E+03  0.12500000000E+03 0.  0.
</event>
<event>
 5    0  0.5668330E-005  0.3881779E+03  0.7546771E-02  0.1047952E+00
         21   -1    0    0  502  501  0.00000000000E+00  0.00000000000E+00  0.13319899675E+03  0.13319899675E+03  0.00000000000E+00 0. -1.
         21   -1    0    0  501  502 -0.00000000000E+00 -0.00000000000E+00 -0.11312550976E+04  0.11312550976E+04  0.00000000000E+00 0. -1.
         25    1    1    2    0    0 -0.54956423331E+02 -0.13341718772E+03 -0.22288035769E+03  0.29346381087E+03  0.12500000000E+03 0.  0.
         25    1    1    2    0    0 -0.11849027044E+03  0.43810325981E+02 -0.17423105482E+02  0.17857170396E+03  0.12500000000E+03 0.  0.
         25    1    1    2    0    0  0.17344669377E+03  0.89606861736E+02 -0.75775263766E+03  0.79241857950E+03  0.12500000000E+03 0.  0.
</event>
<event>
 5    0  0.5668330E-005  0.4139742E+03  0.7546771E-02  0.1039046E+00
         21   -1    0    0  502  501  0.00000000000E+00  0.00000000000E+00  0.40551881798E+03  0.40551881798E+03  0.00000000000E+00 0.  1.
         21   -1    0    0  501  502 -0.00000000000E+00 -0.00000000000E+00 -0.42260579735E+03  0.42260579735E+03  0.00000000000E+00 0.  1.
         25    1    1    2    0    0 -0.28540709006E+03  0.77983375247E+02 -0.16167483127E+03  0.35958638036E+03  0.12500000000E+03 0.  0.
         25    1    1    2    0    0  0.24228621048E+02 -0.27002285094E+02  0.11386295905E+03  0.17293329038E+03  0.12500000000E+03 0.  0.
         25    1    1    2    0    0  0.26117846901E+03 -0.50981090153E+02  0.30724892853E+02  0.29560494459E+03  0.12500000000E+03 0.  0.
</event>
<event>
 5    0  0.5668330E-005  0.2616706E+03  0.7546771E-02  0.1106144E+00
         21   -1    0    0  502  501  0.00000000000E+00  0.00000000000E+00  0.64060195489E+02  0.64060195489E+02  0.00000000000E+00 0. -1.
         21   -1    0    0  501  502 -0.00000000000E+00 -0.00000000000E+00 -0.10688617066E+04  0.10688617066E+04  0.00000000000E+00 0. -1.
         25    1    1    2    0    0  0.33509542401E+02  0.12585625048E+02 -0.47786389301E+03  0.49523750628E+03  0.12500000000E+03 0.  0.
         25    1    1    2    0    0 -0.66531896093E+02  0.74544973488E+02 -0.41773101260E+03  0.44733393025E+03  0.12500000000E+03 0.  0.
         25    1    1    2    0    0  0.33022353692E+02 -0.87130598536E+02 -0.10920660548E+03  0.19035046552E+03  0.12500000000E+03 0.  0.
</event>
<event>
 5    0  0.5668330E-005  0.2988902E+03  0.7546771E-02  0.1085797E+00
         21   -1    0    0  502  501  0.00000000000E+00  0.00000000000E+00  0.52309038587E+03  0.52309038587E+03  0.00000000000E+00 0.  1.
         21   -1    0    0  501  502 -0.00000000000E+00 -0.00000000000E+00 -0.17078372845E+03  0.17078372845E+03  0.00000000000E+00 0.  1.
         25    1    1    2    0    0  0.69754147913E+02  0.16331712918E+02  0.94355587066E+02  0.17222178378E+03  0.12500000000E+03 0.  0.
         25    1    1    2    0    0 -0.17902808906E+03  0.37463126243E+02  0.14375911097E+02  0.22200497589E+03  0.12500000000E+03 0.  0.
         25    1    1    2    0    0  0.10927394115E+03 -0.53794839161E+02  0.24357515926E+03  0.29964735464E+03  0.12500000000E+03 0.  0.
</event>
<event>
 5    0  0.6663417E-005  0.2418557E+03  0.7546771E-02  0.1118563E+00
         21   -1    0    0  502  501  0.00000000000E+00  0.00000000000E+00  0.25814099505E+03  0.25814099505E+03  0.00000000000E+00 0. -1.
         21   -1    0    0  501  502 -0.00000000000E+00 -0.00000000000E+00 -0.22659777114E+03  0.22659777114E+03  0.00000000000E+00 0. -1.
         25    1    1    2    0    0  0.43782276996E+02  0.12541995656E+03  0.45060804299E+02  0.18788967339E+03  0.12500000000E+03 0.  0.
         25    1    1    2    0    0 -0.45121327444E+02 -0.99772106728E+02  0.12369990127E+02  0.16663860335E+03  0.12500000000E+03 0.  0.
         25    1    1    2    0    0  0.13390504481E+01 -0.25647849828E+02 -0.25887570512E+02  0.13021048945E+03  0.12500000000E+03 0.  0.
</event>
<event>
 5    0  0.5668330E-005  0.2653704E+03  0.7546771E-02  0.1103959E+00
         21   -1    0    0  502  501  0.00000000000E+00  0.00000000000E+00  0.17623738742E+03  0.17623738742E+03  0.00000000000E+00 0. -1.
         21   -1    0    0  501  502 -0.00000000000E+00 -0.00000000000E+00 -0.39958294748E+03  0.39958294748E+03  0.00000000000E+00 0. -1.
         25    1    1    2    0    0 -0.93163049619E+01 -0.38891307273E+02 -0.24992449585E+03  0.28228811691E+03  0.12500000000E+03 0.  0.
         25    1    1    2    0    0 -0.29017388939E+02 -0.75032809275E+01 -0.46541163844E+02  0.13670913655E+03  0.12500000000E+03 0.  0.
         25    1    1    2    0    0  0.38333693901E+02  0.46394588201E+02  0.73120099635E+02  0.15682308144E+03  0.12500000000E+03 0.  0.
</event>
<event>
 5    0  0.5668330E-005  0.4248874E+03  0.7546771E-02  0.1035487E+00
         21   -1    0    0  502  501  0.00000000000E+00  0.00000000000E+00  0.39916499872E+03  0.39916499872E+03  0.00000000000E+00 0.  1.
         21   -1    0    0  501  502 -0.00000000000E+00 -0.00000000000E+00 -0.45226747137E+03  0.45226747137E+03  0.00000000000E+00 0.  1.
         25    1    1    2    0    0 -0.41082317525E+02 -0.14820371143E+03  0.10850418193E+02  0.19848130509E+03  0.12500000000E+03 0.  0.
         25    1    1    2    0    0  0.94618152633E+02  0.36090674342E+03 -0.41435302746E+01  0.39350786663E+03  0.12500000000E+03 0.  0.
         25    1    1    2    0    0 -0.53535835108E+02 -0.21270303199E+03 -0.59809360565E+02  0.25944329837E+03  0.12500000000E+03 0.  0.
</event>
<event>
 5    0  0.5668330E-005  0.3162703E+03  0.7546771E-02  0.1077379E+00
         21   -1    0    0  502  501  0.00000000000E+00  0.00000000000E+00  0.91066797497E+02  0.91066797497E+02  0.00000000000E+00 0. -1.
         21   -1    0    0  501  502 -0.00000000000E+00 -0.00000000000E+00 -0.10983903069E+04  0.10983903069E+04  0.00000000000E+00 0. -1.
         25    1    1    2    0    0  0.42084998428E+02 -0.52870833040E+02 -0.43567291642E+03  0.45826014684E+03  0.12500000000E+03 0.  0.
         25    1    1    2    0    0 -0.10968130142E+03 -0.98077888005E+02 -0.10318815251E+03  0.21891106599E+03  0.12500000000E+03 0.  0.
         25    1    1    2    0    0  0.67596302988E+02  0.15094872104E+03 -0.46846244046E+03  0.51228589156E+03  0.12500000000E+03 0.  0.
</event>
<event>
 5    0  0.5668330E-005  0.2110974E+03  0.7546771E-02  0.1140700E+00
         21   -1    0    0  502  501  0.00000000000E+00  0.00000000000E+00  0.14921753268E+03  0.14921753268E+03  0.00000000000E+00 0. -1.
         21   -1    0    0  501  502 -0.00000000000E+00 -0.00000000000E+00 -0.29863848563E+03  0.29863848563E+03  0.00000000000E+00 0. -1.
         25    1    1    2    0    0 -0.10964800812E+02 -0.80740434487E+02 -0.84950011176E+02  0.17169958945E+03  0.12500000000E+03 0.  0.
         25    1    1    2    0    0  0.16012020983E+02  0.59756723564E+02 -0.16100831140E+02  0.14039760536E+03  0.12500000000E+03 0.  0.
         25    1    1    2    0    0 -0.50472201712E+01  0.20983710923E+02 -0.48370110643E+02  0.13575882350E+03  0.12500000000E+03 0.  0.
</event>
<event>
 5    0  0.5668330E-005  0.2174082E+03  0.7546771E-02  0.1135830E+00
         21   -1    0    0  502  501  0.00000000000E+00  0.00000000000E+00  0.20414378056E+03  0.20414378056E+03  0.00000000000E+00 0. -1.
         21   -1    0    0  501  502 -0.00000000000E+00 -0.00000000000E+00 -0.23153445507E+03  0.23153445507E+03  0.00000000000E+00 0. -1.
         25    1    1    2    0    0  0.50805215644E+02 -0.56513256589E+02 -0.23279023424E+02  0.14812775243E+03  0.12500000000E+03 0.  0.
         25    1    1    2    0    0  0.22232935040E+02 -0.16905986061E+01 -0.27092167158E+02  0.12983122523E+03  0.12500000000E+03 0.  0.
         25    1    1    2    0    0 -0.73038150684E+02  0.58203855195E+02  0.22980516079E+02  0.15771925797E+03  0.12500000000E+03 0.  0.
</event>
<event>
 5    0  0.5668330E-005  0.3959144E+03  0.7546771E-02  0.1045204E+00
         21   -1    0    0  502  501  0.00000000000E+00  0.00000000000E+00  0.88285699089E+02  0.88285699089E+02  0.00000000000E+00 0. -1.
         21   -1    0    0  501  502 -0.00000000000E+00 -0.00000000000E+00 -0.17754659280E+04  0.17754659280E+04  0.00000000000E+00 0. -1.
         25    1    1    2    0    0 -0.17077983080E+03 -0.19220563576E+03 -0.93761109438E+03  0.98022870869E+03  0.12500000000E+03 0.  0.
         25    1    1    2    0    0  0.79037508695E+02 -0.64951162455E+02 -0.19817135115E+03  0.25566084116E+03  0.12500000000E+03 0.  0.
         25    1    1    2    0    0  0.91742322101E+02  0.25715679822E+03 -0.55139778343E+03  0.62786207729E+03  0.12500000000E+03 0.  0.
</event>
<event>
 5    0  0.5668330E-005  0.2541470E+03  0.7546771E-02  0.1110712E+00
         21   -1    0    0  502  501  0.00000000000E+00  0.00000000000E+00  0.51044357961E+03  0.51044357961E+03  0.00000000000E+00 0. -1.
         21   -1    0    0  501  502 -0.00000000000E+00 -0.00000000000E+00 -0.12653837617E+03  0.12653837617E+03  0.00000000000E+00 0. -1.
         25    1    1    2    0    0  0.74229120852E+02  0.68430176000E+02  0.26769467269E+03  0.31221481252E+03  0.12500000000E+03 0.  0.
         25    1    1    2    0    0 -0.34279402822E+01 -0.64883045124E+02  0.14846988226E+01  0.14088564387E+03  0.12500000000E+03 0.  0.
         25    1    1    2    0    0 -0.70801180570E+02 -0.35471308759E+01  0.11472583192E+03  0.18388149939E+03  0.12500000000E+03 0.  0.
</event>
<event>
 5    0  0.5668330E-005  0.2618204E+03  0.7546771E-02  0.1106054E+00
         21   -1    0    0  502  501  0.00000000000E+00  0.00000000000E+00  0.35546190918E+03  0.35546190918E+03  0.00000000000E+00 0. -1.
         21   -1    0    0  501  502 -0.00000000000E+00 -0.00000000000E+00 -0.19284742071E+03  0.19284742071E+03  0.00000000000E+00 0. -1.
         25    1    1    2    0    0  0.17133684306E+03  0.13222835425E+02  0.42453133788E+02  0.21669892878E+03  0.12500000000E+03 0.  0.
         25    1    1    2    0    0 -0.85722933698E+02  0.19824384151E+02  0.73896449760E+02  0.16978549071E+03  0.12500000000E+03 0.  0.
         25    1    1    2    0    0 -0.85613909360E+02 -0.33047219576E+02  0.46264904931E+02  0.16182491040E+03  0.12500000000E+03 0.  0.
</event>
<event>
 5    0  0.5668330E-005  0.2057383E+03  0.7546771E-02  0.1144986E+00
         21   -1    0    0  502  501  0.00000000000E+00  0.00000000000E+00  0.12413988763E+03  0.12413988763E+03  0.00000000000E+00 0. -1.
         21   -1    0    0  501  502 -0.00000000000E+00 -0.00000000000E+00 -0.34097215049E+03  0.34097215049E+03  0.00000000000E+00 0. -1.
         25    1    1    2    0    0  0.51258291826E+02  0.36638766471E+02 -0.66743380872E+02  0.15507898175E+03  0.12500000000E+03 0.  0.
         25    1    1    2    0    0  0.10144696118E+02  0.56567133906E+01 -0.75377845086E+02  0.14642995867E+03  0.12500000000E+03 0.  0.
         25    1    1    2    0    0 -0.61402987944E+02 -0.42295479861E+02 -0.74711036901E+02  0.16360309771E+03  0.12500000000E+03 0.  0.
</event>
<event>
 5    0  0.5668330E-005  0.2794977E+03  0.7546771E-02  0.1095964E+00
         21   -1    0    0  502  501  0.00000000000E+00  0.00000000000E+00  0.37962809800E+02  0.37962809800E+02  0.00000000000E+00 0. -1.
         21   -1    0    0  501  502 -0.00000000000E+00 -0.00000000000E+00 -0.20577764000E+04  0.20577764000E+04  0.00000000000E+00 0. -1.
         25    1    1    2    0    0 -0.83960315738E+02 -0.32294514781E+01 -0.27533236074E+03  0.31383542319E+03  0.12500000000E+03 0.  0.
         25    1    1    2    0    0  0.73112910591E+02  0.84435701552E+02 -0.13445399276E+04  0.13549492619E+04  0.12500000000E+03 0.  0.
         25    1    1    2    0    0  0.10847405147E+02 -0.81206250074E+02 -0.39994130191E+03  0.42695452477E+03  0.12500000000E+03 0.  0.
</event>
<event>
 5    0  0.5668330E-005  0.3876482E+03  0.7546771E-02  0.1048143E+00
         21   -1    0    0  502  501  0.00000000000E+00  0.00000000000E+00  0.28879752672E+03  0.28879752672E+03  0.00000000000E+00 0. -1.
         21   -1    0    0  501  502 -0.00000000000E+00 -0.00000000000E+00 -0.52033383063E+03  0.52033383063E+03  0.00000000000E+00 0. -1.
         25    1    1    2    0    0 -0.18036056931E+03  0.32141085261E+02 -0.35564155657E+03  0.41912874047E+03  0.12500000000E+03 0.  0.
         25    1    1    2    0    0  0.14842428620E+03 -0.87737471407E+02  0.12980383624E+03  0.24940262333E+03  0.12500000000E+03 0.  0.
         25    1    1    2    0    0  0.31936283109E+02  0.55596386146E+02 -0.56985835790E+01  0.14059999355E+03  0.12500000000E+03 0.  0.
</event>
<event>
 5    0  0.5668330E-005  0.2671679E+03  0.7546771E-02  0.1102911E+00
         21   -1    0    0  502  501  0.00000000000E+00  0.00000000000E+00  0.27931140877E+03  0.27931140877E+03  0.00000000000E+00 0. -1.
         21   -1    0    0  501  502 -0.00000000000E+00 -0.00000000000E+00 -0.25555241051E+03  0.25555241051E+03  0.00000000000E+00 0. -1.
         25    1    1    2    0    0 -0.11369586899E+03  0.19774932989E+02 -0.44858782921E+02  0.17594064058E+03  0.12500000000E+03 0.  0.
         25    1    1    2    0    0  0.91523827807E+02 -0.11348490079E+03  0.16513196873E+02  0.19275144470E+03  0.12500000000E+03 0.  0.
         25    1    1    2    0    0  0.22172041186E+02  0.93709967803E+02  0.52104584312E+02  0.16617173401E+03  0.12500000000E+03 0.  0.
</event>
<event>
 5    0  0.5668330E-005  0.4102903E+03  0.7546771E-02  0.1040274E+00
         21   -1    0    0  502  501  0.00000000000E+00  0.00000000000E+00  0.91172819594E+02  0.91172819594E+02  0.00000000000E+00 0. -1.
         21   -1    0    0  501  502 -0.00000000000E+00 -0.00000000000E+00 -0.18463633962E+04  0.18463633962E+04  0.00000000000E+00 0. -1.
         25    1    1    2    0    0  0.71138027549E+02  0.14423534952E+03 -0.65989084063E+03  0.69061232002E+03  0.12500000000E+03 0.  0.
         25    1    1    2    0    0  0.91881328412E+02 -0.82870352318E+01 -0.94643113325E+03  0.95909735869E+03  0.12500000000E+03 0.  0.
         25    1    1    2    0    0 -0.16301935596E+03 -0.13594831429E+03 -0.14886860274E+03  0.28782653710E+03  0.12500000000E+03 0.  0.
</event>
<event>
 5    0  0.5668330E-005  0.2935564E+03  0.7546771E-02  0.1088507E+00
         21   -1    0    0  502  501  0.00000000000E+00  0.00000000000E+00  0.12822285143E+03  0.12822285143E+03  0.00000000000E+00 0. -1.
         21   -1    0    0  501  502 -0.00000000000E+00 -0.00000000000E+00 -0.67207471563E+03  0.67207471563E+03  0.00000000000E+00 0. -1.
         25    1    1    2    0    0 -0.13326525224E+02  0.17532346079E+03 -0.20999652929E+03  0.30106387111E+03  0.12500000000E+03 0.  0.
         25    1    1    2    0    0 -0.60303185491E+02 -0.29694929627E+01 -0.81596534340E+02  0.16102262725E+03  0.12500000000E+03 0.  0.
         25    1    1    2    0    0  0.73629710715E+02 -0.17235396782E+03 -0.25225880057E+03  0.33821106869E+03  0.12500000000E+03 0.  0.
</event>
<event>
 5    0  0.5668330E-005  0.3307759E+03  0.7546771E-02  0.1070794E+00
         21   -1    0    0  502  501  0.00000000000E+00  0.00000000000E+00  0.36171806602E+03  0.36171806602E+03  0.00000000000E+00 0.  1.
         21   -1    0    0  501  502 -0.00000000000E+00 -0.00000000000E+00 -0.30248060463E+03  0.30248060463E+03  0.00000000000E+00 0.  1.
         25    1    1    2    0    0  0.12495124627E+03  0.96673625399E+01 -0.12063041029E+03  0.21420309926E+03  0.12500000000E+03 0.  0.
         25    1    1    2    0    0 -0.13428417475E+03 -0.13995809258E+03  0.85753851149E+02  0.24616910906E+03  0.12500000000E+03 0.  0.
         25    1    1    2    0    0  0.93329284784E+01  0.13029073004E+03  0.94114020534E+02  0.20382646234E+03  0.12500000000E+03 0.  0.
</event>
<event>
 5    0  0.5668330E-005  0.2561025E+03  0.7546771E-02  0.1109508E+00
         21   -1    0    0  502  501  0.00000000000E+00  0.00000000000E+00  0.17044510488E+04  0.17044510488E+04  0.00000000000E+00 0. -1.
         21   -1    0    0  501  502 -0.00000000000E+00 -0.00000000000E+00 -0.38480725230E+02  0.38480725230E+02  0.00000000000E+00 0. -1.
         25    1    1    2    0    0  0.26228396448E+02 -0.38063343047E+02  0.15246673215E+03  0.20250395373E+03  0.12500000000E+03 0.  0.
         25    1    1    2    0    0 -0.76933375130E+02  0.21893568767E+02  0.89072474075E+03  0.90300256719E+03  0.12500000000E+03 0.  0.
         25    1    1    2    0    0  0.50704978681E+02  0.16169774280E+02  0.62277885065E+03  0.63742525309E+03  0.12500000000E+03 0.  0.
</event>
<event>
 5    0  0.5668330E-005  0.2608356E+03  0.7546771E-02  0.1106642E+00
         21   -1    0    0  502  501  0.00000000000E+00  0.00000000000E+00  0.14480296313E+04  0.14480296313E+04  0.00000000000E+00 0.  1.
         21   -1    0    0  501  502 -0.00000000000E+00 -0.00000000000E+00 -0.46984673999E+02  0.46984673999E+02  0.00000000000E+00 0.  1.
         25    1    1    2    0    0  0.59977954642E+01  0.22692185487E+02  0.72712917050E+03  0.73816850341E+03  0.12500000000E+03 0.  0.
         25    1    1    2    0    0  0.41306851427E+02 -0.69690394197E+02  0.13988642382E+03  0.20434338401E+03  0.12500000000E+03 0.  0.
         25    1    1    2    0    0 -0.47304646891E+02  0.46998208711E+02  0.53402936295E+03  0.55250241786E+03  0.12500000000E+03 0.  0.
</event>
<event>
 5    0  0.5668330E-005  0.3287272E+03  0.7546771E-02  0.1071701E+00
         21   -1    0    0  502  501  0.00000000000E+00  0.00000000000E+00  0.75689592756E+03  0.75689592756E+03  0.00000000000E+00 0. -1.
         21   -1    0    0  501  502 -0.00000000000E+00 -0.00000000000E+00 -0.14276943216E+03  0.14276943216E+03  0.00000000000E+00 0. -1.
         25    1    1    2    0    0  0.17003122481E+03  0.12473413773E+03  0.18999736115E+03  0.31015031803E+03  0.12500000000E+03 0.  0.
         25    1    1    2    0    0 -0.10683991428E+03 -0.14970920778E+03  0.38047047476E+03  0.44069308633E+03  0.12500000000E+03 0.  0.
         25    1    1    2    0    0 -0.63191310530E+02  0.24975070042E+02  0.43658659487E+02  0.14882195536E+03  0.12500000000E+03 0.  0.
</event>
<event>
 5    0  0.5668330E-005  0.2261128E+03  0.7546771E-02  0.1129406E+00
         21   -1    0    0  502  501  0.00000000000E+00  0.00000000000E+00  0.14646162886E+03  0.14646162886E+03  0.00000000000E+00 0. -1.
         21   -1    0    0  501  502 -0.00000000000E+00 -0.00000000000E+00 -0.34908112332E+03  0.34908112332E+03  0.00000000000E+00 0. -1.
         25    1    1    2    0    0 -0.86460628686E+02  0.17103987005E+02  0.94206133959E+01  0.15323751055E+03  0.12500000000E+03 0.  0.
         25    1    1    2    0    0  0.24058361260E+02 -0.18825122599E+02 -0.93288336954E+02  0.15893679184E+03  0.12500000000E+03 0.  0.
         25    1    1    2    0    0  0.62402267426E+02  0.17211355932E+01 -0.11875177089E+03  0.18336844979E+03  0.12500000000E+03 0.  0.
</event>
<event>
 5    0  0.5668330E-005  0.4575252E+03  0.7546771E-02  0.1025501E+00
         21   -1    0    0  502  501  0.00000000000E+00  0.00000000000E+00  0.21219101086E+04  0.21219101086E+04  0.00000000000E+00 0. -1.
         21   -1    0    0  501  502 -0.00000000000E+00 -0.00000000000E+00 -0.98651354178E+02  0.98651354178E+02  0.00000000000E+00 0. -1.
         25    1    1    2    0    0  0.15688974552E+03  0.45209218199E+02  0.52385051273E+03  0.56276338309E+03  0.12500000000E+03 0.  0.
         25    1    1    2    0    0 -0.23359722042E+03 -0.72652436296E+02  0.17656596644E+03  0.32656787716E+03  0.12500000000E+03 0.  0.
         25    1    1    2    0    0  0.76707474900E+02  0.27443218096E+02  0.13228422753E+04  0.13312302026E+04  0.12500000000E+03 0.  0.
</event>
<event>
 5    0  0.5668330E-005  0.5291421E+03  0.7546771E-02  0.1006440E+00
         21   -1    0    0  502  501  0.00000000000E+00  0.00000000000E+00  0.77406487971E+03  0.77406487971E+03  0.00000000000E+00 0. -1.
         21   -1    0    0  501  502 -0.00000000000E+00 -0.00000000000E+00 -0.36171556766E+03  0.36171556766E+03  0.00000000000E+00 0. -1.
         25    1    1    2    0    0  0.27247089049E+02 -0.39043439777E+03  0.18153041028E+03  0.44917670540E+03  0.12500000000E+03 0.  0.
         25    1    1    2    0    0  0.11959438848E+03 -0.46992676982E+01 -0.29622864425E+02  0.17557737602E+03  0.12500000000E+03 0.  0.
         25    1    1    2    0    0 -0.14684147753E+03  0.39513366546E+03  0.26044176620E+03  0.51102636595E+03  0.12500000000E+03 0.  0.
</event>
<event>
 5    0  0.5668330E-005  0.2745932E+03  0.7546771E-02  0.1098679E+00
         21   -1    0    0  502  501  0.00000000000E+00  0.00000000000E+00  0.11898947502E+03  0.11898947502E+03  0.00000000000E+00 0. -1.
         21   -1    0    0  501  502 -0.00000000000E+00 -0.00000000000E+00 -0.63368135545E+03  0.63368135545E+03  0.00000000000E+00 0. -1.
         25    1    1    2    0    0 -0.65110082289E+02 -0.13167015020E+03 -0.28616654976E+03  0.34509802299E+03  0.12500000000E+03 0.  0.
         25    1    1    2    0    0  0.97134296041E+02  0.13207242649E+03 -0.16321107460E+03  0.26294686189E+03  0.12500000000E+03 0.  0.
         25    1    1    2    0    0 -0.32024213752E+02 -0.40227628683E+00 -0.65314256058E+02  0.14462594559E+03  0.12500000000E+03 0.  0.
</event>
<event>
 5    0  0.5668330E-005  0.2704348E+03  0.7546771E-02  0.1101031E+00
         21   -1    0    0  502  501  0.00000000000E+00  0.00000000000E+00  0.73611247564E+02  0.73611247564E+02  0.00000000000E+00 0.  1.
         21   -1    0    0  501  502 -0.00000000000E+00 -0.00000000000E+00 -0.99352984820E+03  0.99352984820E+03  0.00000000000E+00 0.  1.
         25    1    1    2    0    0 -0.10564420562E+03 -0.11407401675E+03 -0.37588363606E+03  0.42554328492E+03  0.12500000000E+03 0.  0.
         25    1    1    2    0    0  0.10180703026E+03  0.42669214646E+02 -0.41869216335E+03  0.45068110781E+03  0.12500000000E+03 0.  0.
         25    1    1    2    0    0  0.38371753539E+01  0.71404802104E+02 -0.12534280122E+03  0.19091670303E+03  0.12500000000E+03 0.  0.
</event>
<event>
 5    0  0.5668330E-005  0.6293228E+03  0.7546771E-02  0.9846371E-01
         21   -1    0    0  502  501  0.00000000000E+00  0.00000000000E+00  0.14588740554E+04  0.14588740554E+04  0.00000000000E+00 0. -1.
         21   -1    0    0  501  502 -0.00000000000E+00 -0.00000000000E+00 -0.27147452453E+03  0.27147452453E+03  0.00000000000E+00 0. -1.
         25    1    1    2    0    0  0.40749155222E+03 -0.27123978499E+02  0.10239701240E+04  0.11094705450E+04  0.12500000000E+03 0.  0.
         25    1    1    2    0    0 -0.24109611508E+03  0.10392545553E+03 -0.69756057078E+02  0.29902967162E+03  0.12500000000E+03 0.  0.
         25    1    1    2    0    0 -0.16639543714E+03 -0.76801477029E+02  0.23318546393E+03  0.32184836330E+03  0.12500000000E+03 0.  0.
</event>
<event>
 5    0  0.5668330E-005  0.3157494E+03  0.7546771E-02  0.1077622E+00
         21   -1    0    0  502  501  0.00000000000E+00  0.00000000000E+00  0.16903960959E+03  0.16903960959E+03  0.00000000000E+00 0. -1.
         21   -1    0    0  501  502 -0.00000000000E+00 -0.00000000000E+00 -0.58978874949E+03  0.58978874949E+03  0.00000000000E+00 0. -1.
         25    1    1    2    0    0  0.16437247237E+03 -0.55290733366E+02 -0.25032360688E+03  0.32918426911E+03  0.12500000000E+03 0.  0.
         25    1    1    2    0    0 -0.14622780165E+03  0.13641849597E+03 -0.14649234171E+03  0.27762849674E+03  0.12500000000E+03 0.  0.
         25    1    1    2    0    0 -0.18144670714E+02 -0.81127762604E+02 -0.23933191321E+02  0.15201559324E+03  0.12500000000E+03 0.  0.
</event>
<event>
 5    0  0.5668330E-005  0.2961865E+03  0.7546771E-02  0.1087163E+00
         21   -1    0    0  502  501  0.00000000000E+00  0.00000000000E+00  0.57910325474E+02  0.57910325474E+02  0.00000000000E+00 0. -1.
         21   -1    0    0  501  502 -0.00000000000E+00 -0.00000000000E+00 -0.15148669110E+04  0.15148669110E+04  0.00000000000E+00 0. -1.
         25    1    1    2    0    0  0.14177524657E+03  0.11004396558E+03 -0.76564576796E+03  0.79627152209E+03  0.12500000000E+03 0.  0.
         25    1    1    2    0    0 -0.40145583620E+02 -0.10570470063E+03 -0.21207893485E+03  0.27090150650E+03  0.12500000000E+03 0.  0.
         25    1    1    2    0    0 -0.10162966295E+03 -0.43392649541E+01 -0.47923188273E+03  0.50560420789E+03  0.12500000000E+03 0.  0.
</event>
<event>
 5    0  0.5668330E-005  0.3266637E+03  0.7546771E-02  0.1072623E+00
         21   -1    0    0  502  501  0.00000000000E+00  0.00000000000E+00  0.95858848072E+03  0.95858848072E+03  0.00000000000E+00 0. -1.
         21   -1    0    0  501  502 -0.00000000000E+00 -0.00000000000E+00 -0.11131907314E+03  0.11131907314E+03  0.00000000000E+00 0. -1.
         25    1    1    2    0    0 -0.96303315769E+02  0.32772005282E+02  0.36257881693E+02  0.16519069872E+03  0.12500000000E+03 0.  0.
         25    1    1    2    0    0 -0.32830015455E+02 -0.10200365869E+03  0.17540353136E+03  0.24057006279E+03  0.12500000000E+03 0.  0.
         25    1    1    2    0    0  0.12913333122E+03  0.69231653403E+02  0.63560799454E+03  0.66414679235E+03  0.12500000000E+03 0.  0.
</event>
<event>
 5    0  0.5668330E-005  0.2595409E+03  0.7546771E-02  0.1107419E+00
         21   -1    0    0  502  501  0.00000000000E+00  0.00000000000E+00  0.16224034759E+03  0.16224034759E+03  0.00000000000E+00 0. -1.
         21   -1    0    0  501  502 -0.00000000000E+00 -0.00000000000E+00 -0.41519571547E+03  0.41519571547E+03  0.00000000000E+00 0. -1.
         25    1    1    2    0    0  0.83127739176E+00 -0.24035933251E+02 -0.51254223494E+02  0.13722395030E+03  0.12500000000E+03 0.  0.
         25    1    1    2    0    0  0.16422062017E+02 -0.60074602261E+02 -0.24543251308E+03  0.28238406547E+03  0.12500000000E+03 0.  0.
         25    1    1    2    0    0 -0.17253339409E+02  0.84110535512E+02  0.43731368684E+02  0.15782804729E+03  0.12500000000E+03 0.  0.
</event>
<event>
 5    0  0.5668330E-005  0.3172778E+03  0.7546771E-02  0.1076909E+00
         21   -1    0    0  502  501  0.00000000000E+00  0.00000000000E+00  0.17878257751E+04  0.17878257751E+04  0.00000000000E+00 0.  1.
         21   -1    0    0  501  502 -0.00000000000E+00 -0.00000000000E+00 -0.56305935729E+02  0.56305935729E+02  0.00000000000E+00 0.  1.
         25    1    1    2    0    0  0.11841854715E+03  0.87206453111E+02  0.51157143160E+03  0.54677074483E+03  0.12500000000E+03 0.  0.
         25    1    1    2    0    0  0.98948262363E+02 -0.28944785858E+02  0.68211946205E+03  0.70109950774E+03  0.12500000000E+03 0.  0.
         25    1    1    2    0    0 -0.21736680951E+03 -0.58261667253E+02  0.53782894576E+03  0.59626145829E+03  0.12500000000E+03 0.  0.
</event>
<event>
 5    0  0.7245316E-005  0.2732637E+03  0.7546771E-02  0.1099426E+00
         21   -1    0    0  502  501  0.00000000000E+00  0.00000000000E+00  0.16199152995E+03  0.16199152995E+03  0.00000000000E+00 0.  1.
         21   -1    0    0  501  502 -0.00000000000E+00 -0.00000000000E+00 -0.46096877808E+03  0.46096877808E+03  0.00000000000E+00 0.  1.
         25    1    1    2    0    0  0.39039715948E+02 -0.11189070888E+03  0.31038389861E+02  0.17502003257E+03  0.12500000000E+03 0.  0.
         25    1    1    2    0    0 -0.45186646775E+02  0.23424414134E+02 -0.22423243379E+03  0.26171687104E+03  0.12500000000E+03 0.  0.
         25    1    1    2    0    0  0.61469308265E+01  0.88466294749E+02 -0.10578320420E+03  0.18622340443E+03  0.12500000000E+03 0.  0.
</event>
<event>
 5    0  0.5668330E-005  0.5116314E+03  0.7546771E-02  0.1010787E+00
         21   -1    0    0  502  501  0.00000000000E+00  0.00000000000E+00  0.37806733774E+03  0.37806733774E+03  0.00000000000E+00 0. -1.
         21   -1    0    0  501  502 -0.00000000000E+00 -0.00000000000E+00 -0.69238103448E+03  0.69238103448E+03  0.00000000000E+00 0. -1.
         25    1    1    2    0    0  0.18311445949E+03 -0.29623905037E+03  0.37864081241E+02  0.37195049253E+03  0.12500000000E+03 0.  0.
         25    1    1    2    0    0 -0.10701803482E+03  0.50574877825E+02 -0.37399993239E+03  0.41171789792E+03  0.12500000000E+03 0.  0.
         25    1    1    2    0    0 -0.76096424672E+02  0.24566417255E+03  0.21822154406E+02  0.28677998177E+03  0.12500000000E+03 0.  0.
</event>
<event>
 5    0  0.5771851E-005  0.3864950E+03  0.7546771E-02  0.1048559E+00
         21   -1    0    0  502  501  0.00000000000E+00  0.00000000000E+00  0.20194502135E+03  0.20194502135E+03  0.00000000000E+00 0. -1.
         21   -1    0    0  501  502 -0.00000000000E+00 -0.00000000000E+00 -0.73969842882E+03  0.73969842882E+03  0.00000000000E+00 0. -1.
         25    1    1    2    0    0 -0.97481626896E+02 -0.20928507923E+03 -0.84199642651E+01  0.26267624135E+03  0.12500000000E+03 0.  0.
         25    1    1    2    0    0  0.10882388597E+03  0.14276697070E+03 -0.12847632647E+03  0.25368526277E+03  0.12500000000E+03 0.  0.
         25    1    1    2    0    0 -0.11342259076E+02  0.66518108533E+02 -0.40085711673E+03  0.42528194605E+03  0.12500000000E+03 0.  0.
</event>
<event>
 5    0  0.5668330E-005  0.2664729E+03  0.7546771E-02  0.1103315E+00
         21   -1    0    0  502  501  0.00000000000E+00  0.00000000000E+00  0.95071734995E+03  0.95071734995E+03  0.00000000000E+00 0. -1.
         21   -1    0    0  501  502 -0.00000000000E+00 -0.00000000000E+00 -0.74688652620E+02  0.74688652620E+02  0.00000000000E+00 0. -1.
         25    1    1    2    0    0 -0.68845464628E+02  0.47221756021E+02  0.12435950050E+03  0.19508940927E+03  0.12500000000E+03 0.  0.
         25    1    1    2    0    0  0.20240078911E+02  0.94014662343E+02  0.32089489263E+03  0.35755691805E+03  0.12500000000E+03 0.  0.
         25    1    1    2    0    0  0.48605385717E+02 -0.14123641836E+03  0.43077430419E+03  0.47275967525E+03  0.12500000000E+03 0.  0.
</event>
<event>
 5    0  0.5668330E-005  0.5301610E+03  0.7546771E-02  0.1006193E+00
         21   -1    0    0  502  501  0.00000000000E+00  0.00000000000E+00  0.25578378960E+03  0.25578378960E+03  0.00000000000E+00 0. -1.
         21   -1    0    0  501  502 -0.00000000000E+00 -0.00000000000E+00 -0.10988602520E+04  0.10988602520E+04  0.00000000000E+00 0. -1.
         25    1    1    2    0    0  0.42749141984E+02 -0.10994094715E+03 -0.35667333959E+03  0.39592344231E+03  0.12500000000E+03 0.  0.
         25    1    1    2    0    0 -0.23057171642E+03  0.38319512500E+03 -0.33896935141E+03  0.57491481232E+03  0.12500000000E+03 0.  0.
         25    1    1    2    0    0  0.18782257444E+03 -0.27325417785E+03 -0.14743377145E+03  0.38380578702E+03  0.12500000000E+03 0.  0.
</event>
<event>
 5    0  0.5668330E-005  0.4383863E+03  0.7546771E-02  0.1031243E+00
         21   -1    0    0  502  501  0.00000000000E+00  0.00000000000E+00  0.31668351768E+03  0.31668351768E+03  0.00000000000E+00 0.  1.
         21   -1    0    0  501  502 -0.00000000000E+00 -0.00000000000E+00 -0.60685991906E+03  0.60685991906E+03  0.00000000000E+00 0.  1.
         25    1    1    2    0    0  0.17053331395E+02  0.31829498146E+03  0.74735251748E+02  0.35044667096E+03  0.12500000000E+03 0.  0.
         25    1    1    2    0    0 -0.86355951160E+02 -0.13323061582E+03 -0.12257294187E+03  0.23634058765E+03  0.12500000000E+03 0.  0.
         25    1    1    2    0    0  0.69302619765E+02 -0.18506436563E+03 -0.24233871126E+03  0.33675617813E+03  0.12500000000E+03 0.  0.
</event>
<event>
 5    0  0.5668330E-005  0.3765455E+03  0.7546771E-02  0.1052218E+00
         21   -1    0    0  502  501  0.00000000000E+00  0.00000000000E+00  0.31810485376E+03  0.31810485376E+03  0.00000000000E+00 0.  1.
         21   -1    0    0  501  502 -0.00000000000E+00 -0.00000000000E+00 -0.44572249045E+03  0.44572249045E+03  0.00000000000E+00 0. -1.
         25    1    1    2    0    0 -0.10649439488E+03 -0.52839206239E+02  0.25114310045E+02  0.17432374028E+03  0.12500000000E+03 0.  0.
         25    1    1    2    0    0 -0.18070962962E+03 -0.73286682148E+02 -0.57322964740E+02  0.23861649210E+03  0.12500000000E+03 0.  0.
         25    1    1    2    0    0  0.28720402449E+03  0.12612588839E+03 -0.95408981991E+02  0.35088711183E+03  0.12500000000E+03 0.  0.
</event>
<event>
 5    0  0.5668330E-005  0.2744249E+03  0.7546771E-02  0.1098774E+00
         21   -1    0    0  502  501  0.00000000000E+00  0.00000000000E+00  0.20446902414E+03  0.20446902414E+03  0.00000000000E+00 0.  1.
         21   -1    0    0  501  502 -0.00000000000E+00 -0.00000000000E+00 -0.36831503507E+03  0.36831503507E+03  0.00000000000E+00 0.  1.
         25    1    1    2    0    0  0.40184026532E+02 -0.95034863411E+02 -0.77774223325E+02  0.17977822745E+03  0.12500000000E+03 0.  0.
         25    1    1    2    0    0 -0.41271270817E+02  0.13919913956E+03  0.55090099960E+02  0.19934803075E+03  0.12500000000E+03 0.  0.
         25    1    1    2    0    0  0.10872442848E+01 -0.44164276150E+02 -0.14116188757E+03  0.19365780101E+03  0.12500000000E+03 0.  0.
</event>
<event>
 5    0  0.5668330E-005  0.2790056E+03  0.7546771E-02  0.1096233E+00
         21   -1    0    0  502  501  0.00000000000E+00  0.00000000000E+00  0.56314497311E+03  0.56314497311E+03  0.00000000000E+00 0.  1.
         21   -1    0    0  501  502 -0.00000000000E+00 -0.00000000000E+00 -0.13823107712E+03  0.13823107712E+03  0.00000000000E+00 0.  1.
         25    1    1    2    0    0 -0.98532713091E+02  0.84993706735E+02  0.21858777653E+03  0.28344001443E+03  0.12500000000E+03 0.  0.
         25    1    1    2    0    0  0.11526902367E+03  0.49769528721E+02  0.12135044872E+03  0.21474376641E+03  0.12500000000E+03 0.  0.
         25    1    1    2    0    0 -0.16736310581E+02 -0.13476323546E+03  0.84975670735E+02  0.20319226939E+03  0.12500000000E+03 0.  0.
</event>
<event>
 5    0  0.5668330E-005  0.2275712E+03  0.7546771E-02  0.1128361E+00
         21   -1    0    0  502  501  0.00000000000E+00  0.00000000000E+00  0.28057303145E+03  0.28057303145E+03  0.00000000000E+00 0.  1.
         21   -1    0    0  501  502 -0.00000000000E+00 -0.00000000000E+00 -0.18458165905E+03  0.18458165905E+03  0.00000000000E+00 0.  1.
         25    1    1    2    0    0 -0.22263333179E+02 -0.69035890484E+02  0.68758213643E+02  0.16004468789E+03  0.12500000000E+03 0.  0.
         25    1    1    2    0    0 -0.17968487283E+02  0.39966975612E+02  0.86432533114E+02  0.15816386583E+03  0.12500000000E+03 0.  0.
         25    1    1    2    0    0  0.40231820461E+02  0.29068914872E+02 -0.59199374351E+02  0.14694613677E+03  0.12500000000E+03 0.  0.
</event>
<event>
 5    0  0.5668330E-005  0.2099981E+03  0.7546771E-02  0.1141567E+00
         21   -1    0    0  502  501  0.00000000000E+00  0.00000000000E+00  0.55567211919E+03  0.55567211919E+03  0.00000000000E+00 0.  1.
         21   -1    0    0  501  502 -0.00000000000E+00 -0.00000000000E+00 -0.79361917224E+02  0.79361917224E+02  0.00000000000E+00 0.  1.
         25    1    1    2    0    0  0.74877998476E+01  0.12681258690E+02  0.86694002953E+02  0.15283236443E+03  0.12500000000E+03 0.  0.
         25    1    1    2    0    0 -0.18446201527E+02 -0.47579723928E+02  0.28421235328E+03  0.31465179840E+03  0.12500000000E+03 0.  0.
         25    1    1    2    0    0  0.10958401680E+02  0.34898465238E+02  0.10540384573E+03  0.16754987358E+03  0.12500000000E+03 0.  0.
</event>
<event>
 5    0  0.5668330E-005  0.2859659E+03  0.7546771E-02  0.1092474E+00
         21   -1    0    0  502  501  0.00000000000E+00  0.00000000000E+00  0.17697319493E+03  0.17697319493E+03  0.00000000000E+00 0. -1.
         21   -1    0    0  501  502 -0.00000000000E+00 -0.00000000000E+00 -0.46208400971E+03  0.46208400971E+03  0.00000000000E+00 0. -1.
         25    1    1    2    0    0  0.53971719475E+02 -0.15012524355E+03 -0.21333175323E+03  0.29425494421E+03  0.12500000000E+03 0.  0.
         25    1    1    2    0    0  0.22731059601E+02  0.14170547313E+03 -0.38290044239E+02  0.19413466891E+03  0.12500000000E+03 0.  0.
         25    1    1    2    0    0 -0.76702779076E+02  0.84197704265E+01 -0.33489017310E+02  0.15066759151E+03  0.12500000000E+03 0.  0.
</event>
<event>
 5    0  0.5668330E-005  0.5295016E+03  0.7546771E-02  0.1006353E+00
         21   -1    0    0  502  501  0.00000000000E+00  0.00000000000E+00  0.52985821907E+03  0.52985821907E+03  0.00000000000E+00 0. -1.
         21   -1    0    0  501  502 -0.00000000000E+00 -0.00000000000E+00 -0.52914516037E+03  0.52914516037E+03  0.00000000000E+00 0. -1.
         25    1    1    2    0    0 -0.16145229988E+02  0.45687091461E+03 -0.39707858142E+02  0.47559795528E+03  0.12500000000E+03 0.  0.
         25    1    1    2    0    0 -0.40677378271E+01 -0.39619357492E+02  0.65518186387E+02  0.14664198828E+03  0.12500000000E+03 0.  0.
         25    1    1    2    0    0  0.20212967815E+02 -0.41725155712E+03 -0.25097269538E+02  0.43676343588E+03  0.12500000000E+03 0.  0.
</event>
<event>
 5    0  0.5668330E-005  0.2017922E+03  0.7546771E-02  0.1148236E+00
         21   -1    0    0  502  501  0.00000000000E+00  0.00000000000E+00  0.40914879048E+03  0.40914879048E+03  0.00000000000E+00 0.  1.
         21   -1    0    0  501  502 -0.00000000000E+00 -0.00000000000E+00 -0.99523874734E+02  0.99523874734E+02  0.00000000000E+00 0.  1.
         25    1    1    2    0    0 -0.42180218824E+01 -0.24612409634E+02  0.51060650980E+02  0.13731624993E+03  0.12500000000E+03 0.  0.
         25    1    1    2    0    0  0.15741472071E+02  0.97195065380E+01  0.70331107045E+02  0.14461579225E+03  0.12500000000E+03 0.  0.
         25    1    1    2    0    0 -0.11523450188E+02  0.14892903096E+02  0.18823315772E+03  0.22674062303E+03  0.12500000000E+03 0.  0.
</event>
<event>
 5    0  0.5668330E-005  0.2282286E+03  0.7546771E-02  0.1127893E+00
         21   -1    0    0  502  501  0.00000000000E+00  0.00000000000E+00  0.61397607673E+03  0.61397607673E+03  0.00000000000E+00 0. -1.
         21   -1    0    0  501  502 -0.00000000000E+00 -0.00000000000E+00 -0.84837640989E+02  0.84837640989E+02  0.00000000000E+00 0. -1.
         25    1    1    2    0    0 -0.84783202378E+02  0.32852994895E+02  0.14232681096E+03  0.21011766179E+03  0.12500000000E+03 0.  0.
         25    1    1    2    0    0 -0.18228706621E+02  0.20740042488E+02  0.16193237570E+03  0.20642075818E+03  0.12500000000E+03 0.  0.
         25    1    1    2    0    0  0.10301190900E+03 -0.53593037384E+02  0.22487924909E+03  0.28227529775E+03  0.12500000000E+03 0.  0.
</event>
<event>
 5    0  0.5668330E-005  0.3363779E+03  0.7546771E-02  0.1068349E+00
         21   -1    0    0  502  501  0.00000000000E+00  0.00000000000E+00  0.71982383886E+03  0.71982383886E+03  0.00000000000E+00 0.  1.
         21   -1    0    0  501  502 -0.00000000000E+00 -0.00000000000E+00 -0.15719137080E+03  0.15719137080E+03  0.00000000000E+00 0.  1.
         25    1    1    2    0    0  0.79118525294E+02  0.10430730644E+03  0.13216947158E+03  0.22412836598E+03  0.12500000000E+03 0.  0.
         25    1    1    2    0    0 -0.91776773776E+02  0.11559321981E+03  0.32572386206E+03  0.37882159783E+03  0.12500000000E+03 0.  0.
         25    1    1    2    0    0  0.12658248482E+02 -0.21990052625E+03  0.10473913443E+03  0.27406524585E+03  0.12500000000E+03 0.  0.
</event>
<event>
 5    0  0.5668330E-005  0.2944007E+03  0.7546771E-02  0.1088074E+00
         21   -1    0    0  502  501  0.00000000000E+00  0.00000000000E+00  0.47836773605E+03  0.47836773605E+03  0.00000000000E+00 0. -1.
         21   -1    0    0  501  502 -0.00000000000E+00 -0.00000000000E+00 -0.18118229213E+03  0.18118229213E+03  0.00000000000E+00 0. -1.
         25    1    1    2    0    0  0.15531146085E+03  0.87291991680E+02  0.15487212426E+03  0.26711779528E+03  0.12500000000E+03 0.  0.
         25    1    1    2    0    0 -0.58894548595E+02  0.29574546383E+02 -0.13174558024E+02  0.14192177644E+03  0.12500000000E+03 0.  0.
         25    1    1    2    0    0 -0.96416912255E+02 -0.11686653806E+03  0.15548787769E+03  0.25051045646E+03  0.12500000000E+03 0.  0.
</event>
<event>
 5    0  0.6244380E-005  0.2496726E+03  0.7546771E-02  0.1113512E+00
         21   -1    0    0  502  501  0.00000000000E+00  0.00000000000E+00  0.33408070138E+03  0.33408070138E+03  0.00000000000E+00 0.  1.
         21   -1    0    0  501  502 -0.00000000000E+00 -0.00000000000E+00 -0.18659084577E+03  0.18659084577E+03  0.00000000000E+00 0.  1.
         25    1    1    2    0    0 -0.58037782002E+01  0.43882555817E+02  0.76843855212E+02  0.15326232619E+03  0.12500000000E+03 0.  0.
         25    1    1    2    0    0  0.27592720216E+02 -0.25852755160E+02  0.16342277359E+03  0.20919303546E+03  0.12500000000E+03 0.  0.
         25    1    1    2    0    0 -0.21788942016E+02 -0.18029800656E+02 -0.92776773191E+02  0.15821618549E+03  0.12500000000E+03 0.  0.
</event>
<event>
 5    0  0.5668330E-005  0.5112423E+03  0.7546771E-02  0.1010885E+00
         21   -1    0    0  502  501  0.00000000000E+00  0.00000000000E+00  0.76188737925E+03  0.76188737925E+03  0.00000000000E+00 0. -1.
         21   -1    0    0  501  502 -0.00000000000E+00 -0.00000000000E+00 -0.34305427870E+03  0.34305427870E+03  0.00000000000E+00 0. -1.
         25    1    1    2    0    0 -0.27307875614E+03  0.25998565096E+02  0.43433714039E+03  0.52869810285E+03  0.12500000000E+03 0.  0.
         25    1    1    2    0    0  0.36196834625E+03  0.24874735508E+02  0.75022036748E+02  0.39101552674E+03  0.12500000000E+03 0.  0.
         25    1    1    2    0    0 -0.88889590116E+02 -0.50873300604E+02 -0.90526076590E+02  0.18522802835E+03  0.12500000000E+03 0.  0.
</event>
<event>
 5    0  0.5668330E-005  0.3543849E+03  0.7546771E-02  0.1060830E+00
         21   -1    0    0  502  501  0.00000000000E+00  0.00000000000E+00  0.17474308694E+03  0.17474308694E+03  0.00000000000E+00 0. -1.
         21   -1    0    0  501  502 -0.00000000000E+00 -0.00000000000E+00 -0.71870466179E+03  0.71870466179E+03  0.00000000000E+00 0. -1.
         25    1    1    2    0    0 -0.17052548566E+03  0.21489853931E+03 -0.29421066081E+03  0.42124249120E+03  0.12500000000E+03 0.  0.
         25    1    1    2    0    0  0.41400032508E+02 -0.16806426345E+03 -0.15404210528E+03  0.26327462760E+03  0.12500000000E+03 0.  0.
         25    1    1    2    0    0  0.12912545315E+03 -0.46834275860E+02 -0.95708808767E+02  0.20893062993E+03  0.12500000000E+03 0.  0.
</event>
<event>
 5    0  0.5668330E-005  0.3165206E+03  0.7546771E-02  0.1077262E+00
         21   -1    0    0  502  501  0.00000000000E+00  0.00000000000E+00  0.55419926272E+03  0.55419926272E+03  0.00000000000E+00 0.  1.
         21   -1    0    0  501  502 -0.00000000000E+00 -0.00000000000E+00 -0.18077487237E+03  0.18077487237E+03  0.00000000000E+00 0.  1.
         25    1    1    2    0    0  0.17897572187E+03 -0.17682738177E+01  0.22354582591E+02  0.21945423936E+03  0.12500000000E+03 0.  0.
         25    1    1    2    0    0 -0.10131851691E+03  0.32296877840E+02  0.38314122501E+02  0.16852745228E+03  0.12500000000E+03 0.  0.
         25    1    1    2    0    0 -0.77657204957E+02 -0.30528604022E+02  0.31275568526E+03  0.34699244345E+03  0.12500000000E+03 0.  0.
</event>
<event>
 5    0  0.5668330E-005  0.3947106E+03  0.7546771E-02  0.1045627E+00
         21   -1    0    0  502  501  0.00000000000E+00  0.00000000000E+00  0.20012069022E+04  0.20012069022E+04  0.00000000000E+00 0. -1.
         21   -1    0    0  501  502 -0.00000000000E+00 -0.00000000000E+00 -0.77851239967E+02  0.77851239967E+02  0.00000000000E+00 0. -1.
         25    1    1    2    0    0 -0.27644675263E+02 -0.66158863599E+02  0.25163523666E+03  0.28997675015E+03  0.12500000000E+03 0.  0.
         25    1    1    2    0    0 -0.14305116320E+03  0.68871427134E+02  0.15081855117E+04  0.15216620671E+04  0.12500000000E+03 0.  0.
         25    1    1    2    0    0  0.17069583847E+03 -0.27125635344E+01  0.16353491385E+03  0.26741932488E+03  0.12500000000E+03 0.  0.
</event>
<event>
 5    0  0.5668330E-005  0.2707226E+03  0.7546771E-02  0.1100867E+00
         21   -1    0    0  502  501  0.00000000000E+00  0.00000000000E+00  0.61293856917E+03  0.61293856917E+03  0.00000000000E+00 0. -1.
         21   -1    0    0  501  502 -0.00000000000E+00 -0.00000000000E+00 -0.11957273714E+03  0.11957273714E+03  0.00000000000E+00 0. -1.
         25    1    1    2    0    0  0.45031088758E+02 -0.11952389065E+03  0.20348238511E+03  0.27082067949E+03  0.12500000000E+03 0.  0.
         25    1    1    2    0    0  0.74833323784E+02  0.22478635309E+02  0.18693305801E+03  0.23806361244E+03  0.12500000000E+03 0.  0.
         25    1    1    2    0    0 -0.11986441254E+03  0.97045255340E+02  0.10295038892E+03  0.22362701437E+03  0.12500000000E+03 0.  0.
</event>
<event>
 5    0  0.5821647E-005  0.2630013E+03  0.7546771E-02  0.1105353E+00
         21   -1    0    0  502  501  0.00000000000E+00  0.00000000000E+00  0.80581027777E+03  0.80581027777E+03  0.00000000000E+00 0. -1.
         21   -1    0    0  501  502 -0.00000000000E+00 -0.00000000000E+00 -0.85838647298E+02  0.85838647298E+02  0.00000000000E+00 0. -1.
         25    1    1    2    0    0  0.11564039313E+03  0.20786941885E+02  0.20349873960E+03  0.26616073057E+03  0.12500000000E+03 0.  0.
         25    1    1    2    0    0 -0.13030318110E+03 -0.83931017022E+02  0.21669474041E+03  0.29428718141E+03  0.12500000000E+03 0.  0.
         25    1    1    2    0    0  0.14662787964E+02  0.63144075137E+02  0.29977815046E+03  0.33120101309E+03  0.12500000000E+03 0.  0.
</event>
<event>
 5    0  0.5668330E-005  0.3218025E+03  0.7546771E-02  0.1074823E+00
         21   -1    0    0  502  501  0.00000000000E+00  0.00000000000E+00  0.29255832912E+04  0.29255832912E+04  0.00000000000E+00 0.  1.
         21   -1    0    0  501  502 -0.00000000000E+00 -0.00000000000E+00 -0.35396998316E+02  0.35396998316E+02  0.00000000000E+00 0.  1.
         25    1    1    2    0    0 -0.25255182529E+02  0.17850837435E+03  0.12356725656E+04  0.12549959177E+04  0.12500000000E+03 0.  0.
         25    1    1    2    0    0 -0.11137585327E+03 -0.14129324065E+02  0.63931947854E+03  0.66102845183E+03  0.12500000000E+03 0.  0.
         25    1    1    2    0    0  0.13663103580E+03 -0.16437905028E+03  0.10151942487E+04  0.10449559200E+04  0.12500000000E+03 0.  0.
</event>
<event>
 5    0  0.5668330E-005  0.4183874E+03  0.7546771E-02  0.1037592E+00
         21   -1    0    0  502  501  0.00000000000E+00  0.00000000000E+00  0.16057564292E+03  0.16057564292E+03  0.00000000000E+00 0. -1.
         21   -1    0    0  501  502 -0.00000000000E+00 -0.00000000000E+00 -0.10901280333E+04  0.10901280333E+04  0.00000000000E+00 0. -1.
         25    1    1    2    0    0 -0.63884940386E+02 -0.68270263167E+02  0.73132574951E+02  0.17238180867E+03  0.12500000000E+03 0.  0.
         25    1    1    2    0    0 -0.31454540508E+02 -0.25110570219E+02 -0.77623576592E+03  0.78726545278E+03  0.12500000000E+03 0.  0.
         25    1    1    2    0    0  0.95339480894E+02  0.93380833386E+02 -0.22644919937E+03  0.29105641473E+03  0.12500000000E+03 0.  0.
</event>
<event>
 5    0  0.6111270E-005  0.3105382E+03  0.7546771E-02  0.1080088E+00
         21   -1    0    0  502  501  0.00000000000E+00  0.00000000000E+00  0.19277236763E+03  0.19277236763E+03  0.00000000000E+00 0. -1.
         21   -1    0    0  501  502 -0.00000000000E+00 -0.00000000000E+00 -0.50024776863E+03  0.50024776863E+03  0.00000000000E+00 0. -1.
         25    1    1    2    0    0 -0.13029566705E+03 -0.67336069100E+02 -0.13759256628E+03  0.23678644672E+03  0.12500000000E+03 0.  0.
         25    1    1    2    0    0  0.13299253521E+03 -0.92224029798E+01 -0.23342192163E+03  0.29645043538E+03  0.12500000000E+03 0.  0.
         25    1    1    2    0    0 -0.26968681686E+01  0.76558472079E+02  0.63539086906E+02  0.15978325416E+03  0.12500000000E+03 0.  0.
</event>
<event>
 5    0  0.5668330E-005  0.3483935E+03  0.7546771E-02  0.1063276E+00
         21   -1    0    0  502  501  0.00000000000E+00  0.00000000000E+00  0.97952981670E+02  0.97952981670E+02  0.00000000000E+00 0. -1.
         21   -1    0    0  501  502 -0.00000000000E+00 -0.00000000000E+00 -0.12391457618E+04  0.12391457618E+04  0.00000000000E+00 0. -1.
         25    1    1    2    0    0 -0.19952033680E+03  0.90779774852E+02 -0.22662742757E+03  0.33916710225E+03  0.12500000000E+03 0.  0.
         25    1    1    2    0    0 -0.19951396744E+02 -0.41262821335E+02 -0.21924080912E+03  0.25649992406E+03  0.12500000000E+03 0.  0.
         25    1    1    2    0    0  0.21947173355E+03 -0.49516953517E+02 -0.69532454347E+03  0.74143171719E+03  0.12500000000E+03 0.  0.
</event>
<event>
 5    0  0.5668330E-005  0.2033284E+03  0.7546771E-02  0.1146961E+00
         21   -1    0    0  502  501  0.00000000000E+00  0.00000000000E+00  0.17825644111E+04  0.17825644111E+04  0.00000000000E+00 0. -1.
         21   -1    0    0  501  502 -0.00000000000E+00 -0.00000000000E+00 -0.23192668558E+02  0.23192668558E+02  0.00000000000E+00 0. -1.
         25    1    1    2    0    0  0.16165924645E+02  0.33816991496E+02  0.88827615271E+03  0.89781092080E+03  0.12500000000E+03 0.  0.
         25    1    1    2    0    0 -0.22064925103E+02 -0.26617285273E+02  0.48309139207E+03  0.50019759484E+03  0.12500000000E+03 0.  0.
         25    1    1    2    0    0  0.58990004583E+01 -0.71997062232E+01  0.38800419777E+03  0.40774856403E+03  0.12500000000E+03 0.  0.
</event>
<event>
 5    0  0.5668330E-005  0.6084789E+03  0.7546771E-02  0.9887970E-01
         21   -1    0    0  502  501  0.00000000000E+00  0.00000000000E+00  0.98297628239E+03  0.98297628239E+03  0.00000000000E+00 0.  1.
         21   -1    0    0  501  502 -0.00000000000E+00 -0.00000000000E+00 -0.37665864700E+03  0.37665864700E+03  0.00000000000E+00 0.  1.
         25    1    1    2    0    0 -0.29441271534E+03  0.48318805722E+03  0.27443671927E+03  0.64116305140E+03  0.12500000000E+03 0.  0.
         25    1    1    2    0    0  0.13815607354E+03 -0.30595078149E+03  0.25700614091E+03  0.44087428799E+03  0.12500000000E+03 0.  0.
         25    1    1    2    0    0  0.15625664181E+03 -0.17723727573E+03  0.74874775216E+02  0.27759759001E+03  0.12500000000E+03 0.  0.
</event>
<event>
 5    0  0.5668330E-005  0.2437679E+03  0.7546771E-02  0.1117308E+00
         21   -1    0    0  502  501  0.00000000000E+00  0.00000000000E+00  0.85880397529E+03  0.85880397529E+03  0.00000000000E+00 0.  1.
         21   -1    0    0  501  502 -0.00000000000E+00 -0.00000000000E+00 -0.69192518399E+02  0.69192518399E+02  0.00000000000E+00 0.  1.
         25    1    1    2    0    0 -0.25776681709E+02 -0.56189008244E+02  0.27260674431E+03  0.30620430927E+03  0.12500000000E+03 0.  0.
         25    1    1    2    0    0  0.66797061948E+02 -0.74139746884E+02  0.22647737018E+03  0.27726440225E+03  0.12500000000E+03 0.  0.
         25    1    1    2    0    0 -0.41020380239E+02  0.13032875513E+03  0.29052734240E+03  0.34452778218E+03  0.12500000000E+03 0.  0.
</event>
<event>
 5    0  0.7165914E-005  0.4551694E+03  0.7546771E-02  0.1026192E+00
         21   -1    0    0  502  501  0.00000000000E+00  0.00000000000E+00  0.18280210426E+03  0.18280210426E+03  0.00000000000E+00 0.  1.
         21   -1    0    0  501  502 -0.00000000000E+00 -0.00000000000E+00 -0.11333520538E+04  0.11333520538E+04  0.00000000000E+00 0.  1.
         25    1    1    2    0    0 -0.71464896427E+01  0.61847195688E+02  0.95446721841E+02  0.16914852834E+03  0.12500000000E+03 0.  0.
         25    1    1    2    0    0  0.19807310813E+03 -0.61977969894E+02 -0.55386833035E+03  0.60454061260E+03  0.12500000000E+03 0.  0.
         25    1    1    2    0    0 -0.19092661849E+03  0.13077420536E+00 -0.49212834100E+03  0.54246501709E+03  0.12500000000E+03 0.  0.
</event>
<event>
 5    0  0.5668330E-005  0.2792899E+03  0.7546771E-02  0.1096077E+00
         21   -1    0    0  502  501  0.00000000000E+00  0.00000000000E+00  0.20654552287E+03  0.20654552287E+03  0.00000000000E+00 0. -1.
         21   -1    0    0  501  502 -0.00000000000E+00 -0.00000000000E+00 -0.37765443705E+03  0.37765443705E+03  0.00000000000E+00 0. -1.
         25    1    1    2    0    0 -0.12524291287E+03  0.46019025734E+02 -0.39329259717E+02  0.18701692069E+03  0.12500000000E+03 0.  0.
         25    1    1    2    0    0 -0.19048501721E+02 -0.28004659660E+02 -0.15728357565E+03  0.20374059377E+03  0.12500000000E+03 0.  0.
         25    1    1    2    0    0  0.14429141459E+03 -0.18014366073E+02  0.25503921193E+02  0.19344244546E+03  0.12500000000E+03 0.  0.
</event>
<event>
 5    0  0.5668330E-005  0.2407409E+03  0.7546771E-02  0.1119300E+00
         21   -1    0    0  502  501  0.00000000000E+00  0.00000000000E+00  0.14223964137E+03  0.14223964137E+03  0.00000000000E+00 0.  1.
         21   -1    0    0  501  502 -0.00000000000E+00 -0.00000000000E+00 -0.40745437275E+03  0.40745437275E+03  0.00000000000E+00 0.  1.
         25    1    1    2    0    0 -0.77268695898E+02  0.88283827669E+02 -0.55811959287E+02  0.18028993425E+03  0.12500000000E+03 0.  0.
         25    1    1    2    0    0 -0.18630475506E+02 -0.53244335920E+02 -0.13223143790E+03  0.19050513666E+03  0.12500000000E+03 0.  0.
         25    1    1    2    0    0  0.95899171404E+02 -0.35039491749E+02 -0.77171334185E+02  0.17889894320E+03  0.12500000000E+03 0.  0.
</event>
<event>
 5    0  0.5668330E-005  0.2659927E+03  0.7546771E-02  0.1103595E+00
         21   -1    0    0  502  501  0.00000000000E+00  0.00000000000E+00  0.29864923836E+03  0.29864923836E+03  0.00000000000E+00 0. -1.
         21   -1    0    0  501  502 -0.00000000000E+00 -0.00000000000E+00 -0.23690711264E+03  0.23690711264E+03  0.00000000000E+00 0. -1.
         25    1    1    2    0    0 -0.12972229719E+02 -0.13135069519E+03  0.16378933893E+02  0.18252274748E+03  0.12500000000E+03 0.  0.
         25    1    1    2    0    0 -0.21911701668E+02  0.32042403007E+02 -0.74285791685E+02  0.15049989072E+03  0.12500000000E+03 0.  0.
         25    1    1    2    0    0  0.34883931386E+02  0.99308292188E+02  0.11964898352E+03  0.20253371280E+03  0.12500000000E+03 0.  0.
</event>
<event>
 5    0  0.5668330E-005  0.3346368E+03  0.7546771E-02  0.1069103E+00
         21   -1    0    0  502  501  0.00000000000E+00  0.00000000000E+00  0.80106626694E+02  0.80106626694E+02  0.00000000000E+00 0.  1.
         21   -1    0    0  501  502 -0.00000000000E+00 -0.00000000000E+00 -0.13979094133E+04  0.13979094133E+04  0.00000000000E+00 0.  1.
         25    1    1    2    0    0 -0.11036898986E+03  0.90624032229E+02 -0.19264427772E+03  0.27042715632E+03  0.12500000000E+03 0.  0.
         25    1    1    2    0    0 -0.87561959010E+02  0.34426501630E+01 -0.21893035419E+03  0.26689782407E+03  0.12500000000E+03 0.  0.
         25    1    1    2    0    0  0.19793094887E+03 -0.94066682393E+02 -0.90622815474E+03  0.94069105965E+03  0.12500000000E+03 0.  0.
</event>
<event>
 5    0  0.5668330E-005  0.3369182E+03  0.7546771E-02  0.1068116E+00
         21   -1    0    0  502  501  0.00000000000E+00  0.00000000000E+00  0.84185898670E+03  0.84185898670E+03  0.00000000000E+00 0. -1.
         21   -1    0    0  501  502 -0.00000000000E+00 -0.00000000000E+00 -0.13483713017E+03  0.13483713017E+03  0.00000000000E+00 0. -1.
         25    1    1    2    0    0  0.62851921292E+02 -0.11878965461E+03  0.15118705384E+03  0.23778955255E+03  0.12500000000E+03 0.  0.
         25    1    1    2    0    0 -0.94646684234E+02 -0.12932659493E+03  0.28119558393E+03  0.34695722995E+03  0.12500000000E+03 0.  0.
         25    1    1    2    0    0  0.31794762941E+02  0.24811624953E+03  0.27463921876E+03  0.39194933437E+03  0.12500000000E+03 0.  0.
</event>
<event>
 5    0  0.5668330E-005  0.4723642E+03  0.7546771E-02  0.1021255E+00
         21   -1    0    0  502  501  0.00000000000E+00  0.00000000000E+00  0.97849752870E+03  0.97849752870E+03  0.00000000000E+00 0. -1.
         21   -1    0    0  501  502 -0.00000000000E+00 -0.00000000000E+00 -0.22803120947E+03  0.22803120947E+03  0.00000000000E+00 0. -1.
         25    1    1    2    0    0 -0.31204644621E+03 -0.69084548920E+01  0.31023854950E+03  0.45748625000E+03  0.12500000000E+03 0.  0.
         25    1    1    2    0    0 -0.53137584119E+01 -0.26291091918E+02 -0.61162811948E+02  0.14172278260E+03  0.12500000000E+03 0.  0.
         25    1    1    2    0    0  0.31736020462E+03  0.33199546810E+02  0.50139058168E+03  0.60731970558E+03  0.12500000000E+03 0.  0.
</event>
<event>
 5    0  0.5668330E-005  0.2852669E+03  0.7546771E-02  0.1092847E+00
         21   -1    0    0  502  501  0.00000000000E+00  0.00000000000E+00  0.71698291016E+03  0.71698291016E+03  0.00000000000E+00 0.  1.
         21   -1    0    0  501  502 -0.00000000000E+00 -0.00000000000E+00 -0.11349947841E+03  0.11349947841E+03  0.00000000000E+00 0.  1.
         25    1    1    2    0    0 -0.12589614423E+03 -0.12730901465E+03  0.18736810299E+03  0.28773117725E+03  0.12500000000E+03 0.  0.
         25    1    1    2    0    0  0.14406890580E+03  0.11209187058E+03  0.26400126367E+03  0.34444463167E+03  0.12500000000E+03 0.  0.
         25    1    1    2    0    0 -0.18172761573E+02  0.15217144077E+02  0.15211406509E+03  0.19830657966E+03  0.12500000000E+03 0.  0.
</event>
<event>
 5    0  0.5668330E-005  0.3617450E+03  0.7546771E-02  0.1057895E+00
         21   -1    0    0  502  501  0.00000000000E+00  0.00000000000E+00  0.36660930554E+03  0.36660930554E+03  0.00000000000E+00 0. -1.
         21   -1    0    0  501  502 -0.00000000000E+00 -0.00000000000E+00 -0.35694518470E+03  0.35694518470E+03  0.00000000000E+00 0. -1.
         25    1    1    2    0    0  0.25463109027E+03  0.11205651743E+03  0.20775415258E+02  0.30569637405E+03  0.12500000000E+03 0.  0.
         25    1    1    2    0    0 -0.23532468360E+03 -0.11720865949E+03 -0.58198312566E+01  0.29116051760E+03  0.12500000000E+03 0.  0.
         25    1    1    2    0    0 -0.19306406670E+02  0.51521420631E+01 -0.52914631561E+01  0.12669759859E+03  0.12500000000E+03 0.  0.
</event>
<event>
 5    0  0.6071416E-005  0.6059832E+03  0.7546771E-02  0.9893070E-01
         21   -1    0    0  502  501  0.00000000000E+00  0.00000000000E+00  0.20003657447E+03  0.20003657447E+03  0.00000000000E+00 0.  1.
         21   -1    0    0  501  502 -0.00000000000E+00 -0.00000000000E+00 -0.18357425291E+04  0.18357425291E+04  0.00000000000E+00 0.  1.
         25    1    1    2    0    0  0.13095761316E+03 -0.14562324156E+03 -0.83997926653E+03  0.87151947375E+03  0.12500000000E+03 0.  0.
         25    1    1    2    0    0  0.23591459059E+03  0.29576268772E+03 -0.22299650357E+03  0.45660015561E+03  0.12500000000E+03 0.  0.
         25    1    1    2    0    0 -0.36687220374E+03 -0.15013944617E+03 -0.57273018455E+03  0.70765947423E+03  0.12500000000E+03 0.  0.
</event>
<event>
 5    0  0.5668330E-005  0.4037178E+03  0.7546771E-02  0.1042500E+00
         21   -1    0    0  502  501  0.00000000000E+00  0.00000000000E+00  0.31528434306E+03  0.31528434306E+03  0.00000000000E+00 0. -1.
         21   -1    0    0  501  502 -0.00000000000E+00 -0.00000000000E+00 -0.51695567784E+03  0.51695567784E+03  0.00000000000E+00 0. -1.
         25    1    1    2    0    0 -0.10243443884E+03  0.21650592383E+03  0.95638207959E+02  0.28659953966E+03  0.12500000000E+03 0.  0.
         25    1    1    2    0    0  0.18797415077E+03 -0.20565652605E+03 -0.18924070402E+03  0.35925747330E+03  0.12500000000E+03 0.  0.
         25    1    1    2    0    0 -0.85539711932E+02 -0.10849397783E+02 -0.10806883872E+03  0.18638300795E+03  0.12500000000E+03 0.  0.
</event>
<event>
 5    0  0.5668330E-005  0.7807269E+03  0.7546771E-02  0.9588341E-01
         21   -1    0    0  502  501  0.00000000000E+00  0.00000000000E+00  0.19318251077E+04  0.19318251077E+04  0.00000000000E+00 0.  1.
         21   -1    0    0  501  502 -0.00000000000E+00 -0.00000000000E+00 -0.31552260270E+03  0.31552260270E+03  0.00000000000E+00 0.  1.
         25    1    1    2    0    0  0.29035696286E+03  0.51594104481E+03  0.11722823176E+04  0.13192320341E+04  0.12500000000E+03 0.  0.
         25    1    1    2    0    0 -0.16127469509E+03 -0.32820936805E+03 -0.29903776523E+02  0.38762114545E+03  0.12500000000E+03 0.  0.
         25    1    1    2    0    0 -0.12908226778E+03 -0.18773167676E+03  0.47392396389E+03  0.54049453083E+03  0.12500000000E+03 0.  0.
</event>
<event>
 5    0  0.5668330E-005  0.7063723E+03  0.7546771E-02  0.9706396E-01
         21   -1    0    0  502  501  0.00000000000E+00  0.00000000000E+00  0.16646628828E+04  0.16646628828E+04  0.00000000000E+00 0.  1.
         21   -1    0    0  501  502 -0.00000000000E+00 -0.00000000000E+00 -0.29973747043E+03  0.29973747043E+03  0.00000000000E+00 0.  1.
         25    1    1    2    0    0 -0.31963296605E+03  0.13265457365E+03  0.12261738320E+04  0.12801912885E+04  0.12500000000E+03 0.  0.
         25    1    1    2    0    0  0.31209650580E+03 -0.20164629057E+03 -0.10120564083E+03  0.40488644972E+03  0.12500000000E+03 0.  0.
         25    1    1    2    0    0  0.75364602490E+01  0.68991716917E+02  0.23995722119E+03  0.27932261498E+03  0.12500000000E+03 0.  0.
</event>
<event>
 5    0  0.8921679E-005  0.5011001E+03  0.7546771E-02  0.1013492E+00
         21   -1    0    0  502  501  0.00000000000E+00  0.00000000000E+00  0.38524149680E+03  0.38524149680E+03  0.00000000000E+00 0. -1.
         21   -1    0    0  501  502 -0.00000000000E+00 -0.00000000000E+00 -0.65180244396E+03  0.65180244396E+03  0.00000000000E+00 0. -1.
         25    1    1    2    0    0 -0.21140234295E+03  0.13303822427E+03  0.89941042925E+02  0.29343570152E+03  0.12500000000E+03 0.  0.
         25    1    1    2    0    0  0.35478831805E+03 -0.93162029435E+02 -0.64533382209E+02  0.39286571722E+03  0.12500000000E+03 0.  0.
         25    1    1    2    0    0 -0.14338597509E+03 -0.39876194834E+02 -0.29196860788E+03  0.35074252202E+03  0.12500000000E+03 0.  0.
</event>
<event>
 5    0  0.5668330E-005  0.2918817E+03  0.7546771E-02  0.1089371E+00
         21   -1    0    0  502  501  0.00000000000E+00  0.00000000000E+00  0.19377986815E+04  0.19377986815E+04  0.00000000000E+00 0. -1.
         21   -1    0    0  501  502 -0.00000000000E+00 -0.00000000000E+00 -0.43964802576E+02  0.43964802576E+02  0.00000000000E+00 0. -1.
         25    1    1    2    0    0  0.10499970924E+03  0.90190414689E+02  0.75092586304E+03  0.77374020293E+03  0.12500000000E+03 0.  0.
         25    1    1    2    0    0 -0.56591285818E+02  0.70212199200E+02  0.27453487632E+03  0.31484396908E+03  0.12500000000E+03 0.  0.
         25    1    1    2    0    0 -0.48408423422E+02 -0.16040261389E+03  0.86837313957E+03  0.89317931208E+03  0.12500000000E+03 0.  0.
</event>
<event>
 5    0  0.5668330E-005  0.3677487E+03  0.7546771E-02  0.1055557E+00
         21   -1    0    0  502  501  0.00000000000E+00  0.00000000000E+00  0.53915873807E+03  0.53915873807E+03  0.00000000000E+00 0. -1.
         21   -1    0    0  501  502 -0.00000000000E+00 -0.00000000000E+00 -0.25083361529E+03  0.25083361529E+03  0.00000000000E+00 0. -1.
         25    1    1    2    0    0  0.19590900448E+03 -0.44724921918E+02  0.30707306146E+03  0.38768482270E+03  0.12500000000E+03 0.  0.
         25    1    1    2    0    0 -0.10581633314E+03  0.13499280822E+03 -0.56828279724E+02  0.21971483338E+03  0.12500000000E+03 0.  0.
         25    1    1    2    0    0 -0.90092671341E+02 -0.90267886306E+02  0.38080341048E+02  0.18259269729E+03  0.12500000000E+03 0.  0.
</event>
<event>
 5    0  0.5827072E-005  0.2710369E+03  0.7546771E-02  0.1100688E+00
         21   -1    0    0  502  501  0.00000000000E+00  0.00000000000E+00  0.13522617289E+04  0.13522617289E+04  0.00000000000E+00 0. -1.
         21   -1    0    0  501  502 -0.00000000000E+00 -0.00000000000E+00 -0.54324562516E+02  0.54324562516E+02  0.00000000000E+00 0. -1.
         25    1    1    2    0    0 -0.45914119483E+01  0.13934118853E+03  0.27552976848E+03  0.33313465926E+03  0.12500000000E+03 0.  0.
         25    1    1    2    0    0 -0.60877620197E+02 -0.39959904087E+02  0.59894721720E+03  0.61617014499E+03  0.12500000000E+03 0.  0.
         25    1    1    2    0    0  0.65469032145E+02 -0.99381284439E+02  0.42346018070E+03  0.45728148717E+03  0.12500000000E+03 0.  0.
</event>
<event>
 5    0  0.5668330E-005  0.2753486E+03  0.7546771E-02  0.1098257E+00
         21   -1    0    0  502  501  0.00000000000E+00  0.00000000000E+00  0.11912668346E+04  0.11912668346E+04  0.00000000000E+00 0. -1.
         21   -1    0    0  501  502 -0.00000000000E+00 -0.00000000000E+00 -0.63643865091E+02  0.63643865091E+02  0.00000000000E+00 0. -1.
         25    1    1    2    0    0 -0.91009074428E+01  0.82205018866E+02  0.41878133681E+03  0.44479579551E+03  0.12500000000E+03 0.  0.
         25    1    1    2    0    0  0.82238873768E+02 -0.12028968810E+03  0.58530337794E+03  0.61598529662E+03  0.12500000000E+03 0.  0.
         25    1    1    2    0    0 -0.73137966325E+02  0.38084669231E+02  0.12353825479E+03  0.19412960760E+03  0.12500000000E+03 0.  0.
</event>
<event>
 5    0  0.5668330E-005  0.3666691E+03  0.7546771E-02  0.1055974E+00
         21   -1    0    0  502  501  0.00000000000E+00  0.00000000000E+00  0.20187321898E+03  0.20187321898E+03  0.00000000000E+00 0.  1.
         21   -1    0    0  501  502 -0.00000000000E+00 -0.00000000000E+00 -0.66599349499E+03  0.66599349499E+03  0.00000000000E+00 0. -1.
         25    1    1    2    0    0  0.11296314968E+03 -0.24518463179E+02 -0.62642763590E+02  0.18141373722E+03  0.12500000000E+03 0.  0.
         25    1    1    2    0    0 -0.28183730281E+03  0.54778361727E+02 -0.34679324606E+03  0.46725099217E+03  0.12500000000E+03 0.  0.
         25    1    1    2    0    0  0.16887415313E+03 -0.30259898547E+02 -0.54684266369E+02  0.21920198458E+03  0.12500000000E+03 0.  0.
</event>
<event>
 5    0  0.5668330E-005  0.4070046E+03  0.7546771E-02  0.1041381E+00
         21   -1    0    0  502  501  0.00000000000E+00  0.00000000000E+00  0.13242251094E+03  0.13242251094E+03  0.00000000000E+00 0. -1.
         21   -1    0    0  501  502 -0.00000000000E+00 -0.00000000000E+00 -0.12509410093E+04  0.12509410093E+04  0.00000000000E+00 0. -1.
         25    1    1    2    0    0 -0.13930351166E+02 -0.19507039016E+03 -0.26324074504E+03  0.35095185090E+03  0.12500000000E+03 0.  0.
         25    1    1    2    0    0 -0.79223003088E+02 -0.11676374132E+03 -0.50133110983E+03  0.53560053882E+03  0.12500000000E+03 0.  0.
         25    1    1    2    0    0  0.93153354254E+02  0.31183413148E+03 -0.35394664347E+03  0.49681113050E+03  0.12500000000E+03 0.  0.
</event>
<event>
 5    0  0.5668330E-005  0.2813457E+03  0.7546771E-02  0.1094956E+00
         21   -1    0    0  502  501  0.00000000000E+00  0.00000000000E+00  0.19728694391E+03  0.19728694391E+03  0.00000000000E+00 0.  1.
         21   -1    0    0  501  502 -0.00000000000E+00 -0.00000000000E+00 -0.40121970364E+03  0.40121970364E+03  0.00000000000E+00 0.  1.
         25    1    1    2    0    0  0.94106421069E+02 -0.10924182096E+03 -0.30702150089E+02  0.19328066627E+03  0.12500000000E+03 0.  0.
         25    1    1    2    0    0  0.12062825029E+02  0.48189630033E+02  0.29197331060E+02  0.13764169547E+03  0.12500000000E+03 0.  0.
         25    1    1    2    0    0 -0.10616924610E+03  0.61052190927E+02 -0.20242794071E+03  0.26758428581E+03  0.12500000000E+03 0.  0.
</event>
<event>
 5    0  0.5668330E-005  0.4691366E+03  0.7546771E-02  0.1022164E+00
         21   -1    0    0  502  501  0.00000000000E+00  0.00000000000E+00  0.28498861503E+03  0.28498861503E+03  0.00000000000E+00 0. -1.
         21   -1    0    0  501  502 -0.00000000000E+00 -0.00000000000E+00 -0.77227362685E+03  0.77227362685E+03  0.00000000000E+00 0. -1.
         25    1    1    2    0    0 -0.23073480740E+03 -0.78408648665E+02 -0.55350737382E+03  0.61756123616E+03  0.12500000000E+03 0.  0.
         25    1    1    2    0    0  0.28156532909E+02  0.32227999117E+02 -0.82007374418E+02  0.15550448139E+03  0.12500000000E+03 0.  0.
         25    1    1    2    0    0  0.20257827449E+03  0.46180649548E+02  0.14822973641E+03  0.28419652433E+03  0.12500000000E+03 0.  0.
</event>
<event>
 5    0  0.5668330E-005  0.3601582E+03  0.7546771E-02  0.1058521E+00
         21   -1    0    0  502  501  0.00000000000E+00  0.00000000000E+00  0.10899218847E+04  0.10899218847E+04  0.00000000000E+00 0.  1.
         21   -1    0    0  501  502 -0.00000000000E+00 -0.00000000000E+00 -0.11901213975E+03  0.11901213975E+03  0.00000000000E+00 0.  1.
         25    1    1    2    0    0  0.20415214993E+03 -0.75683191002E+01  0.28788190314E+03  0.37448146807E+03  0.12500000000E+03 0.  0.
         25    1    1    2    0    0 -0.17009635970E+03 -0.10767388721E+03  0.16653115555E+03  0.28962745612E+03  0.12500000000E+03 0.  0.
         25    1    1    2    0    0 -0.34055790227E+02  0.11524220631E+03  0.51649668628E+03  0.54482510028E+03  0.12500000000E+03 0.  0.
</event>
<event>
 5    0  0.5668330E-005  0.3065124E+03  0.7546771E-02  0.1082030E+00
         21   -1    0    0  502  501  0.00000000000E+00  0.00000000000E+00  0.19514378319E+03  0.19514378319E+03  0.00000000000E+00 0.  1.
         21   -1    0    0  501  502 -0.00000000000E+00 -0.00000000000E+00 -0.48143926899E+03  0.48143926899E+03  0.00000000000E+00 0.  1.
         25    1    1    2    0    0 -0.38863975019E+02  0.19115317227E+03 -0.10583241625E+03  0.25470658443E+03  0.12500000000E+03 0.  0.
         25    1    1    2    0    0 -0.35770737697E+02  0.12128301756E+02 -0.74245612895E+02  0.15021335631E+03  0.12500000000E+03 0.  0.
         25    1    1    2    0    0  0.74634712716E+02 -0.20328147402E+03 -0.10621745665E+03  0.27166311144E+03  0.12500000000E+03 0.  0.
</event>
<event>
 5    0  0.5668330E-005  0.2795481E+03  0.7546771E-02  0.1095936E+00
         21   -1    0    0  502  501  0.00000000000E+00  0.00000000000E+00  0.80088455415E+02  0.80088455415E+02  0.00000000000E+00 0.  1.
         21   -1    0    0  501  502 -0.00000000000E+00 -0.00000000000E+00 -0.97576022865E+03  0.97576022865E+03  0.00000000000E+00 0.  1.
         25    1    1    2    0    0 -0.15188474585E+03  0.12289981582E+03 -0.42149458508E+03  0.48109876949E+03  0.12500000000E+03 0.  0.
         25    1    1    2    0    0  0.86949164270E+02 -0.98372145175E+02 -0.28142188760E+03  0.33475440988E+03  0.12500000000E+03 0.  0.
         25    1    1    2    0    0  0.64935581584E+02 -0.24527670644E+02 -0.19275530056E+03  0.23999550470E+03  0.12500000000E+03 0.  0.
</event>
<event>
 5    0  0.5668330E-005  0.3175687E+03  0.7546771E-02  0.1076774E+00
         21   -1    0    0  502  501  0.00000000000E+00  0.00000000000E+00  0.71419959509E+02  0.71419959509E+02  0.00000000000E+00 0.  1.
         21   -1    0    0  501  502 -0.00000000000E+00 -0.00000000000E+00 -0.14120681367E+04  0.14120681367E+04  0.00000000000E+00 0.  1.
         25    1    1    2    0    0 -0.98207935510E+02 -0.13787078817E+03 -0.37299514015E+03  0.42825638046E+03  0.12500000000E+03 0.  0.
         25    1    1    2    0    0  0.13692776114E+02  0.16577766955E+03 -0.80567353092E+03  0.83210850631E+03  0.12500000000E+03 0.  0.
         25    1    1    2    0    0  0.84515159396E+02 -0.27906881379E+02 -0.16197950617E+03  0.22312320949E+03  0.12500000000E+03 0.  0.
</event>
<event>
 5    0  0.6870209E-005  0.2701888E+03  0.7546771E-02  0.1101172E+00
         21   -1    0    0  502  501  0.00000000000E+00  0.00000000000E+00  0.11622091981E+03  0.11622091981E+03  0.00000000000E+00 0. -1.
         21   -1    0    0  501  502 -0.00000000000E+00 -0.00000000000E+00 -0.62813099855E+03  0.62813099855E+03  0.00000000000E+00 0. -1.
         25    1    1    2    0    0 -0.14348758309E+02 -0.35350932785E+02 -0.32313910784E+03  0.34856772417E+03  0.12500000000E+03 0.  0.
         25    1    1    2    0    0  0.21014307640E+02 -0.37528040193E+02 -0.21125112060E+03  0.24920271042E+03  0.12500000000E+03 0.  0.
         25    1    1    2    0    0 -0.66655493306E+01  0.72878972978E+02  0.22480149708E+02  0.14658148376E+03  0.12500000000E+03 0.  0.
</event>
<event>
 5    0  0.6327143E-005  0.3018184E+03  0.7546771E-02  0.1084335E+00
         21   -1    0    0  502  501  0.00000000000E+00  0.00000000000E+00  0.15676921231E+03  0.15676921231E+03  0.00000000000E+00 0. -1.
         21   -1    0    0  501  502 -0.00000000000E+00 -0.00000000000E+00 -0.58107280302E+03  0.58107280302E+03  0.00000000000E+00 0. -1.
         25    1    1    2    0    0 -0.60637210167E+02 -0.54275586714E+02 -0.28529173721E+03  0.32193025004E+03  0.12500000000E+03 0.  0.
         25    1    1    2    0    0  0.12587338375E+03 -0.45606930878E+02  0.15889515632E+02  0.18385205353E+03  0.12500000000E+03 0.  0.
         25    1    1    2    0    0 -0.65236173581E+02  0.99882517592E+02 -0.15490136913E+03  0.23205971176E+03  0.12500000000E+03 0.  0.
</event>
<event>
 5    0  0.5668330E-005  0.2986048E+03  0.7546771E-02  0.1085940E+00
         21   -1    0    0  502  501  0.00000000000E+00  0.00000000000E+00  0.86352398011E+02  0.86352398011E+02  0.00000000000E+00 0.  1.
         21   -1    0    0  501  502 -0.00000000000E+00 -0.00000000000E+00 -0.10325694375E+04  0.10325694375E+04  0.00000000000E+00 0.  1.
         25    1    1    2    0    0  0.27139408047E+02 -0.15648894496E+03 -0.11493700540E+03  0.23250989780E+03  0.12500000000E+03 0.  0.
         25    1    1    2    0    0 -0.59938643926E+01  0.55434654585E+02 -0.27799337125E+03  0.30986164945E+03  0.12500000000E+03 0.  0.
         25    1    1    2    0    0 -0.21145543654E+02  0.10105429038E+03 -0.55328666281E+03  0.57655028823E+03  0.12500000000E+03 0.  0.
</event>
<event>
 5    0  0.5668330E-005  0.2825259E+03  0.7546771E-02  0.1094317E+00
         21   -1    0    0  502  501  0.00000000000E+00  0.00000000000E+00  0.92993498154E+02  0.92993498154E+02  0.00000000000E+00 0.  1.
         21   -1    0    0  501  502 -0.00000000000E+00 -0.00000000000E+00 -0.85834894276E+03  0.85834894276E+03  0.00000000000E+00 0.  1.
         25    1    1    2    0    0 -0.90578080753E+02 -0.10518601224E+03 -0.34571218781E+03  0.39295089093E+03  0.12500000000E+03 0.  0.
         25    1    1    2    0    0  0.12055339949E+03 -0.31985586885E+02 -0.24340035471E+03  0.30070738695E+03  0.12500000000E+03 0.  0.
         25    1    1    2    0    0 -0.29975318733E+02  0.13717159912E+03 -0.17624290208E+03  0.25768416302E+03  0.12500000000E+03 0.  0.
</event>
<event>
 5    0  0.5668330E-005  0.3065114E+03  0.7546771E-02  0.1082030E+00
         21   -1    0    0  502  501  0.00000000000E+00  0.00000000000E+00  0.11238700490E+03  0.11238700490E+03  0.00000000000E+00 0.  1.
         21   -1    0    0  501  502 -0.00000000000E+00 -0.00000000000E+00 -0.83594413538E+03  0.83594413538E+03  0.00000000000E+00 0.  1.
         25    1    1    2    0    0  0.40075649412E+02  0.13698036302E+02  0.35048571351E+01  0.13202642879E+03  0.12500000000E+03 0.  0.
         25    1    1    2    0    0 -0.89341889906E+02 -0.39893557238E+02 -0.13426389863E+03  0.20790686299E+03  0.12500000000E+03 0.  0.
         25    1    1    2    0    0  0.49266240494E+02  0.26195520937E+02 -0.59279808898E+03  0.60839784850E+03  0.12500000000E+03 0.  0.
</event>
<event>
 5    0  0.5668330E-005  0.2248566E+03  0.7546771E-02  0.1130313E+00
         21   -1    0    0  502  501  0.00000000000E+00  0.00000000000E+00  0.22922987988E+03  0.22922987988E+03  0.00000000000E+00 0. -1.
         21   -1    0    0  501  502 -0.00000000000E+00 -0.00000000000E+00 -0.22056679268E+03  0.22056679268E+03  0.00000000000E+00 0. -1.
         25    1    1    2    0    0 -0.15549416866E+02  0.39375536458E+02 -0.41630108120E+02  0.13838454805E+03  0.12500000000E+03 0.  0.
         25    1    1    2    0    0 -0.76096124512E+02 -0.33424418383E+02  0.42926835044E+02  0.15612663154E+03  0.12500000000E+03 0.  0.
         25    1    1    2    0    0  0.91645541379E+02 -0.59511180756E+01  0.73663602768E+01  0.15528549296E+03  0.12500000000E+03 0.  0.
</event>
<event>
 5    0  0.5668330E-005  0.2538749E+03  0.7546771E-02  0.1110880E+00
         21   -1    0    0  502  501  0.00000000000E+00  0.00000000000E+00  0.21193822227E+03  0.21193822227E+03  0.00000000000E+00 0.  1.
         21   -1    0    0  501  502 -0.00000000000E+00 -0.00000000000E+00 -0.30410968198E+03  0.30410968198E+03  0.00000000000E+00 0.  1.
         25    1    1    2    0    0 -0.80584275942E+01  0.12058820770E+03 -0.27125403411E+02  0.17597511643E+03  0.12500000000E+03 0.  0.
         25    1    1    2    0    0  0.84114146782E+02 -0.56931755875E+02  0.14617048014E+02  0.16172529984E+03  0.12500000000E+03 0.  0.
         25    1    1    2    0    0 -0.76055719188E+02 -0.63656451823E+02 -0.79663104319E+02  0.17834748798E+03  0.12500000000E+03 0.  0.
</event>
<event>
 5    0  0.5668330E-005  0.3690422E+03  0.7546771E-02  0.1055060E+00
         21   -1    0    0  502  501  0.00000000000E+00  0.00000000000E+00  0.12800142143E+04  0.12800142143E+04  0.00000000000E+00 0. -1.
         21   -1    0    0  501  502 -0.00000000000E+00 -0.00000000000E+00 -0.10639893684E+03  0.10639893684E+03  0.00000000000E+00 0. -1.
         25    1    1    2    0    0 -0.21372325196E+03 -0.10970258220E+02  0.22500376884E+03  0.33473821261E+03  0.12500000000E+03 0.  0.
         25    1    1    2    0    0  0.25672154575E+03 -0.18863145087E+02  0.80440246484E+03  0.85378574346E+03  0.12500000000E+03 0.  0.
         25    1    1    2    0    0 -0.42998293789E+02  0.29833403307E+02  0.14420904383E+03  0.19788919512E+03  0.12500000000E+03 0.  0.
</event>
<event>
 5    0  0.5668330E-005  0.2338463E+03  0.7546771E-02  0.1123961E+00
         21   -1    0    0  502  501  0.00000000000E+00  0.00000000000E+00  0.79193526502E+03  0.79193526502E+03  0.00000000000E+00 0.  1.
         21   -1    0    0  501  502 -0.00000000000E+00 -0.00000000000E+00 -0.69051232188E+02  0.69051232188E+02  0.00000000000E+00 0.  1.
         25    1    1    2    0    0 -0.59500600353E+02 -0.81280840979E+02  0.24852242447E+03  0.29586363754E+03  0.12500000000E+03 0.  0.
         25    1    1    2    0    0  0.73922912878E+02 -0.11026015210E+02  0.28228757293E+03  0.31764357996E+03  0.12500000000E+03 0.  0.
         25    1    1    2    0    0 -0.14422312525E+02  0.92306856189E+02  0.19207403543E+03  0.24747927971E+03  0.12500000000E+03 0.  0.
</event>
<event>
 5    0  0.5668330E-005  0.3032652E+03  0.7546771E-02  0.1083620E+00
         21   -1    0    0  502  501  0.00000000000E+00  0.00000000000E+00  0.70159114975E+02  0.70159114975E+02  0.00000000000E+00 0. -1.
         21   -1    0    0  501  502 -0.00000000000E+00 -0.00000000000E+00 -0.13108739860E+04  0.13108739860E+04  0.00000000000E+00 0. -1.
         25    1    1    2    0    0 -0.80897964049E+02  0.43508290409E+02 -0.60899398883E+03  0.62843944048E+03  0.12500000000E+03 0.  0.
         25    1    1    2    0    0  0.10474023514E+03 -0.19634423785E+01 -0.74112969010E+02  0.17914269212E+03  0.12500000000E+03 0.  0.
         25    1    1    2    0    0 -0.23842271091E+02 -0.41544848030E+02 -0.55760791322E+03  0.57345096842E+03  0.12500000000E+03 0.  0.
</event>
<event>
 5    0  0.5668330E-005  0.3178265E+03  0.7546771E-02  0.1076654E+00
         21   -1    0    0  502  501  0.00000000000E+00  0.00000000000E+00  0.10582038568E+03  0.10582038568E+03  0.00000000000E+00 0.  1.
         21   -1    0    0  501  502 -0.00000000000E+00 -0.00000000000E+00 -0.95457698656E+03  0.95457698656E+03  0.00000000000E+00 0.  1.
         25    1    1    2    0    0  0.14676149408E+03 -0.23889806091E+02 -0.21081426673E+03  0.28666585781E+03  0.12500000000E+03 0.  0.
         25    1    1    2    0    0  0.33890262957E+02 -0.10431081188E+03 -0.36243679638E+03  0.39876650658E+03  0.12500000000E+03 0.  0.
         25    1    1    2    0    0 -0.18065175703E+03  0.12820061797E+03 -0.27550553777E+03  0.37496500785E+03  0.12500000000E+03 0.  0.
</event>
<event>
 5    0  0.5668330E-005  0.2387792E+03  0.7546771E-02  0.1120609E+00
         21   -1    0    0  502  501  0.00000000000E+00  0.00000000000E+00  0.24075771844E+04  0.24075771844E+04  0.00000000000E+00 0. -1.
         21   -1    0    0  501  502 -0.00000000000E+00 -0.00000000000E+00 -0.23681689874E+02  0.23681689874E+02  0.00000000000E+00 0. -1.
         25    1    1    2    0    0 -0.26692653028E+02  0.84795792338E+02  0.10716952711E+04  0.10826165426E+04  0.12500000000E+03 0.  0.
         25    1    1    2    0    0 -0.43942386883E+02 -0.40276021704E+02  0.88493583626E+03  0.89570616029E+03  0.12500000000E+03 0.  0.
         25    1    1    2    0    0  0.70635039911E+02 -0.44519770634E+02  0.42726438714E+03  0.45293617139E+03  0.12500000000E+03 0.  0.
</event>
<event>
 5    0  0.5668330E-005  0.2946082E+03  0.7546771E-02  0.1087967E+00
         21   -1    0    0  502  501  0.00000000000E+00  0.00000000000E+00  0.19497486488E+04  0.19497486488E+04  0.00000000000E+00 0. -1.
         21   -1    0    0  501  502 -0.00000000000E+00 -0.00000000000E+00 -0.44515475684E+02  0.44515475684E+02  0.00000000000E+00 0. -1.
         25    1    1    2    0    0  0.84879255767E+02 -0.43419761763E+02  0.62343599975E+03  0.64295194965E+03  0.12500000000E+03 0.  0.
         25    1    1    2    0    0  0.70299694915E+02 -0.30607339584E+02  0.19534983414E+03  0.24426504875E+03  0.12500000000E+03 0.  0.
         25    1    1    2    0    0 -0.15517895068E+03  0.74027101347E+02  0.10864473393E+04  0.11070471261E+04  0.12500000000E+03 0.  0.
</event>
<event>
 5    0  0.5668330E-005  0.2491927E+03  0.7546771E-02  0.1113816E+00
         21   -1    0    0  502  501  0.00000000000E+00  0.00000000000E+00  0.36646327358E+03  0.36646327358E+03  0.00000000000E+00 0. -1.
         21   -1    0    0  501  502 -0.00000000000E+00 -0.00000000000E+00 -0.16944944474E+03  0.16944944474E+03  0.00000000000E+00 0. -1.
         25    1    1    2    0    0 -0.64849154271E+01 -0.81144256404E+02  0.56855511263E+02  0.15963706849E+03  0.12500000000E+03 0.  0.
         25    1    1    2    0    0  0.14662520029E+01 -0.49459558764E+02  0.14182349414E+03  0.19541571415E+03  0.12500000000E+03 0.  0.
         25    1    1    2    0    0  0.50186634241E+01  0.13060381517E+03 -0.16651765618E+01  0.18085993567E+03  0.12500000000E+03 0.  0.
</event>
<event>
 5    0  0.5668330E-005  0.2631955E+03  0.7546771E-02  0.1105238E+00
         21   -1    0    0  502  501  0.00000000000E+00  0.00000000000E+00  0.47660880507E+03  0.47660880507E+03  0.00000000000E+00 0. -1.
         21   -1    0    0  501  502 -0.00000000000E+00 -0.00000000000E+00 -0.14534321135E+03  0.14534321135E+03  0.00000000000E+00 0. -1.
         25    1    1    2    0    0 -0.12223635295E+03 -0.79655139460E+02  0.11462679795E+03  0.22372074118E+03  0.12500000000E+03 0.  0.
         25    1    1    2    0    0 -0.21896154454E+02  0.44812245889E+02  0.12520430221E+03  0.18381701840E+03  0.12500000000E+03 0.  0.
         25    1    1    2    0    0  0.14413250741E+03  0.34842893571E+02  0.91434493558E+02  0.21441425684E+03  0.12500000000E+03 0.  0.
</event>
<event>
 5    0  0.5668330E-005  0.2104674E+03  0.7546771E-02  0.1141196E+00
         21   -1    0    0  502  501  0.00000000000E+00  0.00000000000E+00  0.23846658523E+03  0.23846658523E+03  0.00000000000E+00 0.  1.
         21   -1    0    0  501  502 -0.00000000000E+00 -0.00000000000E+00 -0.18575575205E+03  0.18575575205E+03  0.00000000000E+00 0.  1.
         25    1    1    2    0    0  0.23825546414E+02 -0.60930352559E+01 -0.33319037455E+02  0.13168120594E+03  0.12500000000E+03 0.  0.
         25    1    1    2    0    0 -0.53929496616E+02  0.42106123653E+02  0.21049350237E+02  0.14404649041E+03  0.12500000000E+03 0.  0.
         25    1    1    2    0    0  0.30103950202E+02 -0.36013088397E+02  0.64980520394E+02  0.14849464093E+03  0.12500000000E+03 0.  0.
</event>
<event>
 5    0  0.5668330E-005  0.3246315E+03  0.7546771E-02  0.1073537E+00
         21   -1    0    0  502  501  0.00000000000E+00  0.00000000000E+00  0.60071126009E+03  0.60071126009E+03  0.00000000000E+00 0. -1.
         21   -1    0    0  501  502 -0.00000000000E+00 -0.00000000000E+00 -0.17543469723E+03  0.17543469723E+03  0.00000000000E+00 0. -1.
         25    1    1    2    0    0  0.96174301889E+02  0.14603146984E+03 -0.98281245908E+01  0.21516570024E+03  0.12500000000E+03 0.  0.
         25    1    1    2    0    0  0.45758467467E+02 -0.55332768844E+02  0.16831307833E+03  0.22160741186E+03  0.12500000000E+03 0.  0.
         25    1    1    2    0    0 -0.14193276936E+03 -0.90698700993E+02  0.26679160911E+03  0.33937284522E+03  0.12500000000E+03 0.  0.
</event>
<event>
 5    0  0.5668330E-005  0.3634872E+03  0.7546771E-02  0.1057212E+00
         21   -1    0    0  502  501  0.00000000000E+00  0.00000000000E+00  0.15668591230E+03  0.15668591230E+03  0.00000000000E+00 0. -1.
         21   -1    0    0  501  502 -0.00000000000E+00 -0.00000000000E+00 -0.84323441945E+03  0.84323441945E+03  0.00000000000E+00 0. -1.
         25    1    1    2    0    0 -0.60077077782E+02 -0.17578968289E+03 -0.72200434186E+02  0.23526404439E+03  0.12500000000E+03 0.  0.
         25    1    1    2    0    0 -0.14731275292E+02  0.22616245849E+03 -0.52788437062E+03  0.58792293444E+03  0.12500000000E+03 0.  0.
         25    1    1    2    0    0  0.74808353074E+02 -0.50372775594E+02 -0.86463702349E+02  0.17673335292E+03  0.12500000000E+03 0.  0.
</event>
<event>
 5    0  0.7336956E-005  0.2687822E+03  0.7546771E-02  0.1101979E+00
         21   -1    0    0  502  501  0.00000000000E+00  0.00000000000E+00  0.20431884441E+03  0.20431884441E+03  0.00000000000E+00 0. -1.
         21   -1    0    0  501  502 -0.00000000000E+00 -0.00000000000E+00 -0.35358405846E+03  0.35358405846E+03  0.00000000000E+00 0. -1.
         25    1    1    2    0    0  0.53339241028E+02 -0.40553299549E+02 -0.90897912039E+02  0.16845496476E+03  0.12500000000E+03 0.  0.
         25    1    1    2    0    0 -0.14963899963E+03  0.96480957737E+01  0.42294462808E+02  0.19974668344E+03  0.12500000000E+03 0.  0.
         25    1    1    2    0    0  0.96299758598E+02  0.30905203775E+02 -0.10066176482E+03  0.18970125467E+03  0.12500000000E+03 0.  0.
</event>
<event>
 5    0  0.5668330E-005  0.3473760E+03  0.7546771E-02  0.1063697E+00
         21   -1    0    0  502  501  0.00000000000E+00  0.00000000000E+00  0.15184289126E+04  0.15184289126E+04  0.00000000000E+00 0. -1.
         21   -1    0    0  501  502 -0.00000000000E+00 -0.00000000000E+00 -0.79470363654E+02  0.79470363654E+02  0.00000000000E+00 0. -1.
         25    1    1    2    0    0 -0.55422208274E+02 -0.11917921183E+03  0.54073620194E+03  0.57034721511E+03  0.12500000000E+03 0.  0.
         25    1    1    2    0    0  0.22499431317E+03  0.81260266836E+02  0.62249690775E+03  0.67849323658E+03  0.12500000000E+03 0.  0.
         25    1    1    2    0    0 -0.16957210489E+03  0.37918944990E+02  0.27572543924E+03  0.34905882454E+03  0.12500000000E+03 0.  0.
</event>
<event>
 5    0  0.5668330E-005  0.4085915E+03  0.7546771E-02  0.1040845E+00
         21   -1    0    0  502  501  0.00000000000E+00  0.00000000000E+00  0.12448941828E+03  0.12448941828E+03  0.00000000000E+00 0.  1.
         21   -1    0    0  501  502 -0.00000000000E+00 -0.00000000000E+00 -0.13410537455E+04  0.13410537455E+04  0.00000000000E+00 0.  1.
         25    1    1    2    0    0 -0.30346565674E+03 -0.96499624817E+02 -0.32023087697E+03  0.46858979606E+03  0.12500000000E+03 0.  0.
         25    1    1    2    0    0  0.23293229201E+03  0.28305580515E+01 -0.57124693764E+03  0.62945494556E+03  0.12500000000E+03 0.  0.
         25    1    1    2    0    0  0.70533364728E+02  0.93669066765E+02 -0.32508651256E+03  0.36749842211E+03  0.12500000000E+03 0.  0.
</event>
<event>
 5    0  0.5668330E-005  0.2819768E+03  0.7546771E-02  0.1094614E+00
         21   -1    0    0  502  501  0.00000000000E+00  0.00000000000E+00  0.54394567320E+03  0.54394567320E+03  0.00000000000E+00 0.  1.
         21   -1    0    0  501  502 -0.00000000000E+00 -0.00000000000E+00 -0.14617434489E+03  0.14617434489E+03  0.00000000000E+00 0.  1.
         25    1    1    2    0    0 -0.84481058266E+01 -0.96356481570E+02  0.73751359551E+01  0.15822558157E+03  0.12500000000E+03 0.  0.
         25    1    1    2    0    0 -0.60911570269E+02 -0.55089585037E+02  0.12772906056E+03  0.19668450545E+03  0.12500000000E+03 0.  0.
         25    1    1    2    0    0  0.69359676096E+02  0.15144606661E+03  0.26266713180E+03  0.33520993107E+03  0.12500000000E+03 0.  0.
</event>
<event>
 5    0  0.5934628E-005  0.3345106E+03  0.7546771E-02  0.1069158E+00
         21   -1    0    0  502  501  0.00000000000E+00  0.00000000000E+00  0.36787701226E+03  0.36787701226E+03  0.00000000000E+00 0. -1.
         21   -1    0    0  501  502 -0.00000000000E+00 -0.00000000000E+00 -0.30417048794E+03  0.30417048794E+03  0.00000000000E+00 0. -1.
         25    1    1    2    0    0  0.26016835731E+02 -0.96441540194E+02  0.82877346737E+02  0.18019850449E+03  0.12500000000E+03 0.  0.
         25    1    1    2    0    0  0.37896894815E+02 -0.15517528722E+03  0.31101579611E+01  0.20285516381E+03  0.12500000000E+03 0.  0.
         25    1    1    2    0    0 -0.63913730546E+02  0.25161682742E+03 -0.22280980377E+02  0.28899383190E+03  0.12500000000E+03 0.  0.
</event>
<event>
 5    0  0.5668330E-005  0.3853804E+03  0.7546771E-02  0.1048963E+00
         21   -1    0    0  502  501  0.00000000000E+00  0.00000000000E+00  0.10736626240E+03  0.10736626240E+03  0.00000000000E+00 0. -1.
         21   -1    0    0  501  502 -0.00000000000E+00 -0.00000000000E+00 -0.13832844102E+04  0.13832844102E+04  0.00000000000E+00 0.  1.
         25    1    1    2    0    0 -0.14886481197E+03 -0.17674832177E+03 -0.49928352437E+03  0.56418945328E+03  0.12500000000E+03 0.  0.
         25    1    1    2    0    0  0.16115610509E+03  0.23077986413E+03 -0.71090258719E+03  0.77475036261E+03  0.12500000000E+03 0.  0.
         25    1    1    2    0    0 -0.12291293129E+02 -0.54031542367E+02 -0.65732036281E+02  0.15171085673E+03  0.12500000000E+03 0.  0.
</event>
<event>
 5    0  0.5668330E-005  0.2615590E+03  0.7546771E-02  0.1106210E+00
         21   -1    0    0  502  501  0.00000000000E+00  0.00000000000E+00  0.68032413590E+02  0.68032413590E+02  0.00000000000E+00 0. -1.
         21   -1    0    0  501  502 -0.00000000000E+00 -0.00000000000E+00 -0.10055956641E+04  0.10055956641E+04  0.00000000000E+00 0. -1.
         25    1    1    2    0    0 -0.11434578167E+03  0.18946989989E+02 -0.38699207232E+03  0.42287327919E+03  0.12500000000E+03 0.  0.
         25    1    1    2    0    0  0.11076963268E+03 -0.92315635017E+02 -0.39143988117E+03  0.43547935492E+03  0.12500000000E+03 0.  0.
         25    1    1    2    0    0  0.35761489865E+01  0.73368645028E+02 -0.15913129701E+03  0.21527544357E+03  0.12500000000E+03 0.  0.
</event>
<event>
 5    0  0.5668330E-005  0.2825256E+03  0.7546771E-02  0.1094317E+00
         21   -1    0    0  502  501  0.00000000000E+00  0.00000000000E+00  0.99886195515E+02  0.99886195515E+02  0.00000000000E+00 0. -1.
         21   -1    0    0  501  502 -0.00000000000E+00 -0.00000000000E+00 -0.79911662747E+03  0.79911662747E+03  0.00000000000E+00 0. -1.
         25    1    1    2    0    0 -0.25472177471E+02  0.90518828158E+02 -0.10725249115E+03  0.18965913354E+03  0.12500000000E+03 0.  0.
         25    1    1    2    0    0  0.11869618801E+03 -0.10361143303E+03 -0.18479498448E+03  0.27312689430E+03  0.12500000000E+03 0.  0.
         25    1    1    2    0    0 -0.93224010537E+02  0.13092604875E+02 -0.40718295633E+03  0.43621679515E+03  0.12500000000E+03 0.  0.
</event>
<event>
 5    0  0.5668330E-005  0.3125313E+03  0.7546771E-02  0.1079139E+00
         21   -1    0    0  502  501  0.00000000000E+00  0.00000000000E+00  0.29923821177E+03  0.29923821177E+03  0.00000000000E+00 0. -1.
         21   -1    0    0  501  502 -0.00000000000E+00 -0.00000000000E+00 -0.32641497287E+03  0.32641497287E+03  0.00000000000E+00 0. -1.
         25    1    1    2    0    0 -0.89394029496E+01 -0.14906855286E+03  0.11803270152E+03  0.22772365930E+03  0.12500000000E+03 0.  0.
         25    1    1    2    0    0 -0.62471645961E+02 -0.11003276659E+02 -0.35508925297E+01  0.14021906962E+03  0.12500000000E+03 0.  0.
         25    1    1    2    0    0  0.71411048910E+02  0.16007182952E+03 -0.14165857009E+03  0.25771045572E+03  0.12500000000E+03 0.  0.
</event>
<event>
 5    0  0.5668330E-005  0.3276987E+03  0.7546771E-02  0.1072160E+00
         21   -1    0    0  502  501  0.00000000000E+00  0.00000000000E+00  0.82223565289E+02  0.82223565289E+02  0.00000000000E+00 0.  1.
         21   -1    0    0  501  502 -0.00000000000E+00 -0.00000000000E+00 -0.13060302510E+04  0.13060302510E+04  0.00000000000E+00 0.  1.
         25    1    1    2    0    0 -0.26634454345E+01 -0.48281575040E+02 -0.13371946831E+03  0.18932538296E+03  0.12500000000E+03 0.  0.
         25    1    1    2    0    0 -0.21846255025E+01 -0.86682814523E+02 -0.79360510191E+02  0.17158605275E+03  0.12500000000E+03 0.  0.
         25    1    1    2    0    0  0.48480709370E+01  0.13496438956E+03 -0.10107267072E+04  0.10273423805E+04  0.12500000000E+03 0.  0.
</event>
<event>
 5    0  0.5668330E-005  0.4552587E+03  0.7546771E-02  0.1026165E+00
         21   -1    0    0  502  501  0.00000000000E+00  0.00000000000E+00  0.37525377583E+03  0.37525377583E+03  0.00000000000E+00 0.  1.
         21   -1    0    0  501  502 -0.00000000000E+00 -0.00000000000E+00 -0.55232076906E+03  0.55232076906E+03  0.00000000000E+00 0.  1.
         25    1    1    2    0    0  0.26877429514E+03  0.15382656125E+03 -0.27832856413E+03  0.43473442731E+03  0.12500000000E+03 0.  0.
         25    1    1    2    0    0 -0.12241776284E+03 -0.90193438298E+02 -0.87899505555E+02  0.21557432140E+03  0.12500000000E+03 0.  0.
         25    1    1    2    0    0 -0.14635653231E+03 -0.63633122953E+02  0.18916107645E+03  0.27726579618E+03  0.12500000000E+03 0.  0.
</event>
<event>
 5    0  0.5668330E-005  0.3279859E+03  0.7546771E-02  0.1072032E+00
         21   -1    0    0  502  501  0.00000000000E+00  0.00000000000E+00  0.14026581518E+04  0.14026581518E+04  0.00000000000E+00 0. -1.
         21   -1    0    0  501  502 -0.00000000000E+00 -0.00000000000E+00 -0.76693476930E+02  0.76693476930E+02  0.00000000000E+00 0.  1.
         25    1    1    2    0    0 -0.17546982939E+03  0.11375253285E+03  0.46594337936E+03  0.52579229029E+03  0.12500000000E+03 0.  0.
         25    1    1    2    0    0  0.20441211190E+03 -0.37252831413E+02  0.66549007631E+03  0.70828957822E+03  0.12500000000E+03 0.  0.
         25    1    1    2    0    0 -0.28942282514E+02 -0.76499701440E+02  0.19453121919E+03  0.24526976022E+03  0.12500000000E+03 0.  0.
</event>
<event>
 5    0  0.5668330E-005  0.3618848E+03  0.7546771E-02  0.1057840E+00
         21   -1    0    0  502  501  0.00000000000E+00  0.00000000000E+00  0.62452043659E+03  0.62452043659E+03  0.00000000000E+00 0.  1.
         21   -1    0    0  501  502 -0.00000000000E+00 -0.00000000000E+00 -0.20969789645E+03  0.20969789645E+03  0.00000000000E+00 0.  1.
         25    1    1    2    0    0  0.17519005707E+03 -0.43107404572E+02 -0.25907793950E+02  0.22101135313E+03  0.12500000000E+03 0.  0.
         25    1    1    2    0    0 -0.46817801565E+02 -0.34587632116E+02  0.76172009793E+01  0.13809863355E+03  0.12500000000E+03 0.  0.
         25    1    1    2    0    0 -0.12837225550E+03  0.77695036688E+02  0.43311313311E+03  0.47510834636E+03  0.12500000000E+03 0.  0.
</event>
<event>
 5    0  0.6275335E-005  0.2621566E+03  0.7546771E-02  0.1105854E+00
         21   -1    0    0  502  501  0.00000000000E+00  0.00000000000E+00  0.81482270716E+02  0.81482270716E+02  0.00000000000E+00 0.  1.
         21   -1    0    0  501  502 -0.00000000000E+00 -0.00000000000E+00 -0.84344838946E+03  0.84344838946E+03  0.00000000000E+00 0.  1.
         25    1    1    2    0    0  0.87746064578E+02  0.22113307389E+02 -0.17465628174E+03  0.23306262455E+03  0.12500000000E+03 0.  0.
         25    1    1    2    0    0 -0.14928431001E+03 -0.83566280628E+02 -0.37276897050E+03  0.42877830384E+03  0.12500000000E+03 0.  0.
         25    1    1    2    0    0  0.61538245431E+02  0.61452973239E+02 -0.21454086651E+03  0.26308973179E+03  0.12500000000E+03 0.  0.
</event>
<event>
 5    0  0.5668330E-005  0.2698571E+03  0.7546771E-02  0.1101361E+00
         21   -1    0    0  502  501  0.00000000000E+00  0.00000000000E+00  0.87470833422E+03  0.87470833422E+03  0.00000000000E+00 0. -1.
         21   -1    0    0  501  502 -0.00000000000E+00 -0.00000000000E+00 -0.83253894304E+02  0.83253894304E+02  0.00000000000E+00 0. -1.
         25    1    1    2    0    0 -0.13297854649E+02 -0.56820231998E+02  0.77205240994E+02  0.15808548618E+03  0.12500000000E+03 0.  0.
         25    1    1    2    0    0  0.37034016229E+02  0.71744737624E+02  0.11770435064E+03  0.18973175774E+03  0.12500000000E+03 0.  0.
         25    1    1    2    0    0 -0.23736161580E+02 -0.14924505626E+02  0.59654484828E+03  0.61014498461E+03  0.12500000000E+03 0.  0.
</event>
<event>
 5    0  0.5668330E-005  0.3029891E+03  0.7546771E-02  0.1083756E+00
         21   -1    0    0  502  501  0.00000000000E+00  0.00000000000E+00  0.90210578210E+03  0.90210578210E+03  0.00000000000E+00 0.  1.
         21   -1    0    0  501  502 -0.00000000000E+00 -0.00000000000E+00 -0.10176455089E+03  0.10176455089E+03  0.00000000000E+00 0.  1.
         25    1    1    2    0    0  0.19080378641E+03  0.24174129235E+02  0.46563594322E+03  0.51906869011E+03  0.12500000000E+03 0.  0.
         25    1    1    2    0    0 -0.12968585785E+03 -0.10318289975E+01  0.28119692233E+03  0.33394040714E+03  0.12500000000E+03 0.  0.
         25    1    1    2    0    0 -0.61117928560E+02 -0.23142300237E+02  0.53508365664E+02  0.15086123574E+03  0.12500000000E+03 0.  0.
</event>
<event>
 5    0  0.5668330E-005  0.3923895E+03  0.7546771E-02  0.1046447E+00
         21   -1    0    0  502  501  0.00000000000E+00  0.00000000000E+00  0.34642234299E+03  0.34642234299E+03  0.00000000000E+00 0.  1.
         21   -1    0    0  501  502 -0.00000000000E+00 -0.00000000000E+00 -0.44445611781E+03  0.44445611781E+03  0.00000000000E+00 0.  1.
         25    1    1    2    0    0  0.20387734111E+03  0.57367936960E+02 -0.13445130973E+03  0.28028415063E+03  0.12500000000E+03 0.  0.
         25    1    1    2    0    0  0.86616157950E+02 -0.10412131224E+03  0.48849195754E+02  0.19066947948E+03  0.12500000000E+03 0.  0.
         25    1    1    2    0    0 -0.29049349906E+03  0.46753375276E+02 -0.12431660848E+02  0.31992483068E+03  0.12500000000E+03 0.  0.
</event>
<event>
 5    0  0.5668330E-005  0.3032170E+03  0.7546771E-02  0.1083643E+00
         21   -1    0    0  502  501  0.00000000000E+00  0.00000000000E+00  0.42094765923E+03  0.42094765923E+03  0.00000000000E+00 0. -1.
         21   -1    0    0  501  502 -0.00000000000E+00 -0.00000000000E+00 -0.21841318681E+03  0.21841318681E+03  0.00000000000E+00 0. -1.
         25    1    1    2    0    0  0.57469098811E+02  0.14545836390E+03  0.85057080544E+02  0.21753284786E+03  0.12500000000E+03 0.  0.
         25    1    1    2    0    0  0.65253731586E+02 -0.82698981644E+02 -0.50556969301E+02  0.17110867364E+03  0.12500000000E+03 0.  0.
         25    1    1    2    0    0 -0.12272283040E+03 -0.62759382256E+02  0.16803436118E+03  0.25071932454E+03  0.12500000000E+03 0.  0.
</event>
<event>
 5    0  0.5668330E-005  0.2994548E+03  0.7546771E-02  0.1085513E+00
         21   -1    0    0  502  501  0.00000000000E+00  0.00000000000E+00  0.28807606862E+03  0.28807606862E+03  0.00000000000E+00 0.  1.
         21   -1    0    0  501  502 -0.00000000000E+00 -0.00000000000E+00 -0.31128289344E+03  0.31128289344E+03  0.00000000000E+00 0.  1.
         25    1    1    2    0    0  0.10691702550E+03 -0.22844372096E+02 -0.15708316226E+03  0.22858966631E+03  0.12500000000E+03 0.  0.
         25    1    1    2    0    0 -0.10339193900E+03 -0.82110806691E+02  0.82146362832E+02  0.19951216141E+03  0.12500000000E+03 0.  0.
         25    1    1    2    0    0 -0.35250864952E+01  0.10495517879E+03  0.51729974605E+02  0.17125713434E+03  0.12500000000E+03 0.  0.
</event>
<event>
 5    0  0.5668330E-005  0.3165146E+03  0.7546771E-02  0.1077265E+00
         21   -1    0    0  502  501  0.00000000000E+00  0.00000000000E+00  0.59478449014E+03  0.59478449014E+03  0.00000000000E+00 0. -1.
         21   -1    0    0  501  502 -0.00000000000E+00 -0.00000000000E+00 -0.16843326775E+03  0.16843326775E+03  0.00000000000E+00 0. -1.
         25    1    1    2    0    0 -0.15380277255E+03  0.33616946824E+02  0.32152707122E+01  0.20104907342E+03  0.12500000000E+03 0.  0.
         25    1    1    2    0    0  0.98929711662E+02 -0.11840983991E+03  0.29975546293E+03  0.35956406326E+03  0.12500000000E+03 0.  0.
         25    1    1    2    0    0  0.54873060884E+02  0.84792893087E+02  0.12338048875E+03  0.20260462121E+03  0.12500000000E+03 0.  0.
</event>
<event>
 5    0  0.5861240E-005  0.2641202E+03  0.7546771E-02  0.1104693E+00
         21   -1    0    0  502  501  0.00000000000E+00  0.00000000000E+00  0.53995666850E+03  0.53995666850E+03  0.00000000000E+00 0.  1.
         21   -1    0    0  501  502 -0.00000000000E+00 -0.00000000000E+00 -0.12919461461E+03  0.12919461461E+03  0.00000000000E+00 0.  1.
         25    1    1    2    0    0 -0.10415852308E+03 -0.20956328116E+02  0.24261675474E+03  0.29287549453E+03  0.12500000000E+03 0.  0.
         25    1    1    2    0    0 -0.10805478965E+02  0.95727770493E+01  0.16309192191E+03  0.20599119260E+03  0.12500000000E+03 0.  0.
         25    1    1    2    0    0  0.11496400205E+03  0.11383551066E+02  0.50533772375E+01  0.17028459596E+03  0.12500000000E+03 0.  0.
</event>
<event>
 5    0  0.5668330E-005  0.3182921E+03  0.7546771E-02  0.1076438E+00
         21   -1    0    0  502  501  0.00000000000E+00  0.00000000000E+00  0.25532167516E+03  0.25532167516E+03  0.00000000000E+00 0.  1.
         21   -1    0    0  501  502 -0.00000000000E+00 -0.00000000000E+00 -0.39679300066E+03  0.39679300066E+03  0.00000000000E+00 0.  1.
         25    1    1    2    0    0 -0.10420950925E+02  0.63306437367E+02 -0.16256196487E+02  0.14144103066E+03  0.12500000000E+03 0.  0.
         25    1    1    2    0    0  0.15718561445E+03 -0.16110332222E+03 -0.14169426424E+03  0.29387729130E+03  0.12500000000E+03 0.  0.
         25    1    1    2    0    0 -0.14676466353E+03  0.97796884858E+02  0.16479135219E+02  0.21679635386E+03  0.12500000000E+03 0.  0.
</event>
<event>
 5    0  0.5668330E-005  0.2706586E+03  0.7546771E-02  0.1100903E+00
         21   -1    0    0  502  501  0.00000000000E+00  0.00000000000E+00  0.20376326931E+03  0.20376326931E+03  0.00000000000E+00 0.  1.
         21   -1    0    0  501  502 -0.00000000000E+00 -0.00000000000E+00 -0.35951553690E+03  0.35951553690E+03  0.00000000000E+00 0.  1.
         25    1    1    2    0    0 -0.30918929159E+02  0.96830605229E+02  0.95660681176E+01  0.16139596014E+03  0.12500000000E+03 0.  0.
         25    1    1    2    0    0  0.68108531737E+02  0.48206669781E+02 -0.66347040950E+01  0.15043827440E+03  0.12500000000E+03 0.  0.
         25    1    1    2    0    0 -0.37189602578E+02 -0.14503727501E+03 -0.15868363161E+03  0.25144457167E+03  0.12500000000E+03 0.  0.
</event>
<event>
 5    0  0.5668330E-005  0.3026734E+03  0.7546771E-02  0.1083912E+00
         21   -1    0    0  502  501  0.00000000000E+00  0.00000000000E+00  0.27907419280E+03  0.27907419280E+03  0.00000000000E+00 0.  1.
         21   -1    0    0  501  502 -0.00000000000E+00 -0.00000000000E+00 -0.32826817024E+03  0.32826817024E+03  0.00000000000E+00 0.  1.
         25    1    1    2    0    0 -0.77040233149E+02 -0.20903129259E+02 -0.25768401177E+02  0.15053620440E+03  0.12500000000E+03 0.  0.
         25    1    1    2    0    0 -0.11036309600E+03  0.72507567375E+02 -0.10709405588E+03  0.21102487316E+03  0.12500000000E+03 0.  0.
         25    1    1    2    0    0  0.18740332915E+03 -0.51604438116E+02  0.83668479620E+02  0.24578128548E+03  0.12500000000E+03 0.  0.
</event>
<event>
 5    0  0.5668330E-005  0.2503300E+03  0.7546771E-02  0.1113096E+00
         21   -1    0    0  502  501  0.00000000000E+00  0.00000000000E+00  0.35989808415E+03  0.35989808415E+03  0.00000000000E+00 0.  1.
         21   -1    0    0  501  502 -0.00000000000E+00 -0.00000000000E+00 -0.17411909193E+03  0.17411909193E+03  0.00000000000E+00 0.  1.
         25    1    1    2    0    0 -0.21691284673E+02 -0.17430186018E+02  0.11094453512E+02  0.12853952744E+03  0.12500000000E+03 0.  0.
         25    1    1    2    0    0 -0.43276255661E+02  0.11649413832E+03  0.15009720124E+03  0.23151217762E+03  0.12500000000E+03 0.  0.
         25    1    1    2    0    0  0.64967540333E+02 -0.99063952302E+02  0.24587337473E+02  0.17396547102E+03  0.12500000000E+03 0.  0.
</event>
<event>
 5    0  0.5668330E-005  0.2771002E+03  0.7546771E-02  0.1097283E+00
         21   -1    0    0  502  501  0.00000000000E+00  0.00000000000E+00  0.10439429460E+03  0.10439429460E+03  0.00000000000E+00 0. -1.
         21   -1    0    0  501  502 -0.00000000000E+00 -0.00000000000E+00 -0.73552385834E+03  0.73552385834E+03  0.00000000000E+00 0. -1.
         25    1    1    2    0    0  0.11825876223E+03  0.45264923758E+02 -0.79317082582E+02  0.19480823329E+03  0.12500000000E+03 0.  0.
         25    1    1    2    0    0 -0.15339078129E+03 -0.50504125591E+02 -0.33552243352E+03  0.39278454893E+03  0.12500000000E+03 0.  0.
         25    1    1    2    0    0  0.35132019063E+02  0.52392018323E+01 -0.21629004764E+03  0.25232537072E+03  0.12500000000E+03 0.  0.
</event>
<event>
 5    0  0.5668330E-005  0.3424800E+03  0.7546771E-02  0.1065745E+00
         21   -1    0    0  502  501  0.00000000000E+00  0.00000000000E+00  0.12702090339E+03  0.12702090339E+03  0.00000000000E+00 0. -1.
         21   -1    0    0  501  502 -0.00000000000E+00 -0.00000000000E+00 -0.92341151024E+03  0.92341151024E+03  0.00000000000E+00 0. -1.
         25    1    1    2    0    0  0.43864474932E+02 -0.15598093035E+03 -0.10741120094E+03  0.23111968519E+03  0.12500000000E+03 0.  0.
         25    1    1    2    0    0  0.86450401109E+02  0.10149042016E+03 -0.11690532068E+03  0.21694660919E+03  0.12500000000E+03 0.  0.
         25    1    1    2    0    0 -0.13031487604E+03  0.54490510186E+02 -0.57207408524E+03  0.60236611925E+03  0.12500000000E+03 0.  0.
</event>
<event>
 5    0  0.5668330E-005  0.3431038E+03  0.7546771E-02  0.1065482E+00
         21   -1    0    0  502  501  0.00000000000E+00  0.00000000000E+00  0.43127237200E+03  0.43127237200E+03  0.00000000000E+00 0. -1.
         21   -1    0    0  501  502 -0.00000000000E+00 -0.00000000000E+00 -0.27296022544E+03  0.27296022544E+03  0.00000000000E+00 0. -1.
         25    1    1    2    0    0  0.13189439018E+03  0.20687573299E+03  0.83864441677E+02  0.28784013556E+03  0.12500000000E+03 0.  0.
         25    1    1    2    0    0  0.41822821971E+01 -0.18473151827E+03  0.50798943919E+02  0.22879850968E+03  0.12500000000E+03 0.  0.
         25    1    1    2    0    0 -0.13607667238E+03 -0.22144214716E+02  0.23648760967E+02  0.18759395221E+03  0.12500000000E+03 0.  0.
</event>
<event>
 5    0  0.5668330E-005  0.2852892E+03  0.7546771E-02  0.1092835E+00
         21   -1    0    0  502  501  0.00000000000E+00  0.00000000000E+00  0.24180973140E+03  0.24180973140E+03  0.00000000000E+00 0.  1.
         21   -1    0    0  501  502 -0.00000000000E+00 -0.00000000000E+00 -0.33658653314E+03  0.33658653314E+03  0.00000000000E+00 0.  1.
         25    1    1    2    0    0 -0.19076124031E+02 -0.12415863752E+03 -0.14193316624E+03  0.22704468604E+03  0.12500000000E+03 0.  0.
         25    1    1    2    0    0  0.26891218791E+02 -0.33037452938E+02  0.69314473239E+02  0.14914458470E+03  0.12500000000E+03 0.  0.
         25    1    1    2    0    0 -0.78150947600E+01  0.15719609046E+03 -0.22158108742E+02  0.20220699381E+03  0.12500000000E+03 0.  0.
</event>
<event>
 5    0  0.5668330E-005  0.2170226E+03  0.7546771E-02  0.1136122E+00
         21   -1    0    0  502  501  0.00000000000E+00  0.00000000000E+00  0.68421536833E+02  0.68421536833E+02  0.00000000000E+00 0. -1.
         21   -1    0    0  501  502 -0.00000000000E+00 -0.00000000000E+00 -0.68836227939E+03  0.68836227939E+03  0.00000000000E+00 0. -1.
         25    1    1    2    0    0 -0.28777936570E+02 -0.20509090744E+02 -0.19029759195E+03  0.23040608919E+03  0.12500000000E+03 0.  0.
         25    1    1    2    0    0  0.85573234003E+02  0.19707137121E+02 -0.30419376276E+03  0.34039681981E+03  0.12500000000E+03 0.  0.
         25    1    1    2    0    0 -0.56795297433E+02  0.80195362316E+00 -0.12544938785E+03  0.18598090722E+03  0.12500000000E+03 0.  0.
</event>
<event>
 5    0  0.5968139E-005  0.3877254E+03  0.7546771E-02  0.1048115E+00
         21   -1    0    0  502  501  0.00000000000E+00  0.00000000000E+00  0.60912429525E+03  0.60912429525E+03  0.00000000000E+00 0.  1.
         21   -1    0    0  501  502 -0.00000000000E+00 -0.00000000000E+00 -0.24679857890E+03  0.24679857890E+03  0.00000000000E+00 0.  1.
         25    1    1    2    0    0 -0.31879960309E+02  0.21386261207E+03  0.97119976994E+02  0.26797544410E+03  0.12500000000E+03 0.  0.
         25    1    1    2    0    0  0.18316216171E+03 -0.10099483310E+03  0.59192816651E+01  0.24373832626E+03  0.12500000000E+03 0.  0.
         25    1    1    2    0    0 -0.15128220140E+03 -0.11286777897E+03  0.25928645769E+03  0.34420910379E+03  0.12500000000E+03 0.  0.
</event>
<event>
 5    0  0.5668330E-005  0.3608152E+03  0.7546771E-02  0.1058262E+00
         21   -1    0    0  502  501  0.00000000000E+00  0.00000000000E+00  0.96531225992E+03  0.96531225992E+03  0.00000000000E+00 0. -1.
         21   -1    0    0  501  502 -0.00000000000E+00 -0.00000000000E+00 -0.13486576317E+03  0.13486576317E+03  0.00000000000E+00 0. -1.
         25    1    1    2    0    0 -0.69567141036E+02  0.33756005807E+02  0.51761232737E+03  0.53807673847E+03  0.12500000000E+03 0.  0.
         25    1    1    2    0    0  0.25546874003E+01 -0.15258128748E+03 -0.15976203678E+01  0.19726917678E+03  0.12500000000E+03 0.  0.
         25    1    1    2    0    0  0.67012453636E+02  0.11882528168E+03  0.31443178974E+03  0.36483210784E+03  0.12500000000E+03 0.  0.
</event>
<event>
 5    0  0.5668330E-005  0.3867356E+03  0.7546771E-02  0.1048472E+00
         21   -1    0    0  502  501  0.00000000000E+00  0.00000000000E+00  0.12539225401E+04  0.12539225401E+04  0.00000000000E+00 0.  1.
         21   -1    0    0  501  502 -0.00000000000E+00 -0.00000000000E+00 -0.11927722309E+03  0.11927722309E+03  0.00000000000E+00 0.  1.
         25    1    1    2    0    0  0.74496343875E+02  0.63590641080E+02  0.11210693837E+03  0.19438734659E+03  0.12500000000E+03 0.  0.
         25    1    1    2    0    0 -0.15549549270E+03 -0.20965523247E+03  0.26270844944E+03  0.39086429123E+03  0.12500000000E+03 0.  0.
         25    1    1    2    0    0  0.80999148822E+02  0.14606459139E+03  0.75982992922E+03  0.78794812540E+03  0.12500000000E+03 0.  0.
</event>
<event>
 5    0  0.5668330E-005  0.2489402E+03  0.7546771E-02  0.1113976E+00
         21   -1    0    0  502  501  0.00000000000E+00  0.00000000000E+00  0.15030625149E+03  0.15030625149E+03  0.00000000000E+00 0.  1.
         21   -1    0    0  501  502 -0.00000000000E+00 -0.00000000000E+00 -0.41229958953E+03  0.41229958953E+03  0.00000000000E+00 0.  1.
         25    1    1    2    0    0 -0.32492524421E+02  0.45785809577E+02 -0.44161671965E+02  0.14396998914E+03  0.12500000000E+03 0.  0.
         25    1    1    2    0    0  0.22805324968E+02 -0.76445454781E+01  0.36589654594E+02  0.13244744145E+03  0.12500000000E+03 0.  0.
         25    1    1    2    0    0  0.96871994533E+01 -0.38141264099E+02 -0.25442132067E+03  0.28618841044E+03  0.12500000000E+03 0.  0.
</event>
<event>
 5    0  0.5668330E-005  0.2669353E+03  0.7546771E-02  0.1103047E+00
         21   -1    0    0  502  501  0.00000000000E+00  0.00000000000E+00  0.12067629691E+04  0.12067629691E+04  0.00000000000E+00 0. -1.
         21   -1    0    0  501  502 -0.00000000000E+00 -0.00000000000E+00 -0.59045942758E+02  0.59045942758E+02  0.00000000000E+00 0. -1.
         25    1    1    2    0    0  0.10600522713E+03 -0.11504071089E+03  0.64614899938E+03  0.67646507873E+03  0.12500000000E+03 0.  0.
         25    1    1    2    0    0 -0.93887720815E+02  0.42747635265E+02  0.30164681280E+03  0.34242964841E+03  0.12500000000E+03 0.  0.
         25    1    1    2    0    0 -0.12117506316E+02  0.72293075626E+02  0.19992121419E+03  0.24691418474E+03  0.12500000000E+03 0.  0.
</event>
<event>
 5    0  0.6225867E-005  0.3455073E+03  0.7546771E-02  0.1064474E+00
         21   -1    0    0  502  501  0.00000000000E+00  0.00000000000E+00  0.27324621972E+03  0.27324621972E+03  0.00000000000E+00 0.  1.
         21   -1    0    0  501  502 -0.00000000000E+00 -0.00000000000E+00 -0.43687808610E+03  0.43687808610E+03  0.00000000000E+00 0.  1.
         25    1    1    2    0    0 -0.15340090628E+03  0.15325725741E+03 -0.14446883385E+02  0.25070567891E+03  0.12500000000E+03 0.  0.
         25    1    1    2    0    0  0.11127907908E+03  0.16227727183E+02 -0.17549997205E+03  0.24304652386E+03  0.12500000000E+03 0.  0.
         25    1    1    2    0    0  0.42121827201E+02 -0.16948498459E+03  0.26314989048E+02  0.21637210305E+03  0.12500000000E+03 0.  0.
</event>
<event>
 5    0  0.5668330E-005  0.2567590E+03  0.7546771E-02  0.1109106E+00
         21   -1    0    0  502  501  0.00000000000E+00  0.00000000000E+00  0.12421805595E+03  0.12421805595E+03  0.00000000000E+00 0.  1.
         21   -1    0    0  501  502 -0.00000000000E+00 -0.00000000000E+00 -0.53072133341E+03  0.53072133341E+03  0.00000000000E+00 0.  1.
         25    1    1    2    0    0 -0.14262875510E+00  0.65649936487E+02 -0.14012846821E+03  0.19892441305E+03  0.12500000000E+03 0.  0.
         25    1    1    2    0    0 -0.21579295132E+02 -0.39382482732E+02  0.26789372311E+02  0.13549655491E+03  0.12500000000E+03 0.  0.
         25    1    1    2    0    0  0.21721923887E+02 -0.26267453755E+02 -0.29316418156E+03  0.32051842140E+03  0.12500000000E+03 0.  0.
</event>
<event>
 5    0  0.5668330E-005  0.3292170E+03  0.7546771E-02  0.1071484E+00
         21   -1    0    0  502  501  0.00000000000E+00  0.00000000000E+00  0.40074758156E+03  0.40074758156E+03  0.00000000000E+00 0.  1.
         21   -1    0    0  501  502 -0.00000000000E+00 -0.00000000000E+00 -0.27045416468E+03  0.27045416468E+03  0.00000000000E+00 0.  1.
         25    1    1    2    0    0  0.10567691748E+02 -0.15319743379E+03  0.16340791308E+03  0.25672607169E+03  0.12500000000E+03 0.  0.
         25    1    1    2    0    0  0.32778005089E+02 -0.57612267188E+02 -0.78016715617E+02  0.16157097160E+03  0.12500000000E+03 0.  0.
         25    1    1    2    0    0 -0.43345696836E+02  0.21080970098E+03  0.44902219416E+02  0.25290470294E+03  0.12500000000E+03 0.  0.
</event>
<event>
 5    0  0.5668330E-005  0.5251353E+03  0.7546771E-02  0.1007419E+00
         21   -1    0    0  502  501  0.00000000000E+00  0.00000000000E+00  0.28682045865E+03  0.28682045865E+03  0.00000000000E+00 0.  1.
         21   -1    0    0  501  502 -0.00000000000E+00 -0.00000000000E+00 -0.96146255494E+03  0.96146255494E+03  0.00000000000E+00 0. -1.
         25    1    1    2    0    0  0.19568719963E+03  0.13162433293E+03 -0.38360816947E+02  0.26965718495E+03  0.12500000000E+03 0.  0.
         25    1    1    2    0    0 -0.95430353071E+02  0.26849132048E+03 -0.29630248703E+03  0.42966813389E+03  0.12500000000E+03 0.  0.
         25    1    1    2    0    0 -0.10025684656E+03 -0.40011565342E+03 -0.33997879231E+03  0.54895769474E+03  0.12500000000E+03 0.  0.
</event>
<event>
 5    0  0.5668330E-005  0.2705125E+03  0.7546771E-02  0.1100987E+00
         21   -1    0    0  502  501  0.00000000000E+00  0.00000000000E+00  0.39179480477E+03  0.39179480477E+03  0.00000000000E+00 0.  1.
         21   -1    0    0  501  502 -0.00000000000E+00 -0.00000000000E+00 -0.18677380763E+03  0.18677380763E+03  0.00000000000E+00 0.  1.
         25    1    1    2    0    0 -0.88430830452E+02 -0.87805228212E+02  0.25913212702E+02  0.17839917171E+03  0.12500000000E+03 0.  0.
         25    1    1    2    0    0  0.16084557963E+02 -0.49427373534E+02  0.48141914008E+01  0.13546200463E+03  0.12500000000E+03 0.  0.
         25    1    1    2    0    0  0.72346272489E+02  0.13723260175E+03  0.17429359304E+03  0.26470743605E+03  0.12500000000E+03 0.  0.
</event>
<event>
 5    0  0.5668330E-005  0.2481094E+03  0.7546771E-02  0.1114505E+00
         21   -1    0    0  502  501  0.00000000000E+00  0.00000000000E+00  0.48953773865E+03  0.48953773865E+03  0.00000000000E+00 0.  1.
         21   -1    0    0  501  502 -0.00000000000E+00 -0.00000000000E+00 -0.12574778788E+03  0.12574778788E+03  0.00000000000E+00 0.  1.
         25    1    1    2    0    0 -0.42549825776E+02  0.63651831421E+02  0.25884832649E+03  0.29747184647E+03  0.12500000000E+03 0.  0.
         25    1    1    2    0    0 -0.47419075559E+02 -0.13518629139E+02  0.72308232276E+02  0.15259358609E+03  0.12500000000E+03 0.  0.
         25    1    1    2    0    0  0.89968901334E+02 -0.50133202283E+02  0.32633392007E+02  0.16522009397E+03  0.12500000000E+03 0.  0.
</event>
<event>
 5    0  0.5668330E-005  0.4054470E+03  0.7546771E-02  0.1041910E+00
         21   -1    0    0  502  501  0.00000000000E+00  0.00000000000E+00  0.14325977920E+03  0.14325977920E+03  0.00000000000E+00 0.  1.
         21   -1    0    0  501  502 -0.00000000000E+00 -0.00000000000E+00 -0.11474770507E+04  0.11474770507E+04  0.00000000000E+00 0.  1.
         25    1    1    2    0    0  0.26434867107E+03 -0.80647186127E+02 -0.18559242122E+03  0.35560333990E+03  0.12500000000E+03 0.  0.
         25    1    1    2    0    0 -0.18805394243E+03  0.56560576854E+01 -0.69078310777E+03  0.72677546617E+03  0.12500000000E+03 0.  0.
         25    1    1    2    0    0 -0.76294728647E+02  0.74991128442E+02 -0.12784174246E+03  0.20835802380E+03  0.12500000000E+03 0.  0.
</event>
<event>
 5    0  0.5668330E-005  0.4311477E+03  0.7546771E-02  0.1033498E+00
         21   -1    0    0  502  501  0.00000000000E+00  0.00000000000E+00  0.85209249724E+03  0.85209249724E+03  0.00000000000E+00 0.  1.
         21   -1    0    0  501  502 -0.00000000000E+00 -0.00000000000E+00 -0.21815511817E+03  0.21815511817E+03  0.00000000000E+00 0.  1.
         25    1    1    2    0    0 -0.14185087811E+03  0.18433358889E+03  0.47217278121E+03  0.54099230949E+03  0.12500000000E+03 0.  0.
         25    1    1    2    0    0  0.86991171047E+01  0.87951301101E+02  0.12820307721E+03  0.19968008165E+03  0.12500000000E+03 0.  0.
         25    1    1    2    0    0  0.13315176100E+03 -0.27228488999E+03  0.33561520656E+02  0.32957522426E+03  0.12500000000E+03 0.  0.
</event>
<event>
 5    0  0.5668330E-005  0.2351702E+03  0.7546771E-02  0.1123053E+00
         21   -1    0    0  502  501  0.00000000000E+00  0.00000000000E+00  0.19358441246E+03  0.19358441246E+03  0.00000000000E+00 0.  1.
         21   -1    0    0  501  502 -0.00000000000E+00 -0.00000000000E+00 -0.28568955697E+03  0.28568955697E+03  0.00000000000E+00 0.  1.
         25    1    1    2    0    0 -0.10143301765E+02  0.19984168917E+02 -0.28043114652E+02  0.13005256575E+03  0.12500000000E+03 0.  0.
         25    1    1    2    0    0  0.83441814826E+02  0.21095608415E+02 -0.11479498457E+03  0.19029043496E+03  0.12500000000E+03 0.  0.
         25    1    1    2    0    0 -0.73298513060E+02 -0.41079777332E+02  0.50732954716E+02  0.15893096871E+03  0.12500000000E+03 0.  0.
</event>
<event>
 5    0  0.5668330E-005  0.2220681E+03  0.7546771E-02  0.1132351E+00
         21   -1    0    0  502  501  0.00000000000E+00  0.00000000000E+00  0.51921232701E+03  0.51921232701E+03  0.00000000000E+00 0. -1.
         21   -1    0    0  501  502 -0.00000000000E+00 -0.00000000000E+00 -0.94978968005E+02  0.94978968005E+02  0.00000000000E+00 0. -1.
         25    1    1    2    0    0  0.44483178860E+02  0.90619290099E+02  0.93753613950E+02  0.18602513021E+03  0.12500000000E+03 0.  0.
         25    1    1    2    0    0 -0.13138963000E+02 -0.39329970145E+02  0.13624023095E+03  0.18948846780E+03  0.12500000000E+03 0.  0.
         25    1    1    2    0    0 -0.31344215860E+02 -0.51289319954E+02  0.19423951410E+03  0.23867769700E+03  0.12500000000E+03 0.  0.
</event>
<event>
 5    0  0.5929442E-005  0.2463378E+03  0.7546771E-02  0.1115641E+00
         21   -1    0    0  502  501  0.00000000000E+00  0.00000000000E+00  0.32674899777E+03  0.32674899777E+03  0.00000000000E+00 0.  1.
         21   -1    0    0  501  502 -0.00000000000E+00 -0.00000000000E+00 -0.18571542978E+03  0.18571542978E+03  0.00000000000E+00 0.  1.
         25    1    1    2    0    0 -0.18270748147E+02 -0.29138392882E+02 -0.27024248565E+02  0.13243177937E+03  0.12500000000E+03 0.  0.
         25    1    1    2    0    0  0.97389307721E+02  0.65138924460E+02  0.14812449856E+03  0.22648095684E+03  0.12500000000E+03 0.  0.
         25    1    1    2    0    0 -0.79118559574E+02 -0.36000531577E+02  0.19933317992E+02  0.15355169133E+03  0.12500000000E+03 0.  0.
</event>
<event>
 5    0  0.5668330E-005  0.2466276E+03  0.7546771E-02  0.1115455E+00
         21   -1    0    0  502  501  0.00000000000E+00  0.00000000000E+00  0.37709090638E+03  0.37709090638E+03  0.00000000000E+00 0.  1.
         21   -1    0    0  501  502 -0.00000000000E+00 -0.00000000000E+00 -0.16130104314E+03  0.16130104314E+03  0.00000000000E+00 0.  1.
         25    1    1    2    0    0  0.46142610765E+02 -0.18875336077E+02  0.12270028123E+03  0.18211473816E+03  0.12500000000E+03 0.  0.
         25    1    1    2    0    0 -0.47920662458E+02 -0.21035016999E+02  0.15942328708E+03  0.20923586283E+03  0.12500000000E+03 0.  0.
         25    1    1    2    0    0  0.17780516929E+01  0.39910353077E+02 -0.66333705074E+02  0.14704134854E+03  0.12500000000E+03 0.  0.
</event>
<event>
 5    0  0.5668330E-005  0.3602058E+03  0.7546771E-02  0.1058502E+00
         21   -1    0    0  502  501  0.00000000000E+00  0.00000000000E+00  0.32060199121E+03  0.32060199121E+03  0.00000000000E+00 0.  1.
         21   -1    0    0  501  502 -0.00000000000E+00 -0.00000000000E+00 -0.40470194289E+03  0.40470194289E+03  0.00000000000E+00 0.  1.
         25    1    1    2    0    0  0.28317264609E+02  0.23484207526E+03 -0.17613257683E+03  0.32031289766E+03  0.12500000000E+03 0.  0.
         25    1    1    2    0    0 -0.36276081896E+01 -0.24397697363E+02  0.95054418187E+02  0.15896147204E+03  0.12500000000E+03 0.  0.
         25    1    1    2    0    0 -0.24689656419E+02 -0.21044437790E+03 -0.30217930352E+01  0.24602956439E+03  0.12500000000E+03 0.  0.
</event>
<event>
 5    0  0.5668330E-005  0.3254001E+03  0.7546771E-02  0.1073191E+00
         21   -1    0    0  502  501  0.00000000000E+00  0.00000000000E+00  0.17501200242E+03  0.17501200242E+03  0.00000000000E+00 0. -1.
         21   -1    0    0  501  502 -0.00000000000E+00 -0.00000000000E+00 -0.60501687683E+03  0.60501687683E+03  0.00000000000E+00 0. -1.
         25    1    1    2    0    0  0.28362036911E+02  0.14008868074E+03 -0.20569401873E+02  0.19099042883E+03  0.12500000000E+03 0.  0.
         25    1    1    2    0    0 -0.16669559175E+02 -0.20004280247E+03 -0.11407518735E+03  0.26255122432E+03  0.12500000000E+03 0.  0.
         25    1    1    2    0    0 -0.11692477736E+02  0.59954121727E+02 -0.29536028519E+03  0.32648722611E+03  0.12500000000E+03 0.  0.
</event>
<event>
 5    0  0.5668330E-005  0.2314300E+03  0.7546771E-02  0.1125637E+00
         21   -1    0    0  502  501  0.00000000000E+00  0.00000000000E+00  0.20230952200E+03  0.20230952200E+03  0.00000000000E+00 0.  1.
         21   -1    0    0  501  502 -0.00000000000E+00 -0.00000000000E+00 -0.26474219384E+03  0.26474219384E+03  0.00000000000E+00 0.  1.
         25    1    1    2    0    0  0.80465663651E+02  0.51197279237E+02 -0.59309907806E+02  0.16804329678E+03  0.12500000000E+03 0.  0.
         25    1    1    2    0    0  0.22235222248E+02  0.71708547339E+00  0.16262488234E+02  0.12800151500E+03  0.12500000000E+03 0.  0.
         25    1    1    2    0    0 -0.10270088590E+03 -0.51914364711E+02 -0.19385252269E+02  0.17100690405E+03  0.12500000000E+03 0.  0.
</event>
<event>
 5    0  0.5668330E-005  0.4734293E+03  0.7546771E-02  0.1020957E+00
         21   -1    0    0  502  501  0.00000000000E+00  0.00000000000E+00  0.15733943102E+03  0.15733943102E+03  0.00000000000E+00 0.  1.
         21   -1    0    0  501  502 -0.00000000000E+00 -0.00000000000E+00 -0.14245335024E+04  0.14245335024E+04  0.00000000000E+00 0.  1.
         25    1    1    2    0    0  0.17530916179E+03 -0.15854107826E+03 -0.11504330982E+04  0.11810969008E+04  0.12500000000E+03 0.  0.
         25    1    1    2    0    0 -0.11920676009E+02  0.94059585351E+02 -0.96605229716E+02  0.18424678700E+03  0.12500000000E+03 0.  0.
         25    1    1    2    0    0 -0.16338848578E+03  0.64481492909E+02 -0.20155743509E+02  0.21652924563E+03  0.12500000000E+03 0.  0.
</event>
<event>
 5    0  0.5668330E-005  0.4548484E+03  0.7546771E-02  0.1026286E+00
         21   -1    0    0  502  501  0.00000000000E+00  0.00000000000E+00  0.14311717875E+03  0.14311717875E+03  0.00000000000E+00 0.  1.
         21   -1    0    0  501  502 -0.00000000000E+00 -0.00000000000E+00 -0.14455783031E+04  0.14455783031E+04  0.00000000000E+00 0.  1.
         25    1    1    2    0    0 -0.18371381255E+03  0.16091712182E+03 -0.19925929165E+03  0.33907867866E+03  0.12500000000E+03 0.  0.
         25    1    1    2    0    0  0.28931684510E+03 -0.75565459197E+02 -0.96805379922E+03  0.10208660704E+04  0.12500000000E+03 0.  0.
         25    1    1    2    0    0 -0.10560303255E+03 -0.85351662625E+02 -0.13514803347E+03  0.22875073278E+03  0.12500000000E+03 0.  0.
</event>
<event>
 5    0  0.5668330E-005  0.2602205E+03  0.7546771E-02  0.1107011E+00
         21   -1    0    0  502  501  0.00000000000E+00  0.00000000000E+00  0.57825080084E+02  0.57825080084E+02  0.00000000000E+00 0. -1.
         21   -1    0    0  501  502 -0.00000000000E+00 -0.00000000000E+00 -0.11710266935E+04  0.11710266935E+04  0.00000000000E+00 0. -1.
         25    1    1    2    0    0 -0.13010822113E+03 -0.16895307932E+02 -0.25678897779E+03  0.31429155215E+03  0.12500000000E+03 0.  0.
         25    1    1    2    0    0  0.75577671176E+02 -0.65450589161E+02 -0.47377292823E+03  0.50008154488E+03  0.12500000000E+03 0.  0.
         25    1    1    2    0    0  0.54530549954E+02  0.82345897093E+02 -0.38263970735E+03  0.41447867651E+03  0.12500000000E+03 0.  0.
</event>
<event>
 5    0  0.5668330E-005  0.3493108E+03  0.7546771E-02  0.1062898E+00
         21   -1    0    0  502  501  0.00000000000E+00  0.00000000000E+00  0.37283281024E+03  0.37283281024E+03  0.00000000000E+00 0.  1.
         21   -1    0    0  501  502 -0.00000000000E+00 -0.00000000000E+00 -0.32727271417E+03  0.32727271417E+03  0.00000000000E+00 0.  1.
         25    1    1    2    0    0  0.37956199137E+02  0.91392362187E+02  0.17114433144E+03  0.23389873685E+03  0.12500000000E+03 0.  0.
         25    1    1    2    0    0 -0.13658593870E+02  0.13442836169E+03 -0.88760472106E+02  0.20435499265E+03  0.12500000000E+03 0.  0.
         25    1    1    2    0    0 -0.24297605267E+02 -0.22582072387E+03 -0.36823763265E+02  0.26185179490E+03  0.12500000000E+03 0.  0.
</event>
<event>
 5    0  0.5668330E-005  0.3257591E+03  0.7546771E-02  0.1073029E+00
         21   -1    0    0  502  501  0.00000000000E+00  0.00000000000E+00  0.29716900521E+03  0.29716900521E+03  0.00000000000E+00 0.  1.
         21   -1    0    0  501  502 -0.00000000000E+00 -0.00000000000E+00 -0.35709982707E+03  0.35709982707E+03  0.00000000000E+00 0.  1.
         25    1    1    2    0    0 -0.71844185491E+02  0.93611590423E+02  0.62734386150E+02  0.18298994523E+03  0.12500000000E+03 0.  0.
         25    1    1    2    0    0 -0.12933066300E+03 -0.11819162748E+03 -0.78546960598E+02  0.22910763021E+03  0.12500000000E+03 0.  0.
         25    1    1    2    0    0  0.20117484849E+03  0.24580037062E+02 -0.44118247412E+02  0.24217125685E+03  0.12500000000E+03 0.  0.
</event>
<event>
 5    0  0.5668330E-005  0.3053574E+03  0.7546771E-02  0.1082593E+00
         21   -1    0    0  502  501  0.00000000000E+00  0.00000000000E+00  0.12926832788E+03  0.12926832788E+03  0.00000000000E+00 0. -1.
         21   -1    0    0  501  502 -0.00000000000E+00 -0.00000000000E+00 -0.72131481866E+03  0.72131481866E+03  0.00000000000E+00 0. -1.
         25    1    1    2    0    0 -0.50857347515E+02 -0.64906274464E+02 -0.24759595608E+03  0.28935799925E+03  0.12500000000E+03 0.  0.
         25    1    1    2    0    0 -0.91480121630E+02  0.16663589079E+03 -0.16301077270E+03  0.27988148343E+03  0.12500000000E+03 0.  0.
         25    1    1    2    0    0  0.14233746914E+03 -0.10172961632E+03 -0.18143976200E+03  0.28134366386E+03  0.12500000000E+03 0.  0.
</event>
<event>
 5    0  0.5668330E-005  0.2791779E+03  0.7546771E-02  0.1096139E+00
         21   -1    0    0  502  501  0.00000000000E+00  0.00000000000E+00  0.73466862033E+03  0.73466862033E+03  0.00000000000E+00 0. -1.
         21   -1    0    0  501  502 -0.00000000000E+00 -0.00000000000E+00 -0.10608905324E+03  0.10608905324E+03  0.00000000000E+00 0. -1.
         25    1    1    2    0    0 -0.33172004158E+02 -0.41754637681E+02  0.99067901684E+02  0.16817633832E+03  0.12500000000E+03 0.  0.
         25    1    1    2    0    0  0.61664437304E+02 -0.72234538517E+02  0.46247872648E+03  0.48839728073E+03  0.12500000000E+03 0.  0.
         25    1    1    2    0    0 -0.28492433145E+02  0.11398917620E+03  0.67032938924E+02  0.18418405452E+03  0.12500000000E+03 0.  0.
</event>
<event>
 5    0  0.5668330E-005  0.2701552E+03  0.7546771E-02  0.1101191E+00
         21   -1    0    0  502  501  0.00000000000E+00  0.00000000000E+00  0.10826850212E+04  0.10826850212E+04  0.00000000000E+00 0. -1.
         21   -1    0    0  501  502 -0.00000000000E+00 -0.00000000000E+00 -0.67410038512E+02  0.67410038512E+02  0.00000000000E+00 0. -1.
         25    1    1    2    0    0 -0.13631073520E+02  0.32045842164E+02  0.32425628205E+03  0.34925617906E+03  0.12500000000E+03 0.  0.
         25    1    1    2    0    0  0.83511694948E+02  0.68197069256E+02  0.12114840839E+03  0.20476078800E+03  0.12500000000E+03 0.  0.
         25    1    1    2    0    0 -0.69880621429E+02 -0.10024291142E+03  0.56987029221E+03  0.59607809261E+03  0.12500000000E+03 0.  0.
</event>
<event>
 5    0  0.5668330E-005  0.5070954E+03  0.7546771E-02  0.1011943E+00
         21   -1    0    0  502  501  0.00000000000E+00  0.00000000000E+00  0.18343729847E+04  0.18343729847E+04  0.00000000000E+00 0. -1.
         21   -1    0    0  501  502 -0.00000000000E+00 -0.00000000000E+00 -0.14018179331E+03  0.14018179331E+03  0.00000000000E+00 0. -1.
         25    1    1    2    0    0  0.73504247492E+01 -0.85865614026E+02  0.10819543696E+04  0.10925553488E+04  0.12500000000E+03 0.  0.
         25    1    1    2    0    0 -0.27481167772E+03 -0.51079087035E+02  0.25232139197E+03  0.39676393005E+03  0.12500000000E+03 0.  0.
         25    1    1    2    0    0  0.26746125297E+03  0.13694470106E+03  0.35991542986E+03  0.48523549916E+03  0.12500000000E+03 0.  0.
</event>
<event>
 5    0  0.5668330E-005  0.2483681E+03  0.7546771E-02  0.1114340E+00
         21   -1    0    0  502  501  0.00000000000E+00  0.00000000000E+00  0.74534491663E+03  0.74534491663E+03  0.00000000000E+00 0. -1.
         21   -1    0    0  501  502 -0.00000000000E+00 -0.00000000000E+00 -0.82762658284E+02  0.82762658284E+02  0.00000000000E+00 0. -1.
         25    1    1    2    0    0 -0.14878920668E+02  0.65879012289E+02  0.18041149872E+03  0.22964044811E+03  0.12500000000E+03 0.  0.
         25    1    1    2    0    0 -0.10742793694E+03 -0.68493528350E+02  0.21977244369E+03  0.28312020781E+03  0.12500000000E+03 0.  0.
         25    1    1    2    0    0  0.12230685761E+03  0.26145160608E+01  0.26239831594E+03  0.31534691900E+03  0.12500000000E+03 0.  0.
</event>
<event>
 5    0  0.5668330E-005  0.2733585E+03  0.7546771E-02  0.1099373E+00
         21   -1    0    0  502  501  0.00000000000E+00  0.00000000000E+00  0.14080873395E+03  0.14080873395E+03  0.00000000000E+00 0.  1.
         21   -1    0    0  501  502 -0.00000000000E+00 -0.00000000000E+00 -0.53068339097E+03  0.53068339097E+03  0.00000000000E+00 0.  1.
         25    1    1    2    0    0  0.87821408663E+02  0.80876172291E+02 -0.31770017183E+02  0.17574950656E+03  0.12500000000E+03 0.  0.
         25    1    1    2    0    0 -0.11367946330E+03 -0.11910967495E+03 -0.24821159263E+03  0.32302341983E+03  0.12500000000E+03 0.  0.
         25    1    1    2    0    0  0.25858054640E+02  0.38233502656E+02 -0.10989304720E+03  0.17271919852E+03  0.12500000000E+03 0.  0.
</event>
<event>
 5    0  0.5668330E-005  0.2906387E+03  0.7546771E-02  0.1090016E+00
         21   -1    0    0  502  501  0.00000000000E+00  0.00000000000E+00  0.28092693557E+02  0.28092693557E+02  0.00000000000E+00 0.  1.
         21   -1    0    0  501  502 -0.00000000000E+00 -0.00000000000E+00 -0.30068630561E+04  0.30068630561E+04  0.00000000000E+00 0.  1.
         25    1    1    2    0    0 -0.45970355302E+02  0.61217780208E+02 -0.31582578172E+03  0.34818359321E+03  0.12500000000E+03 0.  0.
         25    1    1    2    0    0  0.16231310811E+02 -0.15365299700E+03 -0.14905091726E+04  0.15037005329E+04  0.12500000000E+03 0.  0.
         25    1    1    2    0    0  0.29739044491E+02  0.92435216797E+02 -0.11724354082E+04  0.11830716236E+04  0.12500000000E+03 0.  0.
</event>
<event>
 5    0  0.5668330E-005  0.3703307E+03  0.7546771E-02  0.1054567E+00
         21   -1    0    0  502  501  0.00000000000E+00  0.00000000000E+00  0.91999896007E+03  0.91999896007E+03  0.00000000000E+00 0. -1.
         21   -1    0    0  501  502 -0.00000000000E+00 -0.00000000000E+00 -0.14907060606E+03  0.14907060606E+03  0.00000000000E+00 0. -1.
         25    1    1    2    0    0 -0.32035835629E+02 -0.10705028189E+03  0.68876446299E+03  0.70887766441E+03  0.12500000000E+03 0.  0.
         25    1    1    2    0    0  0.12255613815E+03  0.34689560464E+02  0.23902274890E+02  0.18005468988E+03  0.12500000000E+03 0.  0.
         25    1    1    2    0    0 -0.90520302519E+02  0.72360721430E+02  0.58261616125E+02  0.18013721183E+03  0.12500000000E+03 0.  0.
</event>
<event>
 5    0  0.5894508E-005  0.3068341E+03  0.7546771E-02  0.1081873E+00
         21   -1    0    0  502  501  0.00000000000E+00  0.00000000000E+00  0.32956562929E+03  0.32956562929E+03  0.00000000000E+00 0. -1.
         21   -1    0    0  501  502 -0.00000000000E+00 -0.00000000000E+00 -0.28567043867E+03  0.28567043867E+03  0.00000000000E+00 0. -1.
         25    1    1    2    0    0  0.29701032368E+02  0.37011159795E+02 -0.11942565616E+03  0.17927482986E+03  0.12500000000E+03 0.  0.
         25    1    1    2    0    0 -0.15110306703E+03  0.56596551048E+02  0.10615642762E+03  0.23006410755E+03  0.12500000000E+03 0.  0.
         25    1    1    2    0    0  0.12140203466E+03 -0.93607710842E+02  0.57164419159E+02  0.20589713055E+03  0.12500000000E+03 0.  0.
</event>
<event>
 5    0  0.5668330E-005  0.2289738E+03  0.7546771E-02  0.1127364E+00
         21   -1    0    0  502  501  0.00000000000E+00  0.00000000000E+00  0.23143152759E+03  0.23143152759E+03  0.00000000000E+00 0.  1.
         21   -1    0    0  501  502 -0.00000000000E+00 -0.00000000000E+00 -0.22654219150E+03  0.22654219150E+03  0.00000000000E+00 0.  1.
         25    1    1    2    0    0  0.17280665192E+02 -0.22577270807E+02  0.56049033867E+02  0.13991014525E+03  0.12500000000E+03 0.  0.
         25    1    1    2    0    0 -0.68077976448E+02  0.71105608592E+02  0.15645157326E+02  0.15987616895E+03  0.12500000000E+03 0.  0.
         25    1    1    2    0    0  0.50797311256E+02 -0.48528337785E+02 -0.66804855111E+02  0.15818740489E+03  0.12500000000E+03 0.  0.
</event>
<event>
 5    0  0.5668330E-005  0.4212333E+03  0.7546771E-02  0.1036666E+00
         21   -1    0    0  502  501  0.00000000000E+00  0.00000000000E+00  0.10089148165E+04  0.10089148165E+04  0.00000000000E+00 0.  1.
         21   -1    0    0  501  502 -0.00000000000E+00 -0.00000000000E+00 -0.17586960939E+03  0.17586960939E+03  0.00000000000E+00 0.  1.
         25    1    1    2    0    0  0.22443731667E+03  0.18967040009E+03  0.22046482372E+03  0.38804214757E+03  0.12500000000E+03 0.  0.
         25    1    1    2    0    0 -0.11502453886E+03 -0.98233244700E+01  0.49830943351E+03  0.52655905060E+03  0.12500000000E+03 0.  0.
         25    1    1    2    0    0 -0.10941277781E+03 -0.17984707562E+03  0.11427094987E+03  0.27018322772E+03  0.12500000000E+03 0.  0.
</event>
<event>
 5    0  0.5668330E-005  0.2974621E+03  0.7546771E-02  0.1086516E+00
         21   -1    0    0  502  501  0.00000000000E+00  0.00000000000E+00  0.14439425171E+03  0.14439425171E+03  0.00000000000E+00 0. -1.
         21   -1    0    0  501  502 -0.00000000000E+00 -0.00000000000E+00 -0.61279237003E+03  0.61279237003E+03  0.00000000000E+00 0. -1.
         25    1    1    2    0    0 -0.74334389998E+02  0.38357440044E+02 -0.68538416650E+02  0.16528584120E+03  0.12500000000E+03 0.  0.
         25    1    1    2    0    0  0.26907279494E+02 -0.44296589085E+02 -0.43331743465E+03  0.45395505137E+03  0.12500000000E+03 0.  0.
         25    1    1    2    0    0  0.47427110504E+02  0.59391490406E+01  0.33457732978E+02  0.13794572918E+03  0.12500000000E+03 0.  0.
</event>
<event>
 5    0  0.5668330E-005  0.3249418E+03  0.7546771E-02  0.1073397E+00
         21   -1    0    0  502  501  0.00000000000E+00  0.00000000000E+00  0.53111482181E+03  0.53111482181E+03  0.00000000000E+00 0. -1.
         21   -1    0    0  501  502 -0.00000000000E+00 -0.00000000000E+00 -0.19880291946E+03  0.19880291946E+03  0.00000000000E+00 0. -1.
         25    1    1    2    0    0  0.10197931853E+03  0.15693300872E+03  0.10341237595E+03  0.24768300332E+03  0.12500000000E+03 0.  0.
         25    1    1    2    0    0  0.74992574101E+02  0.11287870134E+02  0.48991056783E+02  0.15419606294E+03  0.12500000000E+03 0.  0.
         25    1    1    2    0    0 -0.17697189263E+03 -0.16822087885E+03  0.17990846961E+03  0.32803867501E+03  0.12500000000E+03 0.  0.
</event>
<event>
 5    0  0.5668330E-005  0.2720089E+03  0.7546771E-02  0.1100135E+00
         21   -1    0    0  502  501  0.00000000000E+00  0.00000000000E+00  0.20026703127E+03  0.20026703127E+03  0.00000000000E+00 0. -1.
         21   -1    0    0  501  502 -0.00000000000E+00 -0.00000000000E+00 -0.36945103000E+03  0.36945103000E+03  0.00000000000E+00 0. -1.
         25    1    1    2    0    0 -0.24832604387E+02 -0.47520813247E+02 -0.10279139101E+03  0.17048740715E+03  0.12500000000E+03 0.  0.
         25    1    1    2    0    0  0.26154799456E+01  0.88650640794E+02 -0.17102176860E+03  0.22965021704E+03  0.12500000000E+03 0.  0.
         25    1    1    2    0    0  0.22217124441E+02 -0.41129827547E+02  0.10462916089E+03  0.16958043708E+03  0.12500000000E+03 0.  0.
</event>
<event>
 5    0  0.5668330E-005  0.2796269E+03  0.7546771E-02  0.1095893E+00
         21   -1    0    0  502  501  0.00000000000E+00  0.00000000000E+00  0.17626824878E+04  0.17626824878E+04  0.00000000000E+00 0.  1.
         21   -1    0    0  501  502 -0.00000000000E+00 -0.00000000000E+00 -0.44359202777E+02  0.44359202777E+02  0.00000000000E+00 0.  1.
         25    1    1    2    0    0 -0.16173765782E+02  0.91378518897E+01  0.57052023913E+03  0.58434872661E+03  0.12500000000E+03 0.  0.
         25    1    1    2    0    0  0.14809796496E+03  0.29754103954E+02  0.32841398551E+03  0.38249060094E+03  0.12500000000E+03 0.  0.
         25    1    1    2    0    0 -0.13192419918E+03 -0.38891955843E+02  0.81938906035E+03  0.84020236300E+03  0.12500000000E+03 0.  0.
</event>
<event>
 5    0  0.5668330E-005  0.2538900E+03  0.7546771E-02  0.1110871E+00
         21   -1    0    0  502  501  0.00000000000E+00  0.00000000000E+00  0.60082842363E+02  0.60082842363E+02  0.00000000000E+00 0.  1.
         21   -1    0    0  501  502 -0.00000000000E+00 -0.00000000000E+00 -0.10728545460E+04  0.10728545460E+04  0.00000000000E+00 0.  1.
         25    1    1    2    0    0 -0.67514161383E+02 -0.74071993318E+02 -0.36097380120E+03  0.39493278838E+03  0.12500000000E+03 0.  0.
         25    1    1    2    0    0  0.37785604877E+02  0.14840761038E+03 -0.36882584995E+03  0.41846156137E+03  0.12500000000E+03 0.  0.
         25    1    1    2    0    0  0.29728556506E+02 -0.74335617060E+02 -0.28297205244E+03  0.31954303857E+03  0.12500000000E+03 0.  0.
</event>
<event>
 5    0  0.5668330E-005  0.2240724E+03  0.7546771E-02  0.1130883E+00
         21   -1    0    0  502  501  0.00000000000E+00  0.00000000000E+00  0.20879614735E+03  0.20879614735E+03  0.00000000000E+00 0.  1.
         21   -1    0    0  501  502 -0.00000000000E+00 -0.00000000000E+00 -0.24046626324E+03  0.24046626324E+03  0.00000000000E+00 0.  1.
         25    1    1    2    0    0 -0.40426672091E+02  0.31172243380E+02  0.50959752553E+02  0.14431881705E+03  0.12500000000E+03 0.  0.
         25    1    1    2    0    0  0.83313238569E+02 -0.52330713572E+02 -0.54771274508E+02  0.16823938842E+03  0.12500000000E+03 0.  0.
         25    1    1    2    0    0 -0.42886566478E+02  0.21158470192E+02 -0.27858593934E+02  0.13670420513E+03  0.12500000000E+03 0.  0.
</event>
<event>
 5    0  0.5668330E-005  0.4130482E+03  0.7546771E-02  0.1039353E+00
         21   -1    0    0  502  501  0.00000000000E+00  0.00000000000E+00  0.32812895757E+03  0.32812895757E+03  0.00000000000E+00 0. -1.
         21   -1    0    0  501  502 -0.00000000000E+00 -0.00000000000E+00 -0.51994446699E+03  0.51994446699E+03  0.00000000000E+00 0.  1.
         25    1    1    2    0    0  0.13554109072E+03  0.68441918195E+02 -0.31666839544E+03  0.37277279422E+03  0.12500000000E+03 0.  0.
         25    1    1    2    0    0  0.18006351541E-01  0.68998968310E+02 -0.83135618528E+02  0.16521921505E+03  0.12500000000E+03 0.  0.
         25    1    1    2    0    0 -0.13555909707E+03 -0.13744088650E+03  0.20798850455E+03  0.31008141529E+03  0.12500000000E+03 0.  0.
</event>
<event>
 5    0  0.5668330E-005  0.3348628E+03  0.7546771E-02  0.1069005E+00
         21   -1    0    0  502  501  0.00000000000E+00  0.00000000000E+00  0.22009976837E+03  0.22009976837E+03  0.00000000000E+00 0. -1.
         21   -1    0    0  501  502 -0.00000000000E+00 -0.00000000000E+00 -0.50946483565E+03  0.50946483565E+03  0.00000000000E+00 0. -1.
         25    1    1    2    0    0 -0.31070670433E+02 -0.20870377874E+02 -0.67841121183E+02  0.14706589325E+03  0.12500000000E+03 0.  0.
         25    1    1    2    0    0  0.10844038983E+03  0.22220740701E+03 -0.17833673586E+03  0.32949118537E+03  0.12500000000E+03 0.  0.
         25    1    1    2    0    0 -0.77369719397E+02 -0.20133702914E+03 -0.43187210233E+02  0.25300752540E+03  0.12500000000E+03 0.  0.
</event>
<event>
 5    0  0.5668330E-005  0.3473797E+03  0.7546771E-02  0.1063696E+00
         21   -1    0    0  502  501  0.00000000000E+00  0.00000000000E+00  0.61267339961E+03  0.61267339961E+03  0.00000000000E+00 0.  1.
         21   -1    0    0  501  502 -0.00000000000E+00 -0.00000000000E+00 -0.19696081812E+03  0.19696081812E+03  0.00000000000E+00 0.  1.
         25    1    1    2    0    0 -0.16924114071E+03 -0.17321660393E+03  0.13970993687E+03  0.30625221966E+03  0.12500000000E+03 0.  0.
         25    1    1    2    0    0  0.20664939399E+03  0.74757518488E+02  0.20359099525E+03  0.32460276024E+03  0.12500000000E+03 0.  0.
         25    1    1    2    0    0 -0.37408253281E+02  0.98459085438E+02  0.72411649365E+02  0.17877923784E+03  0.12500000000E+03 0.  0.
</event>
<event>
 5    0  0.5668330E-005  0.2326499E+03  0.7546771E-02  0.1124788E+00
         21   -1    0    0  502  501  0.00000000000E+00  0.00000000000E+00  0.18196253483E+03  0.18196253483E+03  0.00000000000E+00 0.  1.
         21   -1    0    0  501  502 -0.00000000000E+00 -0.00000000000E+00 -0.29745663550E+03  0.29745663550E+03  0.00000000000E+00 0.  1.
         25    1    1    2    0    0  0.59006576047E+02 -0.56959255833E+02 -0.41219856977E+02  0.15508129949E+03  0.12500000000E+03 0.  0.
         25    1    1    2    0    0 -0.11768692531E+03  0.21737681542E+02 -0.35667058202E+02  0.17669147752E+03  0.12500000000E+03 0.  0.
         25    1    1    2    0    0  0.58680349267E+02  0.35221574291E+02 -0.38607185490E+02  0.14764639331E+03  0.12500000000E+03 0.  0.
</event>
<event>
 5    0  0.5668330E-005  0.2629260E+03  0.7546771E-02  0.1105398E+00
         21   -1    0    0  502  501  0.00000000000E+00  0.00000000000E+00  0.62398366055E+02  0.62398366055E+02  0.00000000000E+00 0.  1.
         21   -1    0    0  501  502 -0.00000000000E+00 -0.00000000000E+00 -0.11078829201E+04  0.11078829201E+04  0.00000000000E+00 0.  1.
         25    1    1    2    0    0 -0.37037964008E+02  0.25362100384E+01 -0.44187174657E+03  0.46071019476E+03  0.12500000000E+03 0.  0.
         25    1    1    2    0    0  0.87803867687E+02  0.10416226706E+03 -0.41488890612E+03  0.45422142341E+03  0.12500000000E+03 0.  0.
         25    1    1    2    0    0 -0.50765903679E+02 -0.10669847710E+03 -0.18872390131E+03  0.25534966794E+03  0.12500000000E+03 0.  0.
</event>
<event>
 5    0  0.5668330E-005  0.4973090E+03  0.7546771E-02  0.1014484E+00
         21   -1    0    0  502  501  0.00000000000E+00  0.00000000000E+00  0.60695490953E+03  0.60695490953E+03  0.00000000000E+00 0. -1.
         21   -1    0    0  501  502 -0.00000000000E+00 -0.00000000000E+00 -0.40747057530E+03  0.40747057530E+03  0.00000000000E+00 0. -1.
         25    1    1    2    0    0  0.76288081906E+02  0.14271042401E+02  0.59929499101E+02  0.15887126535E+03  0.12500000000E+03 0.  0.
         25    1    1    2    0    0  0.16264380889E+03 -0.27378699327E+03  0.29362184285E+03  0.45083379737E+03  0.12500000000E+03 0.  0.
         25    1    1    2    0    0 -0.23893189079E+03  0.25951595087E+03 -0.15406700772E+03  0.40472042210E+03  0.12500000000E+03 0.  0.
</event>
<event>
 5    0  0.5668330E-005  0.5068252E+03  0.7546771E-02  0.1012013E+00
         21   -1    0    0  502  501  0.00000000000E+00  0.00000000000E+00  0.79276551171E+03  0.79276551171E+03  0.00000000000E+00 0. -1.
         21   -1    0    0  501  502 -0.00000000000E+00 -0.00000000000E+00 -0.32401990401E+03  0.32401990401E+03  0.00000000000E+00 0. -1.
         25    1    1    2    0    0  0.13434265961E+03 -0.26150836209E+03  0.30633006067E+03  0.44260329834E+03  0.12500000000E+03 0.  0.
         25    1    1    2    0    0 -0.14547853170E+03  0.17787709861E+03  0.34780607222E+03  0.43519918345E+03  0.12500000000E+03 0.  0.
         25    1    1    2    0    0  0.11135872088E+02  0.83631263476E+02 -0.18539052519E+03  0.23898293393E+03  0.12500000000E+03 0.  0.
</event>
<event>
 5    0  0.5668330E-005  0.2537472E+03  0.7546771E-02  0.1110959E+00
         21   -1    0    0  502  501  0.00000000000E+00  0.00000000000E+00  0.10968350155E+04  0.10968350155E+04  0.00000000000E+00 0. -1.
         21   -1    0    0  501  502 -0.00000000000E+00 -0.00000000000E+00 -0.58703115531E+02  0.58703115531E+02  0.00000000000E+00 0. -1.
         25    1    1    2    0    0 -0.62603826658E+02  0.16211830849E+02  0.42002036663E+03  0.44297197536E+03  0.12500000000E+03 0.  0.
         25    1    1    2    0    0  0.55490163357E+02 -0.46145020655E+02  0.54653749118E+03  0.56527581801E+03  0.12500000000E+03 0.  0.
         25    1    1    2    0    0  0.71136633006E+01  0.29933189806E+02  0.71574042161E+02  0.14729033766E+03  0.12500000000E+03 0.  0.
</event>
<event>
 5    0  0.5668330E-005  0.2610379E+03  0.7546771E-02  0.1106521E+00
         21   -1    0    0  502  501  0.00000000000E+00  0.00000000000E+00  0.99753266564E+03  0.99753266564E+03  0.00000000000E+00 0. -1.
         21   -1    0    0  501  502 -0.00000000000E+00 -0.00000000000E+00 -0.68309322949E+02  0.68309322949E+02  0.00000000000E+00 0. -1.
         25    1    1    2    0    0 -0.17410817782E+02 -0.40534279944E+02  0.22927285764E+03  0.26483430231E+03  0.12500000000E+03 0.  0.
         25    1    1    2    0    0 -0.13889649504E+03  0.26483672535E+02  0.34837746811E+03  0.39621393404E+03  0.12500000000E+03 0.  0.
         25    1    1    2    0    0  0.15630731282E+03  0.14050607409E+02  0.35157301695E+03  0.40479375224E+03  0.12500000000E+03 0.  0.
</event>
<event>
 5    0  0.5668330E-005  0.2547810E+03  0.7546771E-02  0.1110320E+00
         21   -1    0    0  502  501  0.00000000000E+00  0.00000000000E+00  0.14500528575E+04  0.14500528575E+04  0.00000000000E+00 0. -1.
         21   -1    0    0  501  502 -0.00000000000E+00 -0.00000000000E+00 -0.44766205219E+02  0.44766205219E+02  0.00000000000E+00 0. -1.
         25    1    1    2    0    0  0.25068571247E+02 -0.15542300914E+02  0.48782545242E+03  0.50444887591E+03  0.12500000000E+03 0.  0.
         25    1    1    2    0    0 -0.50761664120E+02 -0.61116878359E+01  0.11454179766E+03  0.17708450718E+03  0.12500000000E+03 0.  0.
         25    1    1    2    0    0  0.25693092873E+02  0.21653988750E+02  0.80291940224E+03  0.81328567967E+03  0.12500000000E+03 0.  0.
</event>
<event>
 5    0  0.5668330E-005  0.4025140E+03  0.7546771E-02  0.1042913E+00
         21   -1    0    0  502  501  0.00000000000E+00  0.00000000000E+00  0.51679482680E+03  0.51679482680E+03  0.00000000000E+00 0. -1.
         21   -1    0    0  501  502 -0.00000000000E+00 -0.00000000000E+00 -0.31350457987E+03  0.31350457987E+03  0.00000000000E+00 0. -1.
         25    1    1    2    0    0 -0.11361894809E+03  0.28295572746E+02  0.72886297201E+02  0.18613789813E+03  0.12500000000E+03 0.  0.
         25    1    1    2    0    0  0.30768099353E+03 -0.15513923089E+03  0.92639042239E+02  0.37807772599E+03  0.12500000000E+03 0.  0.
         25    1    1    2    0    0 -0.19406204544E+03  0.12684365815E+03  0.37764907490E+02  0.26608378254E+03  0.12500000000E+03 0.  0.
</event>
<event>
 5    0  0.5668330E-005  0.3068033E+03  0.7546771E-02  0.1081888E+00
         21   -1    0    0  502  501  0.00000000000E+00  0.00000000000E+00  0.15914041510E+03  0.15914041510E+03  0.00000000000E+00 0.  1.
         21   -1    0    0  501  502 -0.00000000000E+00 -0.00000000000E+00 -0.59147925315E+03  0.59147925315E+03  0.00000000000E+00 0.  1.
         25    1    1    2    0    0  0.13100532938E+02  0.20280822580E+03 -0.14712895887E+03  0.28031184590E+03  0.12500000000E+03 0.  0.
         25    1    1    2    0    0 -0.15330631201E+02  0.38095674844E+01 -0.14073465602E+03  0.18889357973E+03  0.12500000000E+03 0.  0.
         25    1    1    2    0    0  0.22300982627E+01 -0.20661779329E+03 -0.14447522316E+03  0.28141424262E+03  0.12500000000E+03 0.  0.
</event>
<event>
 5    0  0.5874249E-005  0.3644210E+03  0.7546771E-02  0.1056847E+00
         21   -1    0    0  502  501  0.00000000000E+00  0.00000000000E+00  0.13625970705E+03  0.13625970705E+03  0.00000000000E+00 0. -1.
         21   -1    0    0  501  502 -0.00000000000E+00 -0.00000000000E+00 -0.97462920312E+03  0.97462920312E+03  0.00000000000E+00 0. -1.
         25    1    1    2    0    0 -0.16027034775E+03  0.23811780135E+02 -0.50752912737E+03  0.54723340575E+03  0.12500000000E+03 0.  0.
         25    1    1    2    0    0 -0.18095610187E+01 -0.49464178691E+02  0.39165218344E+02  0.14003176001E+03  0.12500000000E+03 0.  0.
         25    1    1    2    0    0  0.16207990876E+03  0.25652398557E+02 -0.37000558704E+03  0.42362374440E+03  0.12500000000E+03 0.  0.
</event>
<event>
 5    0  0.6164672E-005  0.3762693E+03  0.7546771E-02  0.1052321E+00
         21   -1    0    0  502  501  0.00000000000E+00  0.00000000000E+00  0.97363967956E+02  0.97363967956E+02  0.00000000000E+00 0.  1.
         21   -1    0    0  501  502 -0.00000000000E+00 -0.00000000000E+00 -0.14541167168E+04  0.14541167168E+04  0.00000000000E+00 0.  1.
         25    1    1    2    0    0  0.68740729800E+02  0.16008521825E+03 -0.30425554772E+03  0.37222171263E+03  0.12500000000E+03 0.  0.
         25    1    1    2    0    0  0.10564055491E+03 -0.27086221370E+02 -0.81820838646E+03  0.83485540898E+03  0.12500000000E+03 0.  0.
         25    1    1    2    0    0 -0.17438128471E+03 -0.13299899688E+03 -0.23428881465E+03  0.34440356313E+03  0.12500000000E+03 0.  0.
</event>
<event>
 5    0  0.5668330E-005  0.3128849E+03  0.7546771E-02  0.1078971E+00
         21   -1    0    0  502  501  0.00000000000E+00  0.00000000000E+00  0.54629725704E+02  0.54629725704E+02  0.00000000000E+00 0.  1.
         21   -1    0    0  501  502 -0.00000000000E+00 -0.00000000000E+00 -0.17920094390E+04  0.17920094390E+04  0.00000000000E+00 0.  1.
         25    1    1    2    0    0 -0.27016841913E+02  0.83618876723E+02 -0.37937863465E+03  0.40899287857E+03  0.12500000000E+03 0.  0.
         25    1    1    2    0    0  0.12032295407E+03 -0.19585919311E+03 -0.58042965351E+03  0.63668046890E+03  0.12500000000E+03 0.  0.
         25    1    1    2    0    0 -0.93306112161E+02  0.11224031639E+03 -0.77757142509E+03  0.80096581719E+03  0.12500000000E+03 0.  0.
</event>
<event>
 5    0  0.5668330E-005  0.3998116E+03  0.7546771E-02  0.1043845E+00
         21   -1    0    0  502  501  0.00000000000E+00  0.00000000000E+00  0.13393306003E+04  0.13393306003E+04  0.00000000000E+00 0.  1.
         21   -1    0    0  501  502 -0.00000000000E+00 -0.00000000000E+00 -0.11935015451E+03  0.11935015451E+03  0.00000000000E+00 0.  1.
         25    1    1    2    0    0  0.24013548893E+02 -0.25497003471E+03  0.36221871471E+03  0.46088367992E+03  0.12500000000E+03 0.  0.
         25    1    1    2    0    0  0.78771688749E+02  0.29484451500E+03  0.66974716018E+03  0.74654171051E+03  0.12500000000E+03 0.  0.
         25    1    1    2    0    0 -0.10278523764E+03 -0.39874480289E+02  0.18801457092E+03  0.25125536439E+03  0.12500000000E+03 0.  0.
</event>
<event>
 5    0  0.5668330E-005  0.3221749E+03  0.7546771E-02  0.1074653E+00
         21   -1    0    0  502  501  0.00000000000E+00  0.00000000000E+00  0.15008902514E+03  0.15008902514E+03  0.00000000000E+00 0.  1.
         21   -1    0    0  501  502 -0.00000000000E+00 -0.00000000000E+00 -0.69156737889E+03  0.69156737889E+03  0.00000000000E+00 0.  1.
         25    1    1    2    0    0  0.38213486372E+02 -0.51600160500E+02 -0.14973833272E+03  0.20535193057E+03  0.12500000000E+03 0.  0.
         25    1    1    2    0    0  0.13457296850E+03  0.17607133430E+03 -0.19384614838E+03  0.31986298294E+03  0.12500000000E+03 0.  0.
         25    1    1    2    0    0 -0.17278645488E+03 -0.12447117380E+03 -0.19789387265E+03  0.31644149053E+03  0.12500000000E+03 0.  0.
</event>
<event>
 5    0  0.6302265E-005  0.4151858E+03  0.7546771E-02  0.1038645E+00
         21   -1    0    0  502  501  0.00000000000E+00  0.00000000000E+00  0.75749629935E+03  0.75749629935E+03  0.00000000000E+00 0. -1.
         21   -1    0    0  501  502 -0.00000000000E+00 -0.00000000000E+00 -0.22756452315E+03  0.22756452315E+03  0.00000000000E+00 0. -1.
         25    1    1    2    0    0  0.57501856382E+02 -0.15536471894E+03  0.66759609004E+02  0.21800574482E+03  0.12500000000E+03 0.  0.
         25    1    1    2    0    0  0.12422523667E+03 -0.24505809164E+02  0.44800183678E+03  0.48204054795E+03  0.12500000000E+03 0.  0.
         25    1    1    2    0    0 -0.18172709305E+03  0.17987052810E+03  0.15170330418E+02  0.28501452973E+03  0.12500000000E+03 0.  0.
</event>
<event>
 5    0  0.5668330E-005  0.5326824E+03  0.7546771E-02  0.1005584E+00
         21   -1    0    0  502  501  0.00000000000E+00  0.00000000000E+00  0.84045566521E+03  0.84045566521E+03  0.00000000000E+00 0. -1.
         21   -1    0    0  501  502 -0.00000000000E+00 -0.00000000000E+00 -0.33761517427E+03  0.33761517427E+03  0.00000000000E+00 0. -1.
         25    1    1    2    0    0 -0.27061797284E+03  0.27804150437E+03  0.25444791406E+03  0.48053085889E+03  0.12500000000E+03 0.  0.
         25    1    1    2    0    0  0.41809371347E+02 -0.30064851044E+03  0.28317634330E+03  0.43353361089E+03  0.12500000000E+03 0.  0.
         25    1    1    2    0    0  0.22880860149E+03  0.22607006073E+02 -0.34783766414E+02  0.26400636971E+03  0.12500000000E+03 0.  0.
</event>
<event>
 5    0  0.5668330E-005  0.4892900E+03  0.7546771E-02  0.1016613E+00
         21   -1    0    0  502  501  0.00000000000E+00  0.00000000000E+00  0.22432345678E+04  0.22432345678E+04  0.00000000000E+00 0.  1.
         21   -1    0    0  501  502 -0.00000000000E+00 -0.00000000000E+00 -0.10672298147E+03  0.10672298147E+03  0.00000000000E+00 0.  1.
         25    1    1    2    0    0  0.11204872800E+03  0.28364156347E+03  0.42385714811E+03  0.53692395735E+03  0.12500000000E+03 0.  0.
         25    1    1    2    0    0 -0.14381956731E+03 -0.36887737094E+03  0.14498965296E+04  0.15081709218E+04  0.12500000000E+03 0.  0.
         25    1    1    2    0    0  0.31770839305E+02  0.85235807469E+02  0.26275790857E+03  0.30486267010E+03  0.12500000000E+03 0.  0.
</event>
<event>
 5    0  0.5668330E-005  0.4733795E+03  0.7546771E-02  0.1020971E+00
         21   -1    0    0  502  501  0.00000000000E+00  0.00000000000E+00  0.20600797677E+03  0.20600797677E+03  0.00000000000E+00 0.  1.
         21   -1    0    0  501  502 -0.00000000000E+00 -0.00000000000E+00 -0.10877642918E+04  0.10877642918E+04  0.00000000000E+00 0.  1.
         25    1    1    2    0    0 -0.10057880337E+03  0.15470813422E+03 -0.74992694302E+03  0.78234654876E+03  0.12500000000E+03 0.  0.
         25    1    1    2    0    0 -0.11065761885E+03 -0.10210449165E+03 -0.16786855907E+03  0.25782802204E+03  0.12500000000E+03 0.  0.
         25    1    1    2    0    0  0.21123642222E+03 -0.52603642567E+02  0.36039187108E+02  0.25359769772E+03  0.12500000000E+03 0.  0.
</event>
<event>
 5    0  0.5668330E-005  0.3346670E+03  0.7546771E-02  0.1069090E+00
         21   -1    0    0  502  501  0.00000000000E+00  0.00000000000E+00  0.98023247453E+03  0.98023247453E+03  0.00000000000E+00 0. -1.
         21   -1    0    0  501  502 -0.00000000000E+00 -0.00000000000E+00 -0.11426067674E+03  0.11426067674E+03  0.00000000000E+00 0. -1.
         25    1    1    2    0    0  0.83572742887E+02  0.14069374567E+03  0.73537075491E+02  0.21865917520E+03  0.12500000000E+03 0.  0.
         25    1    1    2    0    0 -0.10227182873E+03  0.25856401951E+02  0.36708385300E+03  0.40187514927E+03  0.12500000000E+03 0.  0.
         25    1    1    2    0    0  0.18699085839E+02 -0.16655014763E+03  0.42535086930E+03  0.47395882680E+03  0.12500000000E+03 0.  0.
</event>
<event>
 5    0  0.5668330E-005  0.3009988E+03  0.7546771E-02  0.1084742E+00
         21   -1    0    0  502  501  0.00000000000E+00  0.00000000000E+00  0.20089514822E+03  0.20089514822E+03  0.00000000000E+00 0. -1.
         21   -1    0    0  501  502 -0.00000000000E+00 -0.00000000000E+00 -0.45098302361E+03  0.45098302361E+03  0.00000000000E+00 0. -1.
         25    1    1    2    0    0 -0.63715059145E+02 -0.66544431343E+02 -0.22166440896E+03  0.27064345605E+03  0.12500000000E+03 0.  0.
         25    1    1    2    0    0  0.12811053875E+03  0.82787698629E+02 -0.10165387629E+03  0.22186622940E+03  0.12500000000E+03 0.  0.
         25    1    1    2    0    0 -0.64395479606E+02 -0.16243267286E+02  0.73230409854E+02  0.15936848639E+03  0.12500000000E+03 0.  0.
</event>
<event>
 5    0  0.5668330E-005  0.2500941E+03  0.7546771E-02  0.1113245E+00
         21   -1    0    0  502  501  0.00000000000E+00  0.00000000000E+00  0.26044354567E+03  0.26044354567E+03  0.00000000000E+00 0.  1.
         21   -1    0    0  501  502 -0.00000000000E+00 -0.00000000000E+00 -0.24015600304E+03  0.24015600304E+03  0.00000000000E+00 0.  1.
         25    1    1    2    0    0 -0.39164544164E+02 -0.51819894785E+02  0.71633981498E+02  0.15803667397E+03  0.12500000000E+03 0.  0.
         25    1    1    2    0    0  0.65506241864E+02  0.12530818218E+03 -0.49767104128E+02  0.19517933522E+03  0.12500000000E+03 0.  0.
         25    1    1    2    0    0 -0.26341697700E+02 -0.73488287397E+02 -0.15793347339E+01  0.14738353952E+03  0.12500000000E+03 0.  0.
</event>
<event>
 5    0  0.5668330E-005  0.3583870E+03  0.7546771E-02  0.1059224E+00
         21   -1    0    0  502  501  0.00000000000E+00  0.00000000000E+00  0.13254617502E+04  0.13254617502E+04  0.00000000000E+00 0. -1.
         21   -1    0    0  501  502 -0.00000000000E+00 -0.00000000000E+00 -0.96902998212E+02  0.96902998212E+02  0.00000000000E+00 0. -1.
         25    1    1    2    0    0  0.12610870533E+03  0.14078341989E+03  0.56814129743E+03  0.61166405054E+03  0.12500000000E+03 0.  0.
         25    1    1    2    0    0  0.92986141607E+02 -0.98126838616E+02  0.42446004426E+03  0.46267334931E+03  0.12500000000E+03 0.  0.
         25    1    1    2    0    0 -0.21909484694E+03 -0.42656581271E+02  0.23595741033E+03  0.34802734859E+03  0.12500000000E+03 0.  0.
</event>
<event>
 5    0  0.5668330E-005  0.2632662E+03  0.7546771E-02  0.1105197E+00
         21   -1    0    0  502  501  0.00000000000E+00  0.00000000000E+00  0.76270919621E+02  0.76270919621E+02  0.00000000000E+00 0. -1.
         21   -1    0    0  501  502 -0.00000000000E+00 -0.00000000000E+00 -0.90872237415E+03  0.90872237415E+03  0.00000000000E+00 0. -1.
         25    1    1    2    0    0 -0.95599920118E+02  0.87352484188E+02 -0.28291677665E+03  0.33531582684E+03  0.12500000000E+03 0.  0.
         25    1    1    2    0    0 -0.15252384862E+02 -0.11901027963E+03 -0.23303610907E+03  0.29039096066E+03  0.12500000000E+03 0.  0.
         25    1    1    2    0    0  0.11085230498E+03  0.31657795441E+02 -0.31649856880E+03  0.35928650626E+03  0.12500000000E+03 0.  0.
</event>
<event>
 5    0  0.5668330E-005  0.3783113E+03  0.7546771E-02  0.1051560E+00
         21   -1    0    0  502  501  0.00000000000E+00  0.00000000000E+00  0.10842512258E+04  0.10842512258E+04  0.00000000000E+00 0.  1.
         21   -1    0    0  501  502 -0.00000000000E+00 -0.00000000000E+00 -0.13199840557E+03  0.13199840557E+03  0.00000000000E+00 0.  1.
         25    1    1    2    0    0 -0.25595941601E+03 -0.14718999470E+03  0.42720556299E+03  0.53414390405E+03  0.12500000000E+03 0.  0.
         25    1    1    2    0    0  0.77391723466E+02  0.17478432644E+02  0.33146636260E+03  0.36302881980E+03  0.12500000000E+03 0.  0.
         25    1    1    2    0    0  0.17856769254E+03  0.12971156205E+03  0.19358089466E+03  0.31907690754E+03  0.12500000000E+03 0.  0.
</event>
<event>
 5    0  0.5925791E-005  0.2857586E+03  0.7546771E-02  0.1092585E+00
         21   -1    0    0  502  501  0.00000000000E+00  0.00000000000E+00  0.13371217636E+03  0.13371217636E+03  0.00000000000E+00 0. -1.
         21   -1    0    0  501  502 -0.00000000000E+00 -0.00000000000E+00 -0.61069947594E+03  0.61069947594E+03  0.00000000000E+00 0. -1.
         25    1    1    2    0    0 -0.37185488319E+02 -0.44633485360E+02 -0.17368470461E+02  0.13893009869E+03  0.12500000000E+03 0.  0.
         25    1    1    2    0    0 -0.52069728471E+02  0.15439466279E+03 -0.23739063781E+03  0.31389215256E+03  0.12500000000E+03 0.  0.
         25    1    1    2    0    0  0.89255216790E+02 -0.10976117742E+03 -0.22222819131E+03  0.29158940105E+03  0.12500000000E+03 0.  0.
</event>
<event>
 5    0  0.5933404E-005  0.4138130E+03  0.7546771E-02  0.1039099E+00
         21   -1    0    0  502  501  0.00000000000E+00  0.00000000000E+00  0.67084986807E+03  0.67084986807E+03  0.00000000000E+00 0.  1.
         21   -1    0    0  501  502 -0.00000000000E+00 -0.00000000000E+00 -0.25526012840E+03  0.25526012840E+03  0.00000000000E+00 0.  1.
         25    1    1    2    0    0 -0.22266743326E+03  0.95534912777E+02  0.61826508424E+02  0.27956255568E+03  0.12500000000E+03 0.  0.
         25    1    1    2    0    0  0.11677780185E+03 -0.98572509164E+02  0.42443465897E+03  0.46810615709E+03  0.12500000000E+03 0.  0.
         25    1    1    2    0    0  0.10588963141E+03  0.30375963871E+01 -0.70671427718E+02  0.17844128370E+03  0.12500000000E+03 0.  0.
</event>
<event>
 5    0  0.5668330E-005  0.2939778E+03  0.7546771E-02  0.1088290E+00
         21   -1    0    0  502  501  0.00000000000E+00  0.00000000000E+00  0.39499640091E+03  0.39499640091E+03  0.00000000000E+00 0. -1.
         21   -1    0    0  501  502 -0.00000000000E+00 -0.00000000000E+00 -0.21879420164E+03  0.21879420164E+03  0.00000000000E+00 0. -1.
         25    1    1    2    0    0  0.17210329036E+02  0.13590768395E+03  0.10990510806E+03  0.21557185985E+03  0.12500000000E+03 0.  0.
         25    1    1    2    0    0 -0.64341369112E+02 -0.16629826726E+03 -0.44208567477E+02  0.22220333686E+03  0.12500000000E+03 0.  0.
         25    1    1    2    0    0  0.47131040076E+02  0.30390583308E+02  0.11050565868E+03  0.17601540584E+03  0.12500000000E+03 0.  0.
</event>
<event>
 5    0  0.5668330E-005  0.2607026E+03  0.7546771E-02  0.1106722E+00
         21   -1    0    0  502  501  0.00000000000E+00  0.00000000000E+00  0.94558757965E+02  0.94558757965E+02  0.00000000000E+00 0. -1.
         21   -1    0    0  501  502 -0.00000000000E+00 -0.00000000000E+00 -0.71876839267E+03  0.71876839267E+03  0.00000000000E+00 0. -1.
         25    1    1    2    0    0  0.91834087770E+02 -0.71403866083E+02 -0.28081807262E+03  0.32865757511E+03  0.12500000000E+03 0.  0.
         25    1    1    2    0    0 -0.91421015347E+02  0.91042319748E+02 -0.88854260662E+02  0.20041603147E+03  0.12500000000E+03 0.  0.
         25    1    1    2    0    0 -0.41307242272E+00 -0.19638453665E+02 -0.25453730142E+03  0.28425354405E+03  0.12500000000E+03 0.  0.
</event>
<event>
 5    0  0.5668330E-005  0.2754595E+03  0.7546771E-02  0.1098195E+00
         21   -1    0    0  502  501  0.00000000000E+00  0.00000000000E+00  0.56521581716E+03  0.56521581716E+03  0.00000000000E+00 0. -1.
         21   -1    0    0  501  502 -0.00000000000E+00 -0.00000000000E+00 -0.13424591867E+03  0.13424591867E+03  0.00000000000E+00 0. -1.
         25    1    1    2    0    0  0.55979242108E+02  0.18498978638E+03  0.18730949084E+03  0.29675704199E+03  0.12500000000E+03 0.  0.
         25    1    1    2    0    0 -0.13979346989E+02 -0.10288638829E+03  0.98039087099E+02  0.18978328071E+03  0.12500000000E+03 0.  0.
         25    1    1    2    0    0 -0.41999895119E+02 -0.82103398092E+02  0.14562132056E+03  0.21292141313E+03  0.12500000000E+03 0.  0.
</event>
<event>
 5    0  0.6075265E-005  0.2806906E+03  0.7546771E-02  0.1095312E+00
         21   -1    0    0  502  501  0.00000000000E+00  0.00000000000E+00  0.70241662471E+02  0.70241662471E+02  0.00000000000E+00 0. -1.
         21   -1    0    0  501  502 -0.00000000000E+00 -0.00000000000E+00 -0.11216595359E+04  0.11216595359E+04  0.00000000000E+00 0. -1.
         25    1    1    2    0    0 -0.12151110186E+03  0.10927749968E+03 -0.20481784727E+03  0.29031340026E+03  0.12500000000E+03 0.  0.
         25    1    1    2    0    0  0.31286980029E+02 -0.73675379298E+02 -0.47660215795E+03  0.49918088264E+03  0.12500000000E+03 0.  0.
         25    1    1    2    0    0  0.90224121830E+02 -0.35602120380E+02 -0.36999786820E+03  0.40240691546E+03  0.12500000000E+03 0.  0.
</event>
<event>
 5    0  0.5668330E-005  0.5381807E+03  0.7546771E-02  0.1004267E+00
         21   -1    0    0  502  501  0.00000000000E+00  0.00000000000E+00  0.35032182957E+03  0.35032182957E+03  0.00000000000E+00 0.  1.
         21   -1    0    0  501  502 -0.00000000000E+00 -0.00000000000E+00 -0.82677836117E+03  0.82677836117E+03  0.00000000000E+00 0.  1.
         25    1    1    2    0    0  0.31605855312E+03 -0.16664643998E+03 -0.39752110246E+03  0.54891900300E+03  0.12500000000E+03 0.  0.
         25    1    1    2    0    0 -0.57803567512E-01 -0.63884050458E+02 -0.15654840048E+03  0.21027024739E+03  0.12500000000E+03 0.  0.
         25    1    1    2    0    0 -0.31600074955E+03  0.23053049044E+03  0.77612971349E+02  0.41791094035E+03  0.12500000000E+03 0.  0.
</event>
<event>
 5    0  0.5668330E-005  0.4856545E+03  0.7546771E-02  0.1017593E+00
         21   -1    0    0  502  501  0.00000000000E+00  0.00000000000E+00  0.63367152976E+03  0.63367152976E+03  0.00000000000E+00 0.  1.
         21   -1    0    0  501  502 -0.00000000000E+00 -0.00000000000E+00 -0.37221229914E+03  0.37221229914E+03  0.00000000000E+00 0.  1.
         25    1    1    2    0    0  0.12289353325E+02 -0.19306265178E+03  0.10122783193E+03  0.25158753879E+03  0.12500000000E+03 0.  0.
         25    1    1    2    0    0 -0.13954469348E+03  0.30664808924E+03  0.32631699274E+03  0.48540040365E+03  0.12500000000E+03 0.  0.
         25    1    1    2    0    0  0.12725534016E+03 -0.11358543746E+03 -0.16608559405E+03  0.26889588645E+03  0.12500000000E+03 0.  0.
</event>
<event>
 5    0  0.5668330E-005  0.3700295E+03  0.7546771E-02  0.1054682E+00
         21   -1    0    0  502  501  0.00000000000E+00  0.00000000000E+00  0.72959100313E+03  0.72959100313E+03  0.00000000000E+00 0. -1.
         21   -1    0    0  501  502 -0.00000000000E+00 -0.00000000000E+00 -0.18766932352E+03  0.18766932352E+03  0.00000000000E+00 0. -1.
         25    1    1    2    0    0 -0.26983165653E+01 -0.11306518317E+03  0.14805644019E+03  0.22435847664E+03  0.12500000000E+03 0.  0.
         25    1    1    2    0    0  0.33928260284E+02  0.30641579278E+03  0.18593936136E+03  0.38110393728E+03  0.12500000000E+03 0.  0.
         25    1    1    2    0    0 -0.31229943718E+02 -0.19335060961E+03  0.20792587805E+03  0.31179791273E+03  0.12500000000E+03 0.  0.
</event>
<event>
 5    0  0.5668330E-005  0.2323941E+03  0.7546771E-02  0.1124966E+00
         21   -1    0    0  502  501  0.00000000000E+00  0.00000000000E+00  0.14128488702E+03  0.14128488702E+03  0.00000000000E+00 0.  1.
         21   -1    0    0  501  502 -0.00000000000E+00 -0.00000000000E+00 -0.38225609000E+03  0.38225609000E+03  0.00000000000E+00 0. -1.
         25    1    1    2    0    0  0.44541228183E+02 -0.73525503524E+02 -0.13163235040E+02  0.15227669366E+03  0.12500000000E+03 0.  0.
         25    1    1    2    0    0  0.27977162793E+02 -0.88795461661E+00 -0.76540278472E+02  0.14922105860E+03  0.12500000000E+03 0.  0.
         25    1    1    2    0    0 -0.72518390975E+02  0.74413458141E+02 -0.15126768947E+03  0.22204322476E+03  0.12500000000E+03 0.  0.
</event>
<event>
 5    0  0.5668330E-005  0.3180921E+03  0.7546771E-02  0.1076531E+00
         21   -1    0    0  502  501  0.00000000000E+00  0.00000000000E+00  0.13927185903E+03  0.13927185903E+03  0.00000000000E+00 0.  1.
         21   -1    0    0  501  502 -0.00000000000E+00 -0.00000000000E+00 -0.72651113906E+03  0.72651113906E+03  0.00000000000E+00 0.  1.
         25    1    1    2    0    0  0.91130524284E+01 -0.12851921533E+03 -0.88084365441E+01  0.17972986671E+03  0.12500000000E+03 0.  0.
         25    1    1    2    0    0  0.29107389058E+02 -0.55780650664E+02 -0.17981238323E+03  0.22785129855E+03  0.12500000000E+03 0.  0.
         25    1    1    2    0    0 -0.38220441486E+02  0.18429986599E+03 -0.39861846025E+03  0.45820183283E+03  0.12500000000E+03 0.  0.
</event>
<event>
 5    0  0.5668330E-005  0.3603777E+03  0.7546771E-02  0.1058434E+00
         21   -1    0    0  502  501  0.00000000000E+00  0.00000000000E+00  0.33498297960E+03  0.33498297960E+03  0.00000000000E+00 0.  1.
         21   -1    0    0  501  502 -0.00000000000E+00 -0.00000000000E+00 -0.38769746598E+03  0.38769746598E+03  0.00000000000E+00 0.  1.
         25    1    1    2    0    0  0.10638143379E+03  0.44299590115E+02 -0.25853565813E+03  0.30942713143E+03  0.12500000000E+03 0.  0.
         25    1    1    2    0    0  0.18232416662E+02  0.59927530803E+02  0.14025821938E+03  0.19804317224E+03  0.12500000000E+03 0.  0.
         25    1    1    2    0    0 -0.12461385045E+03 -0.10422712092E+03  0.65562952370E+02  0.21521014191E+03  0.12500000000E+03 0.  0.
</event>
<event>
 5    0  0.5668330E-005  0.3018512E+03  0.7546771E-02  0.1084319E+00
         21   -1    0    0  502  501  0.00000000000E+00  0.00000000000E+00  0.64354346909E+03  0.64354346909E+03  0.00000000000E+00 0.  1.
         21   -1    0    0  501  502 -0.00000000000E+00 -0.00000000000E+00 -0.14158198771E+03  0.14158198771E+03  0.00000000000E+00 0.  1.
         25    1    1    2    0    0 -0.23265705874E+02 -0.13468782527E+03  0.23432107005E+02  0.18669806369E+03  0.12500000000E+03 0.  0.
         25    1    1    2    0    0 -0.14240044814E+02  0.18115429344E+03  0.28290350566E+03  0.35871862291E+03  0.12500000000E+03 0.  0.
         25    1    1    2    0    0  0.37505750688E+02 -0.46466468170E+02  0.19562586872E+03  0.23970877020E+03  0.12500000000E+03 0.  0.
</event>
<event>
 5    0  0.5668330E-005  0.3437757E+03  0.7546771E-02  0.1065199E+00
         21   -1    0    0  502  501  0.00000000000E+00  0.00000000000E+00  0.22770888744E+03  0.22770888744E+03  0.00000000000E+00 0.  1.
         21   -1    0    0  501  502 -0.00000000000E+00 -0.00000000000E+00 -0.51900346649E+03  0.51900346649E+03  0.00000000000E+00 0. -1.
         25    1    1    2    0    0  0.15637401067E+03  0.21397128566E+03 -0.86008724326E+02  0.30538343596E+03  0.12500000000E+03 0.  0.
         25    1    1    2    0    0 -0.14491326545E+03 -0.81765800871E+02 -0.10135529211E+03  0.23148087596E+03  0.12500000000E+03 0.  0.
         25    1    1    2    0    0 -0.11460745213E+02 -0.13220548479E+03 -0.10393056261E+03  0.20984804200E+03  0.12500000000E+03 0.  0.
</event>
<event>
 5    0  0.5668330E-005  0.2497757E+03  0.7546771E-02  0.1113447E+00
         21   -1    0    0  502  501  0.00000000000E+00  0.00000000000E+00  0.74817387651E+03  0.74817387651E+03  0.00000000000E+00 0. -1.
         21   -1    0    0  501  502 -0.00000000000E+00 -0.00000000000E+00 -0.83386880893E+02  0.83386880893E+02  0.00000000000E+00 0. -1.
         25    1    1    2    0    0 -0.30675473833E+02 -0.10938424691E+03  0.16638685264E+03  0.23709804491E+03  0.12500000000E+03 0.  0.
         25    1    1    2    0    0  0.63761776791E+02  0.10681816693E+02  0.12931891236E+03  0.19112311865E+03  0.12500000000E+03 0.  0.
         25    1    1    2    0    0 -0.33086302958E+02  0.98702430216E+02  0.36908123062E+03  0.40333959385E+03  0.12500000000E+03 0.  0.
</event>
<event>
 5    0  0.5668330E-005  0.2443969E+03  0.7546771E-02  0.1116898E+00
         21   -1    0    0  502  501  0.00000000000E+00  0.00000000000E+00  0.69695007814E+03  0.69695007814E+03  0.00000000000E+00 0. -1.
         21   -1    0    0  501  502 -0.00000000000E+00 -0.00000000000E+00 -0.85701782731E+02  0.85701782731E+02  0.00000000000E+00 0. -1.
         25    1    1    2    0    0 -0.56488910049E+02  0.60806034343E+02  0.30504225734E+03  0.33994727464E+03  0.12500000000E+03 0.  0.
         25    1    1    2    0    0  0.76278367388E+02 -0.11068465556E+03  0.16949360755E+03  0.24984508262E+03  0.12500000000E+03 0.  0.
         25    1    1    2    0    0 -0.19789457340E+02  0.49878621215E+02  0.13671243052E+03  0.19285950361E+03  0.12500000000E+03 0.  0.
</event>
<event>
 5    0  0.5668330E-005  0.2607772E+03  0.7546771E-02  0.1106677E+00
         21   -1    0    0  502  501  0.00000000000E+00  0.00000000000E+00  0.10986294499E+04  0.10986294499E+04  0.00000000000E+00 0.  1.
         21   -1    0    0  501  502 -0.00000000000E+00 -0.00000000000E+00 -0.61899623286E+02  0.61899623286E+02  0.00000000000E+00 0.  1.
         25    1    1    2    0    0  0.14734026747E+03  0.85787807753E+01  0.40314869305E+03  0.44714272733E+03  0.12500000000E+03 0.  0.
         25    1    1    2    0    0 -0.51813839380E+02  0.69403959080E+02  0.28163524391E+03  0.32007029556E+03  0.12500000000E+03 0.  0.
         25    1    1    2    0    0 -0.95526428089E+02 -0.77982739855E+02  0.35194588970E+03  0.39331605034E+03  0.12500000000E+03 0.  0.
</event>
<event>
 5    0  0.5668330E-005  0.3653113E+03  0.7546771E-02  0.1056500E+00
         21   -1    0    0  502  501  0.00000000000E+00  0.00000000000E+00  0.17554520824E+03  0.17554520824E+03  0.00000000000E+00 0.  1.
         21   -1    0    0  501  502 -0.00000000000E+00 -0.00000000000E+00 -0.76021656528E+03  0.76021656528E+03  0.00000000000E+00 0.  1.
         25    1    1    2    0    0  0.77843725092E+02  0.16375404066E+03 -0.28513573778E+03  0.36028102965E+03  0.12500000000E+03 0.  0.
         25    1    1    2    0    0 -0.20497949796E+03 -0.14255570656E+03 -0.27906747231E+03  0.39476876543E+03  0.12500000000E+03 0.  0.
         25    1    1    2    0    0  0.12713577287E+03 -0.21198334104E+02 -0.20468146955E+02  0.18071197844E+03  0.12500000000E+03 0.  0.
</event>
<event>
 5    0  0.5668330E-005  0.2900847E+03  0.7546771E-02  0.1090305E+00
         21   -1    0    0  502  501  0.00000000000E+00  0.00000000000E+00  0.37702226135E+04  0.37702226135E+04  0.00000000000E+00 0. -1.
         21   -1    0    0  501  502 -0.00000000000E+00 -0.00000000000E+00 -0.22319408512E+02  0.22319408512E+02  0.00000000000E+00 0. -1.
         25    1    1    2    0    0 -0.58871007460E+02  0.12864387381E+03  0.18402450541E+04  0.18499032140E+04  0.12500000000E+03 0.  0.
         25    1    1    2    0    0  0.10037010813E+03 -0.14782757264E+03  0.14396846746E+04  0.14561058039E+04  0.12500000000E+03 0.  0.
         25    1    1    2    0    0 -0.41499100670E+02  0.19183698828E+02  0.46797347633E+03  0.48653300423E+03  0.12500000000E+03 0.  0.
</event>
<event>
 5    0  0.5668330E-005  0.3034822E+03  0.7546771E-02  0.1083513E+00
         21   -1    0    0  502  501  0.00000000000E+00  0.00000000000E+00  0.85478590264E+03  0.85478590264E+03  0.00000000000E+00 0.  1.
         21   -1    0    0  501  502 -0.00000000000E+00 -0.00000000000E+00 -0.10774797455E+03  0.10774797455E+03  0.00000000000E+00 0.  1.
         25    1    1    2    0    0  0.14331244119E+03 -0.16858380445E+03  0.41474905454E+03  0.48641621392E+03  0.12500000000E+03 0.  0.
         25    1    1    2    0    0 -0.80853526464E+02  0.48711036765E+02  0.16172042272E+03  0.22514118453E+03  0.12500000000E+03 0.  0.
         25    1    1    2    0    0 -0.62458914725E+02  0.11987276768E+03  0.17056845083E+03  0.25097647874E+03  0.12500000000E+03 0.  0.
</event>
<event>
 5    0  0.5668330E-005  0.2746710E+03  0.7546771E-02  0.1098636E+00
         21   -1    0    0  502  501  0.00000000000E+00  0.00000000000E+00  0.11035304810E+03  0.11035304810E+03  0.00000000000E+00 0.  1.
         21   -1    0    0  501  502 -0.00000000000E+00 -0.00000000000E+00 -0.68366151618E+03  0.68366151618E+03  0.00000000000E+00 0.  1.
         25    1    1    2    0    0 -0.11845845482E+03 -0.34933179015E+02 -0.10348367363E+03  0.20392793634E+03  0.12500000000E+03 0.  0.
         25    1    1    2    0    0  0.52152305075E+02 -0.36145610643E+02 -0.63302019746E+02  0.15381324324E+03  0.12500000000E+03 0.  0.
         25    1    1    2    0    0  0.66306149740E+02  0.71078789658E+02 -0.40652277470E+03  0.43627338469E+03  0.12500000000E+03 0.  0.
</event>
<event>
 5    0  0.5668330E-005  0.2255277E+03  0.7546771E-02  0.1129828E+00
         21   -1    0    0  502  501  0.00000000000E+00  0.00000000000E+00  0.11991336590E+03  0.11991336590E+03  0.00000000000E+00 0. -1.
         21   -1    0    0  501  502 -0.00000000000E+00 -0.00000000000E+00 -0.42416239298E+03  0.42416239298E+03  0.00000000000E+00 0. -1.
         25    1    1    2    0    0 -0.11906417520E+01  0.66645992358E+02 -0.34084917537E+02  0.14570479583E+03  0.12500000000E+03 0.  0.
         25    1    1    2    0    0  0.36973258201E+02  0.25670922080E+02 -0.13376947660E+03  0.18853458816E+03  0.12500000000E+03 0.  0.
         25    1    1    2    0    0 -0.35782616449E+02 -0.92316914438E+02 -0.13639463294E+03  0.20983637489E+03  0.12500000000E+03 0.  0.
</event>
<event>
 5    0  0.5668330E-005  0.3986312E+03  0.7546771E-02  0.1044255E+00
         21   -1    0    0  502  501  0.00000000000E+00  0.00000000000E+00  0.63437074799E+03  0.63437074799E+03  0.00000000000E+00 0.  1.
         21   -1    0    0  501  502 -0.00000000000E+00 -0.00000000000E+00 -0.25049514968E+03  0.25049514968E+03  0.00000000000E+00 0.  1.
         25    1    1    2    0    0  0.46513333319E+02 -0.25743404450E+03  0.10307309821E+02  0.29011552540E+03  0.12500000000E+03 0.  0.
         25    1    1    2    0    0  0.32007450496E+02  0.11139931016E+03  0.36135361005E+01  0.17050613137E+03  0.12500000000E+03 0.  0.
         25    1    1    2    0    0 -0.78520783814E+02  0.14603473433E+03  0.36995475239E+03  0.42424424090E+03  0.12500000000E+03 0.  0.
</event>
<event>
 5    0  0.5668330E-005  0.3218466E+03  0.7546771E-02  0.1074803E+00
         21   -1    0    0  502  501  0.00000000000E+00  0.00000000000E+00  0.49079572287E+03  0.49079572287E+03  0.00000000000E+00 0. -1.
         21   -1    0    0  501  502 -0.00000000000E+00 -0.00000000000E+00 -0.21105574403E+03  0.21105574403E+03  0.00000000000E+00 0. -1.
         25    1    1    2    0    0  0.15507570594E+01 -0.27331285870E+02 -0.74176140301E+02  0.14790707835E+03  0.12500000000E+03 0.  0.
         25    1    1    2    0    0  0.13399820916E+03  0.65829758232E+02  0.30064742929E+03  0.35819401707E+03  0.12500000000E+03 0.  0.
         25    1    1    2    0    0 -0.13554896622E+03 -0.38498472362E+02  0.53268689853E+02  0.19575037148E+03  0.12500000000E+03 0.  0.
</event>
<event>
 5    0  0.5668330E-005  0.2562646E+03  0.7546771E-02  0.1109409E+00
         21   -1    0    0  502  501  0.00000000000E+00  0.00000000000E+00  0.10656628598E+04  0.10656628598E+04  0.00000000000E+00 0. -1.
         21   -1    0    0  501  502 -0.00000000000E+00 -0.00000000000E+00 -0.61625087108E+02  0.61625087108E+02  0.00000000000E+00 0. -1.
         25    1    1    2    0    0  0.79215812841E+02 -0.42853743671E+02  0.11100650994E+03  0.18989216308E+03  0.12500000000E+03 0.  0.
         25    1    1    2    0    0 -0.71777266300E+02 -0.14367771179E+02  0.51878427491E+03  0.53862838089E+03  0.12500000000E+03 0.  0.
         25    1    1    2    0    0 -0.74385465411E+01  0.57221514849E+02  0.37424698781E+03  0.39876740291E+03  0.12500000000E+03 0.  0.
</event>
<event>
 5    0  0.5668330E-005  0.4540920E+03  0.7546771E-02  0.1026509E+00
         21   -1    0    0  502  501  0.00000000000E+00  0.00000000000E+00  0.26667097392E+03  0.26667097392E+03  0.00000000000E+00 0. -1.
         21   -1    0    0  501  502 -0.00000000000E+00 -0.00000000000E+00 -0.77323593847E+03  0.77323593847E+03  0.00000000000E+00 0. -1.
         25    1    1    2    0    0  0.21385097435E+02  0.16719818035E+03 -0.14882446824E+03  0.25726693579E+03  0.12500000000E+03 0.  0.
         25    1    1    2    0    0 -0.17470081113E+03  0.16547819696E+03 -0.25148927834E+02  0.27232494497E+03  0.12500000000E+03 0.  0.
         25    1    1    2    0    0  0.15331571370E+03 -0.33267637731E+03 -0.33259156848E+03  0.51031503163E+03  0.12500000000E+03 0.  0.
</event>
<event>
 5    0  0.5671533E-005  0.4238641E+03  0.7546771E-02  0.1035816E+00
         21   -1    0    0  502  501  0.00000000000E+00  0.00000000000E+00  0.76555008107E+03  0.76555008107E+03  0.00000000000E+00 0. -1.
         21   -1    0    0  501  502 -0.00000000000E+00 -0.00000000000E+00 -0.23468192535E+03  0.23468192535E+03  0.00000000000E+00 0. -1.
         25    1    1    2    0    0  0.13918295827E+03 -0.10950567098E+03 -0.57659336886E+02  0.22430556609E+03  0.12500000000E+03 0.  0.
         25    1    1    2    0    0 -0.40503450008E+02 -0.13369224838E+03  0.36100686573E+03  0.40677402061E+03  0.12500000000E+03 0.  0.
         25    1    1    2    0    0 -0.98679508258E+02  0.24319791935E+03  0.22752062688E+03  0.36915241972E+03  0.12500000000E+03 0.  0.
</event>
<event>
 5    0  0.5977974E-005  0.3222666E+03  0.7546771E-02  0.1074611E+00
         21   -1    0    0  502  501  0.00000000000E+00  0.00000000000E+00  0.14133080805E+03  0.14133080805E+03  0.00000000000E+00 0.  1.
         21   -1    0    0  501  502 -0.00000000000E+00 -0.00000000000E+00 -0.73484172308E+03  0.73484172308E+03  0.00000000000E+00 0.  1.
         25    1    1    2    0    0 -0.29752641150E+02  0.53639405399E+02  0.16752822272E+01  0.13924874160E+03  0.12500000000E+03 0.  0.
         25    1    1    2    0    0 -0.95226994808E+02  0.67840588221E+02 -0.44020182585E+03  0.47230622845E+03  0.12500000000E+03 0.  0.
         25    1    1    2    0    0  0.12497963596E+03 -0.12147999362E+03 -0.15498437140E+03  0.26461756108E+03  0.12500000000E+03 0.  0.
</event>
<event>
 5    0  0.5668330E-005  0.2825522E+03  0.7546771E-02  0.1094303E+00
         21   -1    0    0  502  501  0.00000000000E+00  0.00000000000E+00  0.78403305455E+02  0.78403305455E+02  0.00000000000E+00 0. -1.
         21   -1    0    0  501  502 -0.00000000000E+00 -0.00000000000E+00 -0.10182704166E+04  0.10182704166E+04  0.00000000000E+00 0. -1.
         25    1    1    2    0    0  0.38572144416E+02  0.13685117012E+03 -0.18446609073E+03  0.26432705446E+03  0.12500000000E+03 0.  0.
         25    1    1    2    0    0 -0.74849624346E+01  0.23747382882E+02 -0.17484900175E+03  0.21637267912E+03  0.12500000000E+03 0.  0.
         25    1    1    2    0    0 -0.31087181982E+02 -0.16059855300E+03 -0.58055201870E+03  0.61597398851E+03  0.12500000000E+03 0.  0.
</event>
<event>
 5    0  0.5668330E-005  0.2429475E+03  0.7546771E-02  0.1117845E+00
         21   -1    0    0  502  501  0.00000000000E+00  0.00000000000E+00  0.10430275234E+04  0.10430275234E+04  0.00000000000E+00 0.  1.
         21   -1    0    0  501  502 -0.00000000000E+00 -0.00000000000E+00 -0.56588616033E+02  0.56588616033E+02  0.00000000000E+00 0.  1.
         25    1    1    2    0    0  0.42570087650E+02 -0.69108107386E+02  0.26682855133E+03  0.30563150799E+03  0.12500000000E+03 0.  0.
         25    1    1    2    0    0 -0.77820405160E+02  0.12575423258E+03  0.40226194182E+03  0.44644127532E+03  0.12500000000E+03 0.  0.
         25    1    1    2    0    0  0.35250317510E+02 -0.56646125192E+02  0.31734841423E+03  0.34754335614E+03  0.12500000000E+03 0.  0.
</event>
<event>
 5    0  0.5668330E-005  0.2493416E+03  0.7546771E-02  0.1113722E+00
         21   -1    0    0  502  501  0.00000000000E+00  0.00000000000E+00  0.19249586207E+03  0.19249586207E+03  0.00000000000E+00 0. -1.
         21   -1    0    0  501  502 -0.00000000000E+00 -0.00000000000E+00 -0.32297431794E+03  0.32297431794E+03  0.00000000000E+00 0. -1.
         25    1    1    2    0    0  0.62560187779E+02  0.12413854644E+03 -0.35829346268E+02  0.19034940993E+03  0.12500000000E+03 0.  0.
         25    1    1    2    0    0 -0.54118079465E+02 -0.11043847779E+03 -0.94264761845E+02  0.19908859643E+03  0.12500000000E+03 0.  0.
         25    1    1    2    0    0 -0.84421083138E+01 -0.13700068655E+02 -0.38434775372E+00  0.12603217366E+03  0.12500000000E+03 0.  0.
</event>
<event>
 5    0  0.5668330E-005  0.4477728E+03  0.7546771E-02  0.1028388E+00
         21   -1    0    0  502  501  0.00000000000E+00  0.00000000000E+00  0.14124090281E+03  0.14124090281E+03  0.00000000000E+00 0. -1.
         21   -1    0    0  501  502 -0.00000000000E+00 -0.00000000000E+00 -0.14195640399E+04  0.14195640399E+04  0.00000000000E+00 0. -1.
         25    1    1    2    0    0 -0.43497975642E+02 -0.29566681948E+03 -0.26575549006E+03  0.41900110086E+03  0.12500000000E+03 0.  0.
         25    1    1    2    0    0 -0.60401532186E+02 -0.17593995039E+02 -0.12886120774E+03  0.19023171295E+03  0.12500000000E+03 0.  0.
         25    1    1    2    0    0  0.10389950783E+03  0.31326081452E+03 -0.88370643925E+03  0.95157212885E+03  0.12500000000E+03 0.  0.
</event>
<event>
 5    0  0.5668330E-005  0.4125268E+03  0.7546771E-02  0.1039526E+00
         21   -1    0    0  502  501  0.00000000000E+00  0.00000000000E+00  0.80567896655E+02  0.80567896655E+02  0.00000000000E+00 0.  1.
         21   -1    0    0  501  502 -0.00000000000E+00 -0.00000000000E+00 -0.21122348874E+04  0.21122348874E+04  0.00000000000E+00 0.  1.
         25    1    1    2    0    0 -0.13909798923E+03 -0.13343919079E+02 -0.94668679137E+02  0.21003206801E+03  0.12500000000E+03 0.  0.
         25    1    1    2    0    0 -0.46448457158E+02 -0.64985571472E+02 -0.38169641623E+03  0.40950914255E+03  0.12500000000E+03 0.  0.
         25    1    1    2    0    0  0.18554644639E+03  0.78329490550E+02 -0.15553018954E+04  0.15732615735E+04  0.12500000000E+03 0.  0.
</event>
<event>
 5    0  0.5668330E-005  0.3445642E+03  0.7546771E-02  0.1064868E+00
         21   -1    0    0  502  501  0.00000000000E+00  0.00000000000E+00  0.11218389052E+04  0.11218389052E+04  0.00000000000E+00 0.  1.
         21   -1    0    0  501  502 -0.00000000000E+00 -0.00000000000E+00 -0.10583026173E+03  0.10583026173E+03  0.00000000000E+00 0.  1.
         25    1    1    2    0    0  0.88674421223E+02 -0.10991147118E+03  0.37550151927E+03  0.42020242200E+03  0.12500000000E+03 0.  0.
         25    1    1    2    0    0  0.55390212930E+02 -0.12711212388E+03  0.26565835352E+03  0.32469205183E+03  0.12500000000E+03 0.  0.
         25    1    1    2    0    0 -0.14406463415E+03  0.23702359505E+03  0.37484877069E+03  0.48277469312E+03  0.12500000000E+03 0.  0.
</event>
<event>
 5    0  0.5668330E-005  0.2104648E+03  0.7546771E-02  0.1141198E+00
         21   -1    0    0  502  501  0.00000000000E+00  0.00000000000E+00  0.13634500495E+04  0.13634500495E+04  0.00000000000E+00 0.  1.
         21   -1    0    0  501  502 -0.00000000000E+00 -0.00000000000E+00 -0.32487754260E+02  0.32487754260E+02  0.00000000000E+00 0.  1.
         25    1    1    2    0    0  0.50570199809E+02  0.14756678343E+02  0.56411054483E+03  0.58019032347E+03  0.12500000000E+03 0.  0.
         25    1    1    2    0    0 -0.16242540291E+02 -0.49923870208E+02  0.28630861511E+03  0.31678673586E+03  0.12500000000E+03 0.  0.
         25    1    1    2    0    0 -0.34327659517E+02  0.35167191864E+02  0.48054313525E+03  0.49896074438E+03  0.12500000000E+03 0.  0.
</event>
<event>
 5    0  0.5668330E-005  0.2381271E+03  0.7546771E-02  0.1121047E+00
         21   -1    0    0  502  501  0.00000000000E+00  0.00000000000E+00  0.15075378168E+03  0.15075378168E+03  0.00000000000E+00 0. -1.
         21   -1    0    0  501  502 -0.00000000000E+00 -0.00000000000E+00 -0.37614006755E+03  0.37614006755E+03  0.00000000000E+00 0. -1.
         25    1    1    2    0    0  0.34682094046E+02 -0.29843401396E+02 -0.10648664949E+03  0.17046372862E+03  0.12500000000E+03 0.  0.
         25    1    1    2    0    0 -0.10425808866E+03  0.83733556377E+02 -0.60569644394E+02  0.19280751888E+03  0.12500000000E+03 0.  0.
         25    1    1    2    0    0  0.69575994616E+02 -0.53890154981E+02 -0.58329991989E+02  0.16362260173E+03  0.12500000000E+03 0.  0.
</event>
<event>
 5    0  0.5668330E-005  0.3128380E+03  0.7546771E-02  0.1078993E+00
         21   -1    0    0  502  501  0.00000000000E+00  0.00000000000E+00  0.52832371267E+03  0.52832371267E+03  0.00000000000E+00 0. -1.
         21   -1    0    0  501  502 -0.00000000000E+00 -0.00000000000E+00 -0.18524174734E+03  0.18524174734E+03  0.00000000000E+00 0. -1.
         25    1    1    2    0    0  0.10833655146E+03  0.48470575437E+02  0.11095303891E+03  0.20499215085E+03  0.12500000000E+03 0.  0.
         25    1    1    2    0    0 -0.90849851016E+02 -0.14341909725E+03  0.27347697642E+03  0.34530767370E+03  0.12500000000E+03 0.  0.
         25    1    1    2    0    0 -0.17486700445E+02  0.94948521809E+02 -0.41348050002E+02  0.16326563547E+03  0.12500000000E+03 0.  0.
</event>
<event>
 5    0  0.5668330E-005  0.4185492E+03  0.7546771E-02  0.1037540E+00
         21   -1    0    0  502  501  0.00000000000E+00  0.00000000000E+00  0.19670332050E+03  0.19670332050E+03  0.00000000000E+00 0.  1.
         21   -1    0    0  501  502 -0.00000000000E+00 -0.00000000000E+00 -0.89059720462E+03  0.89059720462E+03  0.00000000000E+00 0.  1.
         25    1    1    2    0    0 -0.66366716217E+01 -0.96751801358E+02 -0.14747499346E+03  0.21628414221E+03  0.12500000000E+03 0.  0.
         25    1    1    2    0    0 -0.11482492252E+03  0.33935110553E+03 -0.31491151038E+03  0.49309045319E+03  0.12500000000E+03 0.  0.
         25    1    1    2    0    0  0.12146159414E+03 -0.24259930417E+03 -0.23150738027E+03  0.37792592972E+03  0.12500000000E+03 0.  0.
</event>
<event>
 5    0  0.5668330E-005  0.2306027E+03  0.7546771E-02  0.1126216E+00
         21   -1    0    0  502  501  0.00000000000E+00  0.00000000000E+00  0.17253570644E+02  0.17253570644E+02  0.00000000000E+00 0. -1.
         21   -1    0    0  501  502 -0.00000000000E+00 -0.00000000000E+00 -0.30821209480E+04  0.30821209480E+04  0.00000000000E+00 0. -1.
         25    1    1    2    0    0  0.61256017527E+02 -0.62157647744E+02 -0.13804056685E+04  0.13887982872E+04  0.12500000000E+03 0.  0.
         25    1    1    2    0    0 -0.32930228390E+02  0.88065220664E+02 -0.11373768657E+04  0.11480814508E+04  0.12500000000E+03 0.  0.
         25    1    1    2    0    0 -0.28325789137E+02 -0.25907572920E+02 -0.54708484317E+03  0.56249478068E+03  0.12500000000E+03 0.  0.
</event>
<event>
 5    0  0.5668330E-005  0.2458769E+03  0.7546771E-02  0.1115939E+00
         21   -1    0    0  502  501  0.00000000000E+00  0.00000000000E+00  0.44845862514E+03  0.44845862514E+03  0.00000000000E+00 0. -1.
         21   -1    0    0  501  502 -0.00000000000E+00 -0.00000000000E+00 -0.13480724822E+03  0.13480724822E+03  0.00000000000E+00 0. -1.
         25    1    1    2    0    0  0.10701286822E+03 -0.71432983631E+02  0.14699134722E+03  0.23191783302E+03  0.12500000000E+03 0.  0.
         25    1    1    2    0    0  0.32663900653E+01  0.62959714834E+02  0.97890351430E+02  0.17082773750E+03  0.12500000000E+03 0.  0.
         25    1    1    2    0    0 -0.11027925828E+03  0.84732687968E+01  0.68769678265E+02  0.18052030285E+03  0.12500000000E+03 0.  0.
</event>
<event>
 5    0  0.5668330E-005  0.3015888E+03  0.7546771E-02  0.1084449E+00
         21   -1    0    0  502  501  0.00000000000E+00  0.00000000000E+00  0.11139399212E+03  0.11139399212E+03  0.00000000000E+00 0. -1.
         21   -1    0    0  501  502 -0.00000000000E+00 -0.00000000000E+00 -0.81652318783E+03  0.81652318783E+03  0.00000000000E+00 0. -1.
         25    1    1    2    0    0 -0.29366926761E+02  0.15038339503E+03 -0.18059633383E+03  0.26780145198E+03  0.12500000000E+03 0.  0.
         25    1    1    2    0    0 -0.39395898335E+02  0.59841676477E+02 -0.22708147792E+03  0.26893133076E+03  0.12500000000E+03 0.  0.
         25    1    1    2    0    0  0.68762825096E+02 -0.21022507151E+03 -0.29745138396E+03  0.39118439722E+03  0.12500000000E+03 0.  0.
</event>
<event>
 5    0  0.5668330E-005  0.3402487E+03  0.7546771E-02  0.1066690E+00
         21   -1    0    0  502  501  0.00000000000E+00  0.00000000000E+00  0.17606799076E+03  0.17606799076E+03  0.00000000000E+00 0. -1.
         21   -1    0    0  501  502 -0.00000000000E+00 -0.00000000000E+00 -0.65752554129E+03  0.65752554129E+03  0.00000000000E+00 0. -1.
         25    1    1    2    0    0  0.15602391670E+03 -0.11141121772E+03 -0.73422048143E+02  0.24035748203E+03  0.12500000000E+03 0.  0.
         25    1    1    2    0    0 -0.94448791064E+02 -0.77649638250E+02 -0.26736990700E+03  0.31947098088E+03  0.12500000000E+03 0.  0.
         25    1    1    2    0    0 -0.61575125631E+02  0.18906085597E+03 -0.14066559538E+03  0.27376506914E+03  0.12500000000E+03 0.  0.
</event>
<event>
 5    0  0.5668330E-005  0.2118532E+03  0.7546771E-02  0.1140107E+00
         21   -1    0    0  502  501  0.00000000000E+00  0.00000000000E+00  0.28635375999E+03  0.28635375999E+03  0.00000000000E+00 0. -1.
         21   -1    0    0  501  502 -0.00000000000E+00 -0.00000000000E+00 -0.15673536295E+03  0.15673536295E+03  0.00000000000E+00 0. -1.
         25    1    1    2    0    0  0.26144541886E+02  0.16585896254E+02  0.58510941212E+02  0.14144666580E+03  0.12500000000E+03 0.  0.
         25    1    1    2    0    0  0.37418805848E+01  0.29589974905E+02 -0.29704222218E+02  0.13189734305E+03  0.12500000000E+03 0.  0.
         25    1    1    2    0    0 -0.29886422471E+02 -0.46175871159E+02  0.10081167805E+03  0.16974511409E+03  0.12500000000E+03 0.  0.
</event>
<event>
 5    0  0.5668330E-005  0.2556867E+03  0.7546771E-02  0.1109763E+00
         21   -1    0    0  502  501  0.00000000000E+00  0.00000000000E+00  0.74272168573E+02  0.74272168573E+02  0.00000000000E+00 0. -1.
         21   -1    0    0  501  502 -0.00000000000E+00 -0.00000000000E+00 -0.88021769246E+03  0.88021769246E+03  0.00000000000E+00 0. -1.
         25    1    1    2    0    0 -0.57850295466E+02 -0.15895596691E+02 -0.36444543692E+03  0.38992922841E+03  0.12500000000E+03 0.  0.
         25    1    1    2    0    0  0.59453286656E+02  0.46707111801E+02 -0.53200447026E+02  0.15547197545E+03  0.12500000000E+03 0.  0.
         25    1    1    2    0    0 -0.16029911900E+01 -0.30811515110E+02 -0.38829963995E+03  0.40908865717E+03  0.12500000000E+03 0.  0.
</event>
<event>
 5    0  0.5668330E-005  0.2541436E+03  0.7546771E-02  0.1110714E+00
         21   -1    0    0  502  501  0.00000000000E+00  0.00000000000E+00  0.18523002586E+03  0.18523002586E+03  0.00000000000E+00 0.  1.
         21   -1    0    0  501  502 -0.00000000000E+00 -0.00000000000E+00 -0.34869589094E+03  0.34869589094E+03  0.00000000000E+00 0.  1.
         25    1    1    2    0    0  0.88362345040E+01  0.10148824953E+03 -0.64884867176E+02  0.17381884196E+03  0.12500000000E+03 0.  0.
         25    1    1    2    0    0 -0.75241775292E+02 -0.12481392152E+02 -0.12286583267E+03  0.19114947747E+03  0.12500000000E+03 0.  0.
         25    1    1    2    0    0  0.66405540788E+02 -0.89006857378E+02  0.24284834777E+02  0.16895759737E+03  0.12500000000E+03 0.  0.
</event>
<event>
 5    0  0.6225107E-005  0.2870096E+03  0.7546771E-02  0.1091921E+00
         21   -1    0    0  502  501  0.00000000000E+00  0.00000000000E+00  0.19014917414E+03  0.19014917414E+03  0.00000000000E+00 0. -1.
         21   -1    0    0  501  502 -0.00000000000E+00 -0.00000000000E+00 -0.43321000722E+03  0.43321000722E+03  0.00000000000E+00 0. -1.
         25    1    1    2    0    0  0.39885828373E+01  0.92265504947E+02 -0.12544267457E+02  0.15592046319E+03  0.12500000000E+03 0.  0.
         25    1    1    2    0    0  0.64001683585E+02 -0.17109506602E+03 -0.20703627229E+03  0.30308209311E+03  0.12500000000E+03 0.  0.
         25    1    1    2    0    0 -0.67990266422E+02  0.78829561073E+02 -0.23480293337E+02  0.16435662506E+03  0.12500000000E+03 0.  0.
</event>
<event>
 5    0  0.5670274E-005  0.3099544E+03  0.7546771E-02  0.1080368E+00
         21   -1    0    0  502  501  0.00000000000E+00  0.00000000000E+00  0.20360817098E+03  0.20360817098E+03  0.00000000000E+00 0.  1.
         21   -1    0    0  501  502 -0.00000000000E+00 -0.00000000000E+00 -0.47184628687E+03  0.47184628687E+03  0.00000000000E+00 0.  1.
         25    1    1    2    0    0  0.59231585790E+02 -0.73455095881E+02  0.19687309360E+02  0.15784999847E+03  0.12500000000E+03 0.  0.
         25    1    1    2    0    0 -0.66346558590E+02 -0.48127843966E+02  0.32284671170E+02  0.15292303683E+03  0.12500000000E+03 0.  0.
         25    1    1    2    0    0  0.71149728005E+01  0.12158293985E+03 -0.32021009642E+03  0.36468142255E+03  0.12500000000E+03 0.  0.
</event>
<event>
 5    0  0.5668330E-005  0.3326865E+03  0.7546771E-02  0.1069954E+00
         21   -1    0    0  502  501  0.00000000000E+00  0.00000000000E+00  0.18155846510E+03  0.18155846510E+03  0.00000000000E+00 0. -1.
         21   -1    0    0  501  502 -0.00000000000E+00 -0.00000000000E+00 -0.60961239841E+03  0.60961239841E+03  0.00000000000E+00 0. -1.
         25    1    1    2    0    0  0.12987876207E+03  0.78714707654E+02 -0.32841892410E+02  0.19941937703E+03  0.12500000000E+03 0.  0.
         25    1    1    2    0    0 -0.18747806193E+03 -0.83091541236E+02 -0.89211674375E+02  0.25619514198E+03  0.12500000000E+03 0.  0.
         25    1    1    2    0    0  0.57599299855E+02  0.43768335815E+01 -0.30600036653E+03  0.33555634449E+03  0.12500000000E+03 0.  0.
</event>
<event>
 5    0  0.5668330E-005  0.2910085E+03  0.7546771E-02  0.1089824E+00
         21   -1    0    0  502  501  0.00000000000E+00  0.00000000000E+00  0.11532719346E+03  0.11532719346E+03  0.00000000000E+00 0.  1.
         21   -1    0    0  501  502 -0.00000000000E+00 -0.00000000000E+00 -0.73431048408E+03  0.73431048408E+03  0.00000000000E+00 0.  1.
         25    1    1    2    0    0  0.55939744464E+02 -0.11123594642E+03 -0.27455764648E+03  0.32635807333E+03  0.12500000000E+03 0.  0.
         25    1    1    2    0    0  0.10015052803E+03  0.10770758569E+03 -0.15127409696E+03  0.24523438725E+03  0.12500000000E+03 0.  0.
         25    1    1    2    0    0 -0.15609027249E+03  0.35283607258E+01 -0.19315154718E+03  0.27804521696E+03  0.12500000000E+03 0.  0.
</event>
<event>
 5    0  0.5668330E-005  0.5102899E+03  0.7546771E-02  0.1011127E+00
         21   -1    0    0  502  501  0.00000000000E+00  0.00000000000E+00  0.11255831488E+04  0.11255831488E+04  0.00000000000E+00 0.  1.
         21   -1    0    0  501  502 -0.00000000000E+00 -0.00000000000E+00 -0.23134299403E+03  0.23134299403E+03  0.00000000000E+00 0.  1.
         25    1    1    2    0    0  0.12179314485E+02  0.18547387069E+03  0.16611583214E+03  0.27886979417E+03  0.12500000000E+03 0.  0.
         25    1    1    2    0    0  0.51561832516E+01  0.99181682826E+02 -0.10335536664E+03  0.19018655117E+03  0.12500000000E+03 0.  0.
         25    1    1    2    0    0 -0.17335497736E+02 -0.28465555352E+03  0.83147968923E+03  0.88786979746E+03  0.12500000000E+03 0.  0.
</event>
<event>
 5    0  0.5744002E-005  0.4922549E+03  0.7546771E-02  0.1015821E+00
         21   -1    0    0  502  501  0.00000000000E+00  0.00000000000E+00  0.95199615158E+03  0.95199615158E+03  0.00000000000E+00 0. -1.
         21   -1    0    0  501  502 -0.00000000000E+00 -0.00000000000E+00 -0.25453343534E+03  0.25453343534E+03  0.00000000000E+00 0. -1.
         25    1    1    2    0    0 -0.28029369138E+03  0.74629272923E+02  0.82622006954E+02  0.32647431420E+03  0.12500000000E+03 0.  0.
         25    1    1    2    0    0  0.34060063617E+03 -0.18165555770E+03  0.25343403820E+03  0.47839455130E+03  0.12500000000E+03 0.  0.
         25    1    1    2    0    0 -0.60306944790E+02  0.10702628478E+03  0.36140667109E+03  0.40166072142E+03  0.12500000000E+03 0.  0.
</event>
<event>
 5    0  0.5668330E-005  0.2783823E+03  0.7546771E-02  0.1096576E+00
         21   -1    0    0  502  501  0.00000000000E+00  0.00000000000E+00  0.71034559290E+03  0.71034559290E+03  0.00000000000E+00 0.  1.
         21   -1    0    0  501  502 -0.00000000000E+00 -0.00000000000E+00 -0.10909720654E+03  0.10909720654E+03  0.00000000000E+00 0.  1.
         25    1    1    2    0    0  0.58722213138E+02  0.31088461301E+01  0.14110666415E+03  0.19746912140E+03  0.12500000000E+03 0.  0.
         25    1    1    2    0    0 -0.16688086030E+03 -0.59661606935E+02  0.14262754628E+03  0.25956953950E+03  0.12500000000E+03 0.  0.
         25    1    1    2    0    0  0.10815864716E+03  0.56552760805E+02  0.31751417593E+03  0.36240413854E+03  0.12500000000E+03 0.  0.
</event>
<event>
 5    0  0.5668330E-005  0.3474574E+03  0.7546771E-02  0.1063663E+00
         21   -1    0    0  502  501  0.00000000000E+00  0.00000000000E+00  0.12612326745E+03  0.12612326745E+03  0.00000000000E+00 0. -1.
         21   -1    0    0  501  502 -0.00000000000E+00 -0.00000000000E+00 -0.95721164471E+03  0.95721164471E+03  0.00000000000E+00 0. -1.
         25    1    1    2    0    0  0.20248249602E+03 -0.54301723977E+01 -0.27089372164E+03  0.36060651185E+03  0.12500000000E+03 0.  0.
         25    1    1    2    0    0 -0.80372718805E+02  0.15310224274E+03 -0.36118659008E+03  0.41950068356E+03  0.12500000000E+03 0.  0.
         25    1    1    2    0    0 -0.12210977721E+03 -0.14767207034E+03 -0.19900806554E+03  0.30322771674E+03  0.12500000000E+03 0.  0.
</event>
<event>
 5    0  0.5668330E-005  0.4043084E+03  0.7546771E-02  0.1042298E+00
         21   -1    0    0  502  501  0.00000000000E+00  0.00000000000E+00  0.51363647173E+03  0.51363647173E+03  0.00000000000E+00 0.  1.
         21   -1    0    0  501  502 -0.00000000000E+00 -0.00000000000E+00 -0.31825092648E+03  0.31825092648E+03  0.00000000000E+00 0. -1.
         25    1    1    2    0    0  0.68874862495E+02 -0.82710530753E+02 -0.19073036291E+02  0.16605288102E+03  0.12500000000E+03 0.  0.
         25    1    1    2    0    0 -0.21666188665E+03  0.23379441460E+03  0.39526233754E+01  0.34240739574E+03  0.12500000000E+03 0.  0.
         25    1    1    2    0    0  0.14778702415E+03 -0.15108388385E+03  0.21050595817E+03  0.32342712145E+03  0.12500000000E+03 0.  0.
</event>
<event>
 5    0  0.5668330E-005  0.2541256E+03  0.7546771E-02  0.1110725E+00
         21   -1    0    0  502  501  0.00000000000E+00  0.00000000000E+00  0.46271080661E+02  0.46271080661E+02  0.00000000000E+00 0.  1.
         21   -1    0    0  501  502 -0.00000000000E+00 -0.00000000000E+00 -0.13956844511E+04  0.13956844511E+04  0.00000000000E+00 0.  1.
         25    1    1    2    0    0  0.13028449350E+02  0.30602453097E+02 -0.19919156291E+03  0.23750479861E+03  0.12500000000E+03 0.  0.
         25    1    1    2    0    0  0.33175446042E+02  0.18821212144E+02 -0.17231817223E+03  0.21627159020E+03  0.12500000000E+03 0.  0.
         25    1    1    2    0    0 -0.46203895392E+02 -0.49423665242E+02 -0.97790363526E+03  0.98817914291E+03  0.12500000000E+03 0.  0.
</event>
<event>
 5    0  0.5668330E-005  0.3463857E+03  0.7546771E-02  0.1064108E+00
         21   -1    0    0  502  501  0.00000000000E+00  0.00000000000E+00  0.75097321220E+03  0.75097321220E+03  0.00000000000E+00 0. -1.
         21   -1    0    0  501  502 -0.00000000000E+00 -0.00000000000E+00 -0.15977011418E+03  0.15977011418E+03  0.00000000000E+00 0. -1.
         25    1    1    2    0    0 -0.11517201224E+01 -0.18606319332E+02  0.21568788447E+03  0.24998756986E+03  0.12500000000E+03 0.  0.
         25    1    1    2    0    0  0.95170967430E+02  0.14208772124E+03  0.40717195717E+03  0.45897759888E+03  0.12500000000E+03 0.  0.
         25    1    1    2    0    0 -0.94019247308E+02 -0.12348140191E+03 -0.31656743621E+02  0.20177815764E+03  0.12500000000E+03 0.  0.
</event>
<event>
 5    0  0.5668330E-005  0.3121511E+03  0.7546771E-02  0.1079319E+00
         21   -1    0    0  502  501  0.00000000000E+00  0.00000000000E+00  0.12607722292E+03  0.12607722292E+03  0.00000000000E+00 0.  1.
         21   -1    0    0  501  502 -0.00000000000E+00 -0.00000000000E+00 -0.77284639834E+03  0.77284639834E+03  0.00000000000E+00 0.  1.
         25    1    1    2    0    0  0.13829103371E+03  0.23269909181E+02 -0.32067386967E+03  0.37164852935E+03  0.12500000000E+03 0.  0.
         25    1    1    2    0    0 -0.51900116196E+02  0.13592660619E+03 -0.18056808883E+03  0.26343784663E+03  0.12500000000E+03 0.  0.
         25    1    1    2    0    0 -0.86390917515E+02 -0.15919651537E+03 -0.14552721693E+03  0.26383724529E+03  0.12500000000E+03 0.  0.
</event>
<event>
 5    0  0.5782757E-005  0.2389177E+03  0.7546771E-02  0.1120516E+00
         21   -1    0    0  502  501  0.00000000000E+00  0.00000000000E+00  0.43154208121E+03  0.43154208121E+03  0.00000000000E+00 0.  1.
         21   -1    0    0  501  502 -0.00000000000E+00 -0.00000000000E+00 -0.13227367169E+03  0.13227367169E+03  0.00000000000E+00 0.  1.
         25    1    1    2    0    0  0.95062714315E+02  0.77713844554E+01  0.73156194448E+02  0.17341898067E+03  0.12500000000E+03 0.  0.
         25    1    1    2    0    0 -0.13121081708E+03 -0.91063591110E+01  0.91669404156E+02  0.20329162293E+03  0.12500000000E+03 0.  0.
         25    1    1    2    0    0  0.36148102766E+02  0.13349746556E+01  0.13444281091E+03  0.18710514931E+03  0.12500000000E+03 0.  0.
</event>
<event>
 5    0  0.5668330E-005  0.4117074E+03  0.7546771E-02  0.1039800E+00
         21   -1    0    0  502  501  0.00000000000E+00  0.00000000000E+00  0.19998988491E+03  0.19998988491E+03  0.00000000000E+00 0.  1.
         21   -1    0    0  501  502 -0.00000000000E+00 -0.00000000000E+00 -0.84755797874E+03  0.84755797874E+03  0.00000000000E+00 0.  1.
         25    1    1    2    0    0  0.11355206927E+03 -0.63789826964E+02 -0.62461030633E+03  0.65017401458E+03  0.12500000000E+03 0.  0.
         25    1    1    2    0    0  0.28040256867E+02 -0.86937026680E+02 -0.15788730876E+02  0.15562322010E+03  0.12500000000E+03 0.  0.
         25    1    1    2    0    0 -0.14159232614E+03  0.15072685364E+03 -0.71690566224E+01  0.24175062896E+03  0.12500000000E+03 0.  0.
</event>
<event>
 5    0  0.5668330E-005  0.2849391E+03  0.7546771E-02  0.1093021E+00
         21   -1    0    0  502  501  0.00000000000E+00  0.00000000000E+00  0.99749538808E+03  0.99749538808E+03  0.00000000000E+00 0.  1.
         21   -1    0    0  501  502 -0.00000000000E+00 -0.00000000000E+00 -0.81394174614E+02  0.81394174614E+02  0.00000000000E+00 0.  1.
         25    1    1    2    0    0  0.95921517326E+02 -0.61827404826E+02  0.33303373600E+03  0.37357734780E+03  0.12500000000E+03 0.  0.
         25    1    1    2    0    0 -0.11593998157E+03 -0.53061075856E+02  0.46347288358E+03  0.49667863948E+03  0.12500000000E+03 0.  0.
         25    1    1    2    0    0  0.20018464242E+02  0.11488848068E+03  0.11959459387E+03  0.20863357541E+03  0.12500000000E+03 0.  0.
</event>
<event>
 5    0  0.5668330E-005  0.3511386E+03  0.7546771E-02  0.1062149E+00
         21   -1    0    0  502  501  0.00000000000E+00  0.00000000000E+00  0.28185718363E+03  0.28185718363E+03  0.00000000000E+00 0. -1.
         21   -1    0    0  501  502 -0.00000000000E+00 -0.00000000000E+00 -0.43744960853E+03  0.43744960853E+03  0.00000000000E+00 0. -1.
         25    1    1    2    0    0  0.15634211887E+03  0.11177863698E+03 -0.15227304400E+03  0.27522609206E+03  0.12500000000E+03 0.  0.
         25    1    1    2    0    0  0.87292485718E+02 -0.52010038840E+02 -0.24773744298E+02  0.16298392746E+03  0.12500000000E+03 0.  0.
         25    1    1    2    0    0 -0.24363460459E+03 -0.59768598143E+02  0.21454363397E+02  0.28109677264E+03  0.12500000000E+03 0.  0.
</event>
<event>
 5    0  0.5668330E-005  0.2598756E+03  0.7546771E-02  0.1107218E+00
         21   -1    0    0  502  501  0.00000000000E+00  0.00000000000E+00  0.51015015069E+03  0.51015015069E+03  0.00000000000E+00 0.  1.
         21   -1    0    0  501  502 -0.00000000000E+00 -0.00000000000E+00 -0.13238322972E+03  0.13238322972E+03  0.00000000000E+00 0.  1.
         25    1    1    2    0    0  0.82295016603E+02 -0.25772299427E+02  0.12222730962E+03  0.19493895555E+03  0.12500000000E+03 0.  0.
         25    1    1    2    0    0  0.62587000378E+02  0.88759349411E+02  0.12614598372E+03  0.20816619306E+03  0.12500000000E+03 0.  0.
         25    1    1    2    0    0 -0.14488201698E+03 -0.62987049984E+02  0.12939362763E+03  0.23942823180E+03  0.12500000000E+03 0.  0.
</event>
<event>
 5    0  0.5668330E-005  0.2282719E+03  0.7546771E-02  0.1127862E+00
         21   -1    0    0  502  501  0.00000000000E+00  0.00000000000E+00  0.34868025549E+02  0.34868025549E+02  0.00000000000E+00 0. -1.
         21   -1    0    0  501  502 -0.00000000000E+00 -0.00000000000E+00 -0.14944370266E+04  0.14944370266E+04  0.00000000000E+00 0. -1.
         25    1    1    2    0    0 -0.23458895189E+02 -0.17566647073E+02 -0.71040210374E+03  0.72191069797E+03  0.12500000000E+03 0.  0.
         25    1    1    2    0    0  0.97738298341E+01  0.80423177533E+02 -0.49515232641E+03  0.51707276237E+03  0.12500000000E+03 0.  0.
         25    1    1    2    0    0  0.13685065355E+02 -0.62856530460E+02 -0.25401457086E+03  0.29032159177E+03  0.12500000000E+03 0.  0.
</event>
<event>
 5    0  0.5680908E-005  0.3678902E+03  0.7546771E-02  0.1055503E+00
         21   -1    0    0  502  501  0.00000000000E+00  0.00000000000E+00  0.68784143577E+03  0.68784143577E+03  0.00000000000E+00 0. -1.
         21   -1    0    0  501  502 -0.00000000000E+00 -0.00000000000E+00 -0.19676511850E+03  0.19676511850E+03  0.00000000000E+00 0. -1.
         25    1    1    2    0    0 -0.79502544078E+01  0.59086152574E+02  0.34395471562E+03  0.37078865459E+03  0.12500000000E+03 0.  0.
         25    1    1    2    0    0  0.90453466154E+02  0.15241069019E+03  0.13271114593E+03  0.25425989908E+03  0.12500000000E+03 0.  0.
         25    1    1    2    0    0 -0.82503211746E+02 -0.21149684277E+03  0.14410455717E+02  0.25955800061E+03  0.12500000000E+03 0.  0.
</event>
<event>
 5    0  0.5668330E-005  0.3337444E+03  0.7546771E-02  0.1069492E+00
         21   -1    0    0  502  501  0.00000000000E+00  0.00000000000E+00  0.88025454135E+02  0.88025454135E+02  0.00000000000E+00 0.  1.
         21   -1    0    0  501  502 -0.00000000000E+00 -0.00000000000E+00 -0.12653764490E+04  0.12653764490E+04  0.00000000000E+00 0.  1.
         25    1    1    2    0    0  0.77432034884E+02 -0.11564121452E+03 -0.16265157603E+03  0.24788938200E+03  0.12500000000E+03 0.  0.
         25    1    1    2    0    0  0.11217609659E+03 -0.21189474104E+02 -0.47358570984E+03  0.50293229666E+03  0.12500000000E+03 0.  0.
         25    1    1    2    0    0 -0.18960813147E+03  0.13683068863E+03 -0.54111370903E+03  0.60258022451E+03  0.12500000000E+03 0.  0.
</event>
<event>
 5    0  0.5668330E-005  0.3027830E+03  0.7546771E-02  0.1083858E+00
         21   -1    0    0  502  501  0.00000000000E+00  0.00000000000E+00  0.83181451430E+03  0.83181451430E+03  0.00000000000E+00 0.  1.
         21   -1    0    0  501  502 -0.00000000000E+00 -0.00000000000E+00 -0.11021389580E+03  0.11021389580E+03  0.00000000000E+00 0.  1.
         25    1    1    2    0    0 -0.10983402450E+03  0.98287056685E+02  0.19667668056E+03  0.27573642328E+03  0.12500000000E+03 0.  0.
         25    1    1    2    0    0  0.70613081442E+02 -0.17849275090E+03  0.42571517281E+03  0.48342970301E+03  0.12500000000E+03 0.  0.
         25    1    1    2    0    0  0.39220943053E+02  0.80205694215E+02  0.99208765126E+02  0.18286228380E+03  0.12500000000E+03 0.  0.
</event>
<event>
 5    0  0.5668330E-005  0.2802074E+03  0.7546771E-02  0.1095576E+00
         21   -1    0    0  502  501  0.00000000000E+00  0.00000000000E+00  0.99330102660E+03  0.99330102660E+03  0.00000000000E+00 0.  1.
         21   -1    0    0  501  502 -0.00000000000E+00 -0.00000000000E+00 -0.79045732236E+02  0.79045732236E+02  0.00000000000E+00 0.  1.
         25    1    1    2    0    0  0.29959607583E+02 -0.41849813010E+02  0.16946224932E+03  0.21677508823E+03  0.12500000000E+03 0.  0.
         25    1    1    2    0    0 -0.11077507903E+03 -0.10066193995E+03  0.23293559056E+03  0.30378929152E+03  0.12500000000E+03 0.  0.
         25    1    1    2    0    0  0.80815471451E+02  0.14251175296E+03  0.51185745448E+03  0.55178237908E+03  0.12500000000E+03 0.  0.
</event>
<event>
 5    0  0.5668330E-005  0.3205774E+03  0.7546771E-02  0.1075384E+00
         21   -1    0    0  502  501  0.00000000000E+00  0.00000000000E+00  0.13695221275E+03  0.13695221275E+03  0.00000000000E+00 0.  1.
         21   -1    0    0  501  502 -0.00000000000E+00 -0.00000000000E+00 -0.75040665791E+03  0.75040665791E+03  0.00000000000E+00 0.  1.
         25    1    1    2    0    0 -0.96179000306E+01 -0.55301994389E+01 -0.30732296438E+03  0.33195706280E+03  0.12500000000E+03 0.  0.
         25    1    1    2    0    0  0.10173287634E+03  0.17091199537E+03 -0.13231359943E+03  0.26961523860E+03  0.12500000000E+03 0.  0.
         25    1    1    2    0    0 -0.92114976313E+02 -0.16538179594E+03 -0.17381788136E+03  0.28578656926E+03  0.12500000000E+03 0.  0.
</event>
<event>
 5    0  0.5668330E-005  0.3993402E+03  0.7546771E-02  0.1044008E+00
         21   -1    0    0  502  501  0.00000000000E+00  0.00000000000E+00  0.11452235314E+04  0.11452235314E+04  0.00000000000E+00 0.  1.
         21   -1    0    0  501  502 -0.00000000000E+00 -0.00000000000E+00 -0.13925016917E+03  0.13925016917E+03  0.00000000000E+00 0.  1.
         25    1    1    2    0    0  0.83935431262E+02  0.17716603927E+03  0.58371718921E+03  0.62831816707E+03  0.12500000000E+03 0.  0.
         25    1    1    2    0    0  0.12388719466E+03  0.28040718810E+02  0.20314169622E+03  0.27023298772E+03  0.12500000000E+03 0.  0.
         25    1    1    2    0    0 -0.20782262592E+03 -0.20520675808E+03  0.21911447682E+03  0.38592254580E+03  0.12500000000E+03 0.  0.
</event>
<event>
 5    0  0.5668330E-005  0.3712322E+03  0.7546771E-02  0.1054223E+00
         21   -1    0    0  502  501  0.00000000000E+00  0.00000000000E+00  0.26243797349E+03  0.26243797349E+03  0.00000000000E+00 0.  1.
         21   -1    0    0  501  502 -0.00000000000E+00 -0.00000000000E+00 -0.52512744292E+03  0.52512744292E+03  0.00000000000E+00 0.  1.
         25    1    1    2    0    0  0.84759167930E+02 -0.28528228064E+03 -0.58790765238E+02  0.32810280443E+03  0.12500000000E+03 0.  0.
         25    1    1    2    0    0 -0.10162385952E+03  0.10742453894E+03 -0.91709384870E+02  0.21424997471E+03  0.12500000000E+03 0.  0.
         25    1    1    2    0    0  0.16864691589E+02  0.17785774171E+03 -0.11218931932E+03  0.24521263727E+03  0.12500000000E+03 0.  0.
</event>
<event>
 5    0  0.6010414E-005  0.4425306E+03  0.7546771E-02  0.1029973E+00
         21   -1    0    0  502  501  0.00000000000E+00  0.00000000000E+00  0.33844844010E+03  0.33844844010E+03  0.00000000000E+00 0.  1.
         21   -1    0    0  501  502 -0.00000000000E+00 -0.00000000000E+00 -0.57862091865E+03  0.57862091865E+03  0.00000000000E+00 0.  1.
         25    1    1    2    0    0 -0.16993238097E+03 -0.67465454501E+02  0.29118207637E+02  0.22338637306E+03  0.12500000000E+03 0.  0.
         25    1    1    2    0    0  0.20573426315E+03 -0.11957159783E+03 -0.35933117693E+03  0.44874029099E+03  0.12500000000E+03 0.  0.
         25    1    1    2    0    0 -0.35801882181E+02  0.18703705233E+03  0.90040490749E+02  0.24494269470E+03  0.12500000000E+03 0.  0.
</event>
<event>
 5    0  0.5668330E-005  0.3418237E+03  0.7546771E-02  0.1066022E+00
         21   -1    0    0  502  501  0.00000000000E+00  0.00000000000E+00  0.54142819172E+02  0.54142819172E+02  0.00000000000E+00 0. -1.
         21   -1    0    0  501  502 -0.00000000000E+00 -0.00000000000E+00 -0.21580604038E+04  0.21580604038E+04  0.00000000000E+00 0. -1.
         25    1    1    2    0    0  0.14438691999E+03 -0.12559722047E+03 -0.76158064066E+03  0.79514295361E+03  0.12500000000E+03 0.  0.
         25    1    1    2    0    0 -0.29662885228E+02  0.46172670140E+02 -0.12406618231E+03  0.18447010549E+03  0.12500000000E+03 0.  0.
         25    1    1    2    0    0 -0.11472403476E+03  0.79424550327E+02 -0.12182707617E+04  0.12325901639E+04  0.12500000000E+03 0.  0.
</event>
<event>
 5    0  0.5668330E-005  0.2402989E+03  0.7546771E-02  0.1119594E+00
         21   -1    0    0  502  501  0.00000000000E+00  0.00000000000E+00  0.25880286227E+02  0.25880286227E+02  0.00000000000E+00 0. -1.
         21   -1    0    0  501  502 -0.00000000000E+00 -0.00000000000E+00 -0.22311797429E+04  0.22311797429E+04  0.00000000000E+00 0. -1.
         25    1    1    2    0    0 -0.25306738239E+01  0.29002981725E+02 -0.83937505568E+03  0.84913076811E+03  0.12500000000E+03 0.  0.
         25    1    1    2    0    0  0.10286724068E+03 -0.35330584602E+02 -0.90099700393E+03  0.91610617316E+03  0.12500000000E+03 0.  0.
         25    1    1    2    0    0 -0.10033656685E+03  0.63276028771E+01 -0.46492739708E+03  0.49182308787E+03  0.12500000000E+03 0.  0.
</event>
<event>
 5    0  0.5668330E-005  0.2524412E+03  0.7546771E-02  0.1111772E+00
         21   -1    0    0  502  501  0.00000000000E+00  0.00000000000E+00  0.13589873626E+04  0.13589873626E+04  0.00000000000E+00 0. -1.
         21   -1    0    0  501  502 -0.00000000000E+00 -0.00000000000E+00 -0.46892677166E+02  0.46892677166E+02  0.00000000000E+00 0. -1.
         25    1    1    2    0    0  0.22476945882E+02  0.70843229071E+02  0.36194100579E+03  0.39006444067E+03  0.12500000000E+03 0.  0.
         25    1    1    2    0    0 -0.28465592165E+02  0.53194340311E+02  0.67469443562E+03  0.68882327867E+03  0.12500000000E+03 0.  0.
         25    1    1    2    0    0  0.59886462833E+01 -0.12403756938E+03  0.27545924404E+03  0.32699232044E+03  0.12500000000E+03 0.  0.
</event>
<event>
 5    0  0.5668330E-005  0.5597339E+03  0.7546771E-02  0.9992657E-01
         21   -1    0    0  502  501  0.00000000000E+00  0.00000000000E+00  0.16718209757E+03  0.16718209757E+03  0.00000000000E+00 0.  1.
         21   -1    0    0  501  502 -0.00000000000E+00 -0.00000000000E+00 -0.18740166928E+04  0.18740166928E+04  0.00000000000E+00 0.  1.
         25    1    1    2    0    0  0.64972207945E+02 -0.38019571389E+03 -0.99350649823E+03  0.10730565366E+04  0.12500000000E+03 0.  0.
         25    1    1    2    0    0  0.50598424172E+02  0.38016281946E+03 -0.25008094415E+03  0.47460451795E+03  0.12500000000E+03 0.  0.
         25    1    1    2    0    0 -0.11557063212E+03  0.32894432549E-01 -0.46324715284E+03  0.49353773585E+03  0.12500000000E+03 0.  0.
</event>
<event>
 5    0  0.5668330E-005  0.2524053E+03  0.7546771E-02  0.1111794E+00
         21   -1    0    0  502  501  0.00000000000E+00  0.00000000000E+00  0.10459846557E+04  0.10459846557E+04  0.00000000000E+00 0.  1.
         21   -1    0    0  501  502 -0.00000000000E+00 -0.00000000000E+00 -0.60907596642E+02  0.60907596642E+02  0.00000000000E+00 0.  1.
         25    1    1    2    0    0  0.10109965712E+03 -0.24225957453E+02  0.32621186619E+03  0.36448212484E+03  0.12500000000E+03 0.  0.
         25    1    1    2    0    0  0.25303868965E+02 -0.72997442275E+01  0.12453907180E+03  0.17840558415E+03  0.12500000000E+03 0.  0.
         25    1    1    2    0    0 -0.12640352608E+03  0.31525701680E+02  0.53432612112E+03  0.56400454340E+03  0.12500000000E+03 0.  0.
</event>
<event>
 5    0  0.5668330E-005  0.3001317E+03  0.7546771E-02  0.1085175E+00
         21   -1    0    0  502  501  0.00000000000E+00  0.00000000000E+00  0.74536249394E+02  0.74536249394E+02  0.00000000000E+00 0.  1.
         21   -1    0    0  501  502 -0.00000000000E+00 -0.00000000000E+00 -0.12085267896E+04  0.12085267896E+04  0.00000000000E+00 0.  1.
         25    1    1    2    0    0  0.16182684855E+03 -0.43577604922E+01 -0.32700237099E+03  0.38569738088E+03  0.12500000000E+03 0.  0.
         25    1    1    2    0    0 -0.17865481369E+03  0.74207998945E+02 -0.35706126114E+03  0.42490247560E+03  0.12500000000E+03 0.  0.
         25    1    1    2    0    0  0.16827965140E+02 -0.69850238453E+02 -0.44992690807E+03  0.47246318251E+03  0.12500000000E+03 0.  0.
</event>
<event>
 5    0  0.6720950E-005  0.3623354E+03  0.7546771E-02  0.1057663E+00
         21   -1    0    0  502  501  0.00000000000E+00  0.00000000000E+00  0.34057678383E+03  0.34057678383E+03  0.00000000000E+00 0. -1.
         21   -1    0    0  501  502 -0.00000000000E+00 -0.00000000000E+00 -0.38548412869E+03  0.38548412869E+03  0.00000000000E+00 0. -1.
         25    1    1    2    0    0  0.11023901223E+03 -0.14684953335E+03 -0.99544291258E+02  0.24341629194E+03  0.12500000000E+03 0.  0.
         25    1    1    2    0    0 -0.11670539663E+03  0.12710545691E+03 -0.13669788940E+03  0.25315461628E+03  0.12500000000E+03 0.  0.
         25    1    1    2    0    0  0.64663844013E+01  0.19744076444E+02  0.19133483580E+03  0.22949000430E+03  0.12500000000E+03 0.  0.
</event>
<event>
 5    0  0.5668330E-005  0.6121620E+03  0.7546771E-02  0.9880490E-01
         21   -1    0    0  502  501  0.00000000000E+00  0.00000000000E+00  0.10469787283E+04  0.10469787283E+04  0.00000000000E+00 0. -1.
         21   -1    0    0  501  502 -0.00000000000E+00 -0.00000000000E+00 -0.35792737331E+03  0.35792737331E+03  0.00000000000E+00 0. -1.
         25    1    1    2    0    0 -0.10985754203E+03  0.53259823518E+03  0.26015858602E+03  0.61565984889E+03  0.12500000000E+03 0.  0.
         25    1    1    2    0    0  0.43916067832E+02 -0.17769314341E+03  0.32495472468E+03  0.39334977733E+03  0.12500000000E+03 0.  0.
         25    1    1    2    0    0  0.65941474195E+02 -0.35490509178E+03  0.10393804429E+03  0.39589647541E+03  0.12500000000E+03 0.  0.
</event>
<event>
 5    0  0.5668330E-005  0.2611778E+03  0.7546771E-02  0.1106438E+00
         21   -1    0    0  502  501  0.00000000000E+00  0.00000000000E+00  0.68215271529E+03  0.68215271529E+03  0.00000000000E+00 0. -1.
         21   -1    0    0  501  502 -0.00000000000E+00 -0.00000000000E+00 -0.99997915571E+02  0.99997915571E+02  0.00000000000E+00 0. -1.
         25    1    1    2    0    0 -0.17130708625E+02  0.32378284941E+02  0.24508361025E+03  0.27754781665E+03  0.12500000000E+03 0.  0.
         25    1    1    2    0    0  0.80937659836E+02  0.26515813388E+02  0.19585937495E+02  0.15252082509E+03  0.12500000000E+03 0.  0.
         25    1    1    2    0    0 -0.63806951211E+02 -0.58894098329E+02  0.31748525197E+03  0.35208198912E+03  0.12500000000E+03 0.  0.
</event>
<event>
 5    0  0.5668330E-005  0.2773901E+03  0.7546771E-02  0.1097123E+00
         21   -1    0    0  502  501  0.00000000000E+00  0.00000000000E+00  0.45393601832E+02  0.45393601832E+02  0.00000000000E+00 0.  1.
         21   -1    0    0  501  502 -0.00000000000E+00 -0.00000000000E+00 -0.16950683098E+04  0.16950683098E+04  0.00000000000E+00 0.  1.
         25    1    1    2    0    0  0.23457797306E+02  0.72308269377E+02 -0.43223253537E+03  0.45632085062E+03  0.12500000000E+03 0.  0.
         25    1    1    2    0    0 -0.61581433407E+02 -0.13084032499E+03 -0.10335311006E+04  0.10510580381E+04  0.12500000000E+03 0.  0.
         25    1    1    2    0    0  0.38123636101E+02  0.58532055610E+02 -0.18391107204E+03  0.23308302294E+03  0.12500000000E+03 0.  0.
</event>
<event>
 5    0  0.5668330E-005  0.3177466E+03  0.7546771E-02  0.1076691E+00
         21   -1    0    0  502  501  0.00000000000E+00  0.00000000000E+00  0.29033399671E+03  0.29033399671E+03  0.00000000000E+00 0.  1.
         21   -1    0    0  501  502 -0.00000000000E+00 -0.00000000000E+00 -0.34774733156E+03  0.34774733156E+03  0.00000000000E+00 0.  1.
         25    1    1    2    0    0  0.37636242836E+02  0.40959901889E+02  0.86348564938E+02  0.16178774677E+03  0.12500000000E+03 0.  0.
         25    1    1    2    0    0 -0.19815309410E+03 -0.14923126917E+02 -0.17437685499E+02  0.23540692703E+03  0.12500000000E+03 0.  0.
         25    1    1    2    0    0  0.16051685126E+03 -0.26036774971E+02 -0.12632421429E+03  0.24088665448E+03  0.12500000000E+03 0.  0.
</event>
<event>
 5    0  0.5829860E-005  0.3927149E+03  0.7546771E-02  0.1046332E+00
         21   -1    0    0  502  501  0.00000000000E+00  0.00000000000E+00  0.97053303770E+02  0.97053303770E+02  0.00000000000E+00 0. -1.
         21   -1    0    0  501  502 -0.00000000000E+00 -0.00000000000E+00 -0.15890748781E+04  0.15890748781E+04  0.00000000000E+00 0.  1.
         25    1    1    2    0    0  0.17940393879E+03 -0.11972444662E+03 -0.24260563856E+03  0.34785372247E+03  0.12500000000E+03 0.  0.
         25    1    1    2    0    0 -0.24107898780E+03  0.14000953139E+03 -0.59485446165E+03  0.66872907652E+03  0.12500000000E+03 0.  0.
         25    1    1    2    0    0  0.61675049005E+02 -0.20285084761E+02 -0.65456147408E+03  0.66954538284E+03  0.12500000000E+03 0.  0.
</event>
<event>
 5    0  0.5668330E-005  0.5014179E+03  0.7546771E-02  0.1013409E+00
         21   -1    0    0  502  501  0.00000000000E+00  0.00000000000E+00  0.33199521716E+03  0.33199521716E+03  0.00000000000E+00 0.  1.
         21   -1    0    0  501  502 -0.00000000000E+00 -0.00000000000E+00 -0.75729982159E+03  0.75729982159E+03  0.00000000000E+00 0.  1.
         25    1    1    2    0    0 -0.71270713021E+02 -0.13569391802E+02 -0.38944754040E+03  0.41540104676E+03  0.12500000000E+03 0.  0.
         25    1    1    2    0    0  0.12153175317E+03 -0.19366209045E+03  0.20288526667E+03  0.33024597460E+03  0.12500000000E+03 0.  0.
         25    1    1    2    0    0 -0.50261040150E+02  0.20723148226E+03 -0.23874233070E+03  0.34364801740E+03  0.12500000000E+03 0.  0.
</event>
<event>
 5    0  0.5668330E-005  0.2850231E+03  0.7546771E-02  0.1092977E+00
         21   -1    0    0  502  501  0.00000000000E+00  0.00000000000E+00  0.16962169664E+03  0.16962169664E+03  0.00000000000E+00 0.  1.
         21   -1    0    0  501  502 -0.00000000000E+00 -0.00000000000E+00 -0.47893722398E+03  0.47893722398E+03  0.00000000000E+00 0.  1.
         25    1    1    2    0    0 -0.18403832755E+02  0.30637730848E+02 -0.26800674679E+02  0.13274278803E+03  0.12500000000E+03 0.  0.
         25    1    1    2    0    0 -0.16283796210E+03  0.15873943819E+02 -0.14910036930E+03  0.25421271431E+03  0.12500000000E+03 0.  0.
         25    1    1    2    0    0  0.18124179485E+03 -0.46511674667E+02 -0.13341448336E+03  0.26160341827E+03  0.12500000000E+03 0.  0.
</event>
<event>
 5    0  0.5668330E-005  0.2523084E+03  0.7546771E-02  0.1111855E+00
         21   -1    0    0  502  501  0.00000000000E+00  0.00000000000E+00  0.11403928264E+03  0.11403928264E+03  0.00000000000E+00 0. -1.
         21   -1    0    0  501  502 -0.00000000000E+00 -0.00000000000E+00 -0.55822436894E+03  0.55822436894E+03  0.00000000000E+00 0. -1.
         25    1    1    2    0    0  0.61361855539E+02 -0.64581376129E+02 -0.11742916443E+03  0.19326313699E+03  0.12500000000E+03 0.  0.
         25    1    1    2    0    0 -0.86770178355E+02  0.38489318184E+02 -0.31033835430E+03  0.34777203110E+03  0.12500000000E+03 0.  0.
         25    1    1    2    0    0  0.25408322816E+02  0.26092057945E+02 -0.16417567568E+02  0.13122848350E+03  0.12500000000E+03 0.  0.
</event>
<event>
 5    0  0.5668330E-005  0.3536447E+03  0.7546771E-02  0.1061129E+00
         21   -1    0    0  502  501  0.00000000000E+00  0.00000000000E+00  0.16733930469E+03  0.16733930469E+03  0.00000000000E+00 0. -1.
         21   -1    0    0  501  502 -0.00000000000E+00 -0.00000000000E+00 -0.74737120486E+03  0.74737120486E+03  0.00000000000E+00 0. -1.
         25    1    1    2    0    0 -0.83905879587E+02 -0.64045695374E+02  0.27178625527E+02  0.16584850138E+03  0.12500000000E+03 0.  0.
         25    1    1    2    0    0  0.77370704993E+02 -0.10028839719E+03 -0.10693709231E+03  0.20761630551E+03  0.12500000000E+03 0.  0.
         25    1    1    2    0    0  0.65351745934E+01  0.16433409256E+03 -0.50027343340E+03  0.54124570266E+03  0.12500000000E+03 0.  0.
</event>
<event>
 5    0  0.5668330E-005  0.2436459E+03  0.7546771E-02  0.1117388E+00
         21   -1    0    0  502  501  0.00000000000E+00  0.00000000000E+00  0.40877017358E+02  0.40877017358E+02  0.00000000000E+00 0.  1.
         21   -1    0    0  501  502 -0.00000000000E+00 -0.00000000000E+00 -0.14522421592E+04  0.14522421592E+04  0.00000000000E+00 0.  1.
         25    1    1    2    0    0 -0.67470818866E+02  0.49886872642E+02 -0.52081036147E+03  0.54213415690E+03  0.12500000000E+03 0.  0.
         25    1    1    2    0    0  0.96436834171E+02  0.39903071563E+02 -0.59020634151E+03  0.61225880448E+03  0.12500000000E+03 0.  0.
         25    1    1    2    0    0 -0.28966015305E+02 -0.89789944205E+02 -0.30034843886E+03  0.33872621518E+03  0.12500000000E+03 0.  0.
</event>
<event>
 5    0  0.5668330E-005  0.3484753E+03  0.7546771E-02  0.1063243E+00
         21   -1    0    0  502  501  0.00000000000E+00  0.00000000000E+00  0.14211715860E+03  0.14211715860E+03  0.00000000000E+00 0.  1.
         21   -1    0    0  501  502 -0.00000000000E+00 -0.00000000000E+00 -0.85447123900E+03  0.85447123900E+03  0.00000000000E+00 0.  1.
         25    1    1    2    0    0  0.50080749901E+01  0.13431575851E+02 -0.15308983090E+03  0.19815898761E+03  0.12500000000E+03 0.  0.
         25    1    1    2    0    0 -0.42688032089E+02 -0.59071409690E+02  0.65291318292E+02  0.15874399444E+03  0.12500000000E+03 0.  0.
         25    1    1    2    0    0  0.37679957099E+02  0.45639833840E+02 -0.62455556780E+03  0.63968541555E+03  0.12500000000E+03 0.  0.
</event>
<event>
 5    0  0.5668330E-005  0.4640447E+03  0.7546771E-02  0.1023615E+00
         21   -1    0    0  502  501  0.00000000000E+00  0.00000000000E+00  0.33982858366E+03  0.33982858366E+03  0.00000000000E+00 0.  1.
         21   -1    0    0  501  502 -0.00000000000E+00 -0.00000000000E+00 -0.63366513685E+03  0.63366513685E+03  0.00000000000E+00 0.  1.
         25    1    1    2    0    0  0.14779594650E+03  0.52859225304E+02 -0.33561201120E+02  0.20344309701E+03  0.12500000000E+03 0.  0.
         25    1    1    2    0    0  0.87097692370E+02 -0.16268699554E+03 -0.39397957999E+03  0.45265657620E+03  0.12500000000E+03 0.  0.
         25    1    1    2    0    0 -0.23489363887E+03  0.10982777023E+03  0.13370422792E+03  0.31739404729E+03  0.12500000000E+03 0.  0.
</event>
<event>
 5    0  0.5668330E-005  0.5370287E+03  0.7546771E-02  0.1004542E+00
         21   -1    0    0  502  501  0.00000000000E+00  0.00000000000E+00  0.48726552684E+03  0.48726552684E+03  0.00000000000E+00 0. -1.
         21   -1    0    0  501  502 -0.00000000000E+00 -0.00000000000E+00 -0.59187400599E+03  0.59187400599E+03  0.00000000000E+00 0. -1.
         25    1    1    2    0    0  0.20011161105E+03  0.35799727763E+03  0.21323707751E+03  0.47885463232E+03  0.12500000000E+03 0.  0.
         25    1    1    2    0    0 -0.55782365484E+02 -0.15983826966E+03 -0.22926031452E+03  0.31119967314E+03  0.12500000000E+03 0.  0.
         25    1    1    2    0    0 -0.14432924556E+03 -0.19815900798E+03 -0.88585242134E+02  0.28908522738E+03  0.12500000000E+03 0.  0.
</event>
<event>
 5    0  0.5668330E-005  0.4781470E+03  0.7546771E-02  0.1019646E+00
         21   -1    0    0  502  501  0.00000000000E+00  0.00000000000E+00  0.17937614240E+03  0.17937614240E+03  0.00000000000E+00 0.  1.
         21   -1    0    0  501  502 -0.00000000000E+00 -0.00000000000E+00 -0.12745539080E+04  0.12745539080E+04  0.00000000000E+00 0.  1.
         25    1    1    2    0    0 -0.87716194369E+02  0.57756730251E+02 -0.33609220001E+03  0.37364814672E+03  0.12500000000E+03 0.  0.
         25    1    1    2    0    0  0.11307539245E+03  0.26163133424E+03 -0.64801350120E+03  0.71887655211E+03  0.12500000000E+03 0.  0.
         25    1    1    2    0    0 -0.25359198077E+02 -0.31938806449E+03 -0.11107206442E+03  0.36140535159E+03  0.12500000000E+03 0.  0.
</event>
<event>
 5    0  0.5668330E-005  0.8972718E+03  0.7546771E-02  0.9428998E-01
         21   -1    0    0  502  501  0.00000000000E+00  0.00000000000E+00  0.25316475544E+04  0.25316475544E+04  0.00000000000E+00 0. -1.
         21   -1    0    0  501  502 -0.00000000000E+00 -0.00000000000E+00 -0.31801292273E+03  0.31801292273E+03  0.00000000000E+00 0. -1.
         25    1    1    2    0    0 -0.40477726000E+03 -0.24179000445E+03  0.65166537200E+03  0.81400233017E+03  0.12500000000E+03 0.  0.
         25    1    1    2    0    0 -0.24675701761E+03  0.50544515405E+03  0.85438480264E+03  0.10305155120E+04  0.12500000000E+03 0.  0.
         25    1    1    2    0    0  0.65153427761E+03 -0.26365514960E+03  0.70758445708E+03  0.10051426350E+04  0.12500000000E+03 0.  0.
</event>
<event>
 5    0  0.5668330E-005  0.2351906E+03  0.7546771E-02  0.1123039E+00
         21   -1    0    0  502  501  0.00000000000E+00  0.00000000000E+00  0.52287550649E+02  0.52287550649E+02  0.00000000000E+00 0. -1.
         21   -1    0    0  501  502 -0.00000000000E+00 -0.00000000000E+00 -0.10578929001E+04  0.10578929001E+04  0.00000000000E+00 0. -1.
         25    1    1    2    0    0 -0.94781218717E+02 -0.60617935151E+02 -0.45917761460E+03  0.48900623230E+03  0.12500000000E+03 0.  0.
         25    1    1    2    0    0  0.99595563583E+02  0.51611775289E+02 -0.34845027714E+03  0.38681474542E+03  0.12500000000E+03 0.  0.
         25    1    1    2    0    0 -0.48143448655E+01  0.90061598621E+01 -0.19797745767E+03  0.23435947298E+03  0.12500000000E+03 0.  0.
</event>
<event>
 5    0  0.5668330E-005  0.2448811E+03  0.7546771E-02  0.1116583E+00
         21   -1    0    0  502  501  0.00000000000E+00  0.00000000000E+00  0.33885836309E+03  0.33885836309E+03  0.00000000000E+00 0. -1.
         21   -1    0    0  501  502 -0.00000000000E+00 -0.00000000000E+00 -0.17696697431E+03  0.17696697431E+03  0.00000000000E+00 0. -1.
         25    1    1    2    0    0  0.62485906278E+02 -0.29062753780E+02  0.16770957353E+03  0.22022859305E+03  0.12500000000E+03 0.  0.
         25    1    1    2    0    0 -0.36600912838E+01  0.78995987344E+02  0.74448854400E+01  0.14810195341E+03  0.12500000000E+03 0.  0.
         25    1    1    2    0    0 -0.58825814995E+02 -0.49933233563E+02 -0.13263070187E+02  0.14749479094E+03  0.12500000000E+03 0.  0.
</event>
<event>
 5    0  0.6009280E-005  0.3070110E+03  0.7546771E-02  0.1081787E+00
         21   -1    0    0  502  501  0.00000000000E+00  0.00000000000E+00  0.69447308896E+03  0.69447308896E+03  0.00000000000E+00 0.  1.
         21   -1    0    0  501  502 -0.00000000000E+00 -0.00000000000E+00 -0.13572267166E+03  0.13572267166E+03  0.00000000000E+00 0.  1.
         25    1    1    2    0    0  0.14622105781E+03  0.13059986487E+02  0.24391068300E+03  0.31091571571E+03  0.12500000000E+03 0.  0.
         25    1    1    2    0    0 -0.16316257884E+03 -0.91135288393E+02  0.29300764153E+03  0.36933202666E+03  0.12500000000E+03 0.  0.
         25    1    1    2    0    0  0.16941521027E+02  0.78075301906E+02  0.21832092768E+02  0.14994801825E+03  0.12500000000E+03 0.  0.
</event>
<event>
 5    0  0.5668330E-005  0.3521291E+03  0.7546771E-02  0.1061745E+00
         21   -1    0    0  502  501  0.00000000000E+00  0.00000000000E+00  0.65886046293E+02  0.65886046293E+02  0.00000000000E+00 0. -1.
         21   -1    0    0  501  502 -0.00000000000E+00 -0.00000000000E+00 -0.18819596439E+04  0.18819596439E+04  0.00000000000E+00 0. -1.
         25    1    1    2    0    0  0.15072224427E+03  0.14038061553E+03 -0.12195240003E+04  0.12430960138E+04  0.12500000000E+03 0.  0.
         25    1    1    2    0    0 -0.26972269410E+01 -0.61634814052E+01 -0.30606332463E+03  0.33067358863E+03  0.12500000000E+03 0.  0.
         25    1    1    2    0    0 -0.14802501733E+03 -0.13421713412E+03 -0.29048627270E+03  0.37407608782E+03  0.12500000000E+03 0.  0.
</event>
<event>
 5    0  0.5668330E-005  0.2707872E+03  0.7546771E-02  0.1100830E+00
         21   -1    0    0  502  501  0.00000000000E+00  0.00000000000E+00  0.31681936917E+03  0.31681936917E+03  0.00000000000E+00 0. -1.
         21   -1    0    0  501  502 -0.00000000000E+00 -0.00000000000E+00 -0.23144324483E+03  0.23144324483E+03  0.00000000000E+00 0. -1.
         25    1    1    2    0    0 -0.16062274443E+03  0.59074276499E+02  0.30796462548E+02  0.21415615396E+03  0.12500000000E+03 0.  0.
         25    1    1    2    0    0  0.10133012777E+03 -0.94484731932E+02  0.36784055621E+02  0.19019260267E+03  0.12500000000E+03 0.  0.
         25    1    1    2    0    0  0.59292616663E+02  0.35410455433E+02  0.17795606176E+02  0.14391385737E+03  0.12500000000E+03 0.  0.
</event>
<event>
 5    0  0.5668330E-005  0.2775492E+03  0.7546771E-02  0.1097035E+00
         21   -1    0    0  502  501  0.00000000000E+00  0.00000000000E+00  0.41710564848E+03  0.41710564848E+03  0.00000000000E+00 0.  1.
         21   -1    0    0  501  502 -0.00000000000E+00 -0.00000000000E+00 -0.18468597983E+03  0.18468597983E+03  0.00000000000E+00 0.  1.
         25    1    1    2    0    0 -0.11967892983E+03 -0.10764347072E+03  0.77266746168E+02  0.21795713592E+03  0.12500000000E+03 0.  0.
         25    1    1    2    0    0  0.14820965729E+03  0.59807608022E+02  0.13920409898E+03  0.24606063006E+03  0.12500000000E+03 0.  0.
         25    1    1    2    0    0 -0.28530727456E+02  0.47835862702E+02  0.15948823497E+02  0.13777386233E+03  0.12500000000E+03 0.  0.
</event>
<event>
 5    0  0.5668330E-005  0.3189567E+03  0.7546771E-02  0.1076130E+00
         21   -1    0    0  502  501  0.00000000000E+00  0.00000000000E+00  0.31917128155E+03  0.31917128155E+03  0.00000000000E+00 0.  1.
         21   -1    0    0  501  502 -0.00000000000E+00 -0.00000000000E+00 -0.31874230081E+03  0.31874230081E+03  0.00000000000E+00 0.  1.
         25    1    1    2    0    0 -0.52490398729E+02 -0.87545124644E+02  0.45312114737E+02  0.16762332341E+03  0.12500000000E+03 0.  0.
         25    1    1    2    0    0 -0.42561666676E+02 -0.13062477411E+03 -0.73939533445E+02  0.19991593655E+03  0.12500000000E+03 0.  0.
         25    1    1    2    0    0  0.95052065405E+02  0.21816989876E+03  0.29056399446E+02  0.27037432240E+03  0.12500000000E+03 0.  0.
</event>
<event>
 5    0  0.5668330E-005  0.3265047E+03  0.7546771E-02  0.1072694E+00
         21   -1    0    0  502  501  0.00000000000E+00  0.00000000000E+00  0.12274965499E+03  0.12274965499E+03  0.00000000000E+00 0.  1.
         21   -1    0    0  501  502 -0.00000000000E+00 -0.00000000000E+00 -0.86847755468E+03  0.86847755468E+03  0.00000000000E+00 0.  1.
         25    1    1    2    0    0 -0.20428367412E+03  0.22780359358E+02 -0.47563005059E+03  0.53301004616E+03  0.12500000000E+03 0.  0.
         25    1    1    2    0    0  0.78311127434E+02 -0.31351408647E+02 -0.21010525069E+02  0.15225631569E+03  0.12500000000E+03 0.  0.
         25    1    1    2    0    0  0.12597254669E+03  0.85710492898E+01 -0.24908732404E+03  0.30596084782E+03  0.12500000000E+03 0.  0.
</event>
<event>
 5    0  0.5668330E-005  0.2915553E+03  0.7546771E-02  0.1089540E+00
         21   -1    0    0  502  501  0.00000000000E+00  0.00000000000E+00  0.46202395033E+03  0.46202395033E+03  0.00000000000E+00 0. -1.
         21   -1    0    0  501  502 -0.00000000000E+00 -0.00000000000E+00 -0.18398281268E+03  0.18398281268E+03  0.00000000000E+00 0. -1.
         25    1    1    2    0    0 -0.92647556840E+02 -0.79107769872E+02  0.13642177102E+03  0.22153444123E+03  0.12500000000E+03 0.  0.
         25    1    1    2    0    0 -0.29686852699E+02 -0.79779898633E+02  0.10790893005E+03  0.18578341862E+03  0.12500000000E+03 0.  0.
         25    1    1    2    0    0  0.12233440954E+03  0.15888766850E+03  0.33710436575E+02  0.23868890317E+03  0.12500000000E+03 0.  0.
</event>
<event>
 5    0  0.5668330E-005  0.2544756E+03  0.7546771E-02  0.1110509E+00
         21   -1    0    0  502  501  0.00000000000E+00  0.00000000000E+00  0.14633411131E+03  0.14633411131E+03  0.00000000000E+00 0.  1.
         21   -1    0    0  501  502 -0.00000000000E+00 -0.00000000000E+00 -0.44253417464E+03  0.44253417464E+03  0.00000000000E+00 0.  1.
         25    1    1    2    0    0 -0.89045221726E+02 -0.18570190742E+02 -0.92161482129E+02  0.17997956074E+03  0.12500000000E+03 0.  0.
         25    1    1    2    0    0  0.34534109683E+02  0.17588944469E+02  0.33408136658E+02  0.13506694375E+03  0.12500000000E+03 0.  0.
         25    1    1    2    0    0  0.54511112044E+02  0.98124627323E+00 -0.23744671786E+03  0.27382178146E+03  0.12500000000E+03 0.  0.
</event>
<event>
 5    0  0.5668330E-005  0.3766187E+03  0.7546771E-02  0.1052191E+00
         21   -1    0    0  502  501  0.00000000000E+00  0.00000000000E+00  0.23378100818E+03  0.23378100818E+03  0.00000000000E+00 0.  1.
         21   -1    0    0  501  502 -0.00000000000E+00 -0.00000000000E+00 -0.60672879204E+03  0.60672879204E+03  0.00000000000E+00 0.  1.
         25    1    1    2    0    0 -0.13716502126E+03 -0.17644528663E+03 -0.86020229504E+01  0.25621509914E+03  0.12500000000E+03 0.  0.
         25    1    1    2    0    0 -0.73488144500E+02 -0.36356983692E+01 -0.69713630604E+02  0.16093078008E+03  0.12500000000E+03 0.  0.
         25    1    1    2    0    0  0.21065316576E+03  0.18008098499E+03 -0.29463213030E+03  0.42336392100E+03  0.12500000000E+03 0.  0.
</event>
<event>
 5    0  0.5668330E-005  0.3671250E+03  0.7546771E-02  0.1055798E+00
         21   -1    0    0  502  501  0.00000000000E+00  0.00000000000E+00  0.60895202667E+03  0.60895202667E+03  0.00000000000E+00 0. -1.
         21   -1    0    0  501  502 -0.00000000000E+00 -0.00000000000E+00 -0.22133228706E+03  0.22133228706E+03  0.00000000000E+00 0. -1.
         25    1    1    2    0    0 -0.28727450721E+02  0.24972089976E+03  0.16055162418E+03  0.32340009002E+03  0.12500000000E+03 0.  0.
         25    1    1    2    0    0  0.86835862808E+02 -0.26351753406E+03  0.10404259345E+03  0.32160817632E+03  0.12500000000E+03 0.  0.
         25    1    1    2    0    0 -0.58108412087E+02  0.13796634300E+02  0.12302552199E+03  0.18527604738E+03  0.12500000000E+03 0.  0.
</event>
<event>
 5    0  0.5668330E-005  0.6328028E+03  0.7546771E-02  0.9839594E-01
         21   -1    0    0  502  501  0.00000000000E+00  0.00000000000E+00  0.13158053634E+04  0.13158053634E+04  0.00000000000E+00 0.  1.
         21   -1    0    0  501  502 -0.00000000000E+00 -0.00000000000E+00 -0.30433028650E+03  0.30433028650E+03  0.00000000000E+00 0.  1.
         25    1    1    2    0    0 -0.51001366853E+03 -0.47898257724E+01  0.28951496956E+03  0.59965056667E+03  0.12500000000E+03 0.  0.
         25    1    1    2    0    0  0.29816065496E+02 -0.64875514726E+02  0.39945233237E+03  0.42459980689E+03  0.12500000000E+03 0.  0.
         25    1    1    2    0    0  0.48019760303E+03  0.69665340498E+02  0.32250777497E+03  0.59588527632E+03  0.12500000000E+03 0.  0.
</event>
<event>
 5    0  0.6818451E-005  0.3566369E+03  0.7546771E-02  0.1059923E+00
         21   -1    0    0  502  501  0.00000000000E+00  0.00000000000E+00  0.38062934033E+03  0.38062934033E+03  0.00000000000E+00 0. -1.
         21   -1    0    0  501  502 -0.00000000000E+00 -0.00000000000E+00 -0.33415677852E+03  0.33415677852E+03  0.00000000000E+00 0. -1.
         25    1    1    2    0    0 -0.27226994367E+01 -0.15136985694E+01 -0.20028176979E+03  0.23610906735E+03  0.12500000000E+03 0.  0.
         25    1    1    2    0    0 -0.59724493113E+02 -0.14199677635E+03  0.17907964403E+03  0.26725384651E+03  0.12500000000E+03 0.  0.
         25    1    1    2    0    0  0.62447192550E+02  0.14351047492E+03  0.67674687567E+02  0.21142320498E+03  0.12500000000E+03 0.  0.
</event>
<event>
 5    0  0.5668330E-005  0.3985539E+03  0.7546771E-02  0.1044282E+00
         21   -1    0    0  502  501  0.00000000000E+00  0.00000000000E+00  0.44987836963E+03  0.44987836963E+03  0.00000000000E+00 0. -1.
         21   -1    0    0  501  502 -0.00000000000E+00 -0.00000000000E+00 -0.35308479999E+03  0.35308479999E+03  0.00000000000E+00 0. -1.
         25    1    1    2    0    0 -0.49815463390E+02  0.16049144120E+03  0.23355192798E+03  0.31370461609E+03  0.12500000000E+03 0.  0.
         25    1    1    2    0    0 -0.96650333798E+02  0.66642997885E+02 -0.39153245372E+02  0.17589926894E+03  0.12500000000E+03 0.  0.
         25    1    1    2    0    0  0.14646579719E+03 -0.22713443908E+03 -0.97605112974E+02  0.31335928460E+03  0.12500000000E+03 0.  0.
</event>
<event>
 5    0  0.5668330E-005  0.2728231E+03  0.7546771E-02  0.1099675E+00
         21   -1    0    0  502  501  0.00000000000E+00  0.00000000000E+00  0.39445587246E+03  0.39445587246E+03  0.00000000000E+00 0. -1.
         21   -1    0    0  501  502 -0.00000000000E+00 -0.00000000000E+00 -0.18869651173E+03  0.18869651173E+03  0.00000000000E+00 0. -1.
         25    1    1    2    0    0  0.71935833221E+02 -0.10373185634E+03 -0.20918487807E+01  0.17766383412E+03  0.12500000000E+03 0.  0.
         25    1    1    2    0    0  0.57966386926E+02  0.78918833233E+02  0.13864252407E+03  0.21079619003E+03  0.12500000000E+03 0.  0.
         25    1    1    2    0    0 -0.12990222015E+03  0.24813023111E+02  0.69208685439E+02  0.19469236003E+03  0.12500000000E+03 0.  0.
</event>
<event>
 5    0  0.5668330E-005  0.3375817E+03  0.7546771E-02  0.1067831E+00
         21   -1    0    0  502  501  0.00000000000E+00  0.00000000000E+00  0.57448870018E+03  0.57448870018E+03  0.00000000000E+00 0. -1.
         21   -1    0    0  501  502 -0.00000000000E+00 -0.00000000000E+00 -0.19837012003E+03  0.19837012003E+03  0.00000000000E+00 0. -1.
         25    1    1    2    0    0 -0.38394718405E+02 -0.37985121932E+02 -0.10169851271E+03  0.16995473332E+03  0.12500000000E+03 0.  0.
         25    1    1    2    0    0 -0.22631514510E+02 -0.65295088187E+02  0.37537901800E+03  0.40163421312E+03  0.12500000000E+03 0.  0.
         25    1    1    2    0    0  0.61026232915E+02  0.10328021012E+03  0.10243807487E+03  0.20126987377E+03  0.12500000000E+03 0.  0.
</event>
<event>
 5    0  0.6551479E-005  0.2805478E+03  0.7546771E-02  0.1095390E+00
         21   -1    0    0  502  501  0.00000000000E+00  0.00000000000E+00  0.29198703611E+03  0.29198703611E+03  0.00000000000E+00 0.  1.
         21   -1    0    0  501  502 -0.00000000000E+00 -0.00000000000E+00 -0.26955669530E+03  0.26955669530E+03  0.00000000000E+00 0.  1.
         25    1    1    2    0    0 -0.34699324179E+02  0.66916433863E+02  0.77847187576E+02  0.16542985472E+03  0.12500000000E+03 0.  0.
         25    1    1    2    0    0  0.41264612713E+02 -0.45477021149E+02 -0.17365124771E+03  0.22259982827E+03  0.12500000000E+03 0.  0.
         25    1    1    2    0    0 -0.65652885335E+01 -0.21439412714E+02  0.11823440095E+03  0.17351404842E+03  0.12500000000E+03 0.  0.
</event>
<event>
 5    0  0.5668330E-005  0.6793692E+03  0.7546771E-02  0.9753179E-01
         21   -1    0    0  502  501  0.00000000000E+00  0.00000000000E+00  0.51993642966E+03  0.51993642966E+03  0.00000000000E+00 0.  1.
         21   -1    0    0  501  502 -0.00000000000E+00 -0.00000000000E+00 -0.88769023931E+03  0.88769023931E+03  0.00000000000E+00 0.  1.
         25    1    1    2    0    0  0.99882122961E+01  0.14314413079E+02 -0.14602035368E+03  0.19300676282E+03  0.12500000000E+03 0.  0.
         25    1    1    2    0    0  0.49384204928E+03 -0.16698384717E+03  0.15174845217E+03  0.55715004046E+03  0.12500000000E+03 0.  0.
         25    1    1    2    0    0 -0.50383026158E+03  0.15266943409E+03 -0.37348190814E+03  0.65746986569E+03  0.12500000000E+03 0.  0.
</event>
<event>
 5    0  0.5668330E-005  0.2480040E+03  0.7546771E-02  0.1114573E+00
         21   -1    0    0  502  501  0.00000000000E+00  0.00000000000E+00  0.63994532340E+03  0.63994532340E+03  0.00000000000E+00 0. -1.
         21   -1    0    0  501  502 -0.00000000000E+00 -0.00000000000E+00 -0.96111289646E+02  0.96111289646E+02  0.00000000000E+00 0. -1.
         25    1    1    2    0    0 -0.74101391555E+02  0.11292849936E+03  0.19298441045E+03  0.26666804247E+03  0.12500000000E+03 0.  0.
         25    1    1    2    0    0  0.89021745684E+02 -0.40464409571E+02  0.13049101055E+03  0.20546324119E+03  0.12500000000E+03 0.  0.
         25    1    1    2    0    0 -0.14920354129E+02 -0.72464089784E+02  0.22035861276E+03  0.26392532939E+03  0.12500000000E+03 0.  0.
</event>
<event>
 5    0  0.5668330E-005  0.4317653E+03  0.7546771E-02  0.1033304E+00
         21   -1    0    0  502  501  0.00000000000E+00  0.00000000000E+00  0.64266349278E+03  0.64266349278E+03  0.00000000000E+00 0. -1.
         21   -1    0    0  501  502 -0.00000000000E+00 -0.00000000000E+00 -0.29007599776E+03  0.29007599776E+03  0.00000000000E+00 0. -1.
         25    1    1    2    0    0  0.95523696399E+01 -0.68551816187E+02 -0.20101769136E+02  0.14429026437E+03  0.12500000000E+03 0.  0.
         25    1    1    2    0    0 -0.35621602329E+02  0.34897593031E+03  0.28241032169E+03  0.46736889957E+03  0.12500000000E+03 0.  0.
         25    1    1    2    0    0  0.26069232689E+02 -0.28042411413E+03  0.90278942457E+02  0.32108032660E+03  0.12500000000E+03 0.  0.
</event>
<event>
 5    0  0.5668330E-005  0.3355637E+03  0.7546771E-02  0.1068701E+00
         21   -1    0    0  502  501  0.00000000000E+00  0.00000000000E+00  0.37166858696E+03  0.37166858696E+03  0.00000000000E+00 0. -1.
         21   -1    0    0  501  502 -0.00000000000E+00 -0.00000000000E+00 -0.30296619118E+03  0.30296619118E+03  0.00000000000E+00 0. -1.
         25    1    1    2    0    0 -0.17917651090E+03  0.43934831009E+02  0.61879600932E+01  0.22292999413E+03  0.12500000000E+03 0.  0.
         25    1    1    2    0    0  0.55216785331E+02 -0.16947755150E+03 -0.23563154660E+02  0.21897889419E+03  0.12500000000E+03 0.  0.
         25    1    1    2    0    0  0.12395972557E+03  0.12554272049E+03  0.86077590347E+02  0.23272588982E+03  0.12500000000E+03 0.  0.
</event>
<event>
 5    0  0.5668330E-005  0.3876869E+03  0.7546771E-02  0.1048129E+00
         21   -1    0    0  502  501  0.00000000000E+00  0.00000000000E+00  0.18528296556E+03  0.18528296556E+03  0.00000000000E+00 0. -1.
         21   -1    0    0  501  502 -0.00000000000E+00 -0.00000000000E+00 -0.81119778930E+03  0.81119778930E+03  0.00000000000E+00 0. -1.
         25    1    1    2    0    0  0.31896688547E+02  0.13162348702E+03 -0.18330076853E+03  0.25993520889E+03  0.12500000000E+03 0.  0.
         25    1    1    2    0    0  0.20363200469E+03  0.49135022651E+02 -0.29330616541E+03  0.38148886020E+03  0.12500000000E+03 0.  0.
         25    1    1    2    0    0 -0.23552869324E+03 -0.18075850967E+03 -0.14930788980E+03  0.35505668578E+03  0.12500000000E+03 0.  0.
</event>
<event>
 5    0  0.5668330E-005  0.3402626E+03  0.7546771E-02  0.1066684E+00
         21   -1    0    0  502  501  0.00000000000E+00  0.00000000000E+00  0.15752343248E+03  0.15752343248E+03  0.00000000000E+00 0.  1.
         21   -1    0    0  501  502 -0.00000000000E+00 -0.00000000000E+00 -0.73499298658E+03  0.73499298658E+03  0.00000000000E+00 0.  1.
         25    1    1    2    0    0  0.19115274343E+03  0.99413322606E+02 -0.18624847686E+03  0.31102391414E+03  0.12500000000E+03 0.  0.
         25    1    1    2    0    0 -0.34489150901E+02 -0.17062032793E+03 -0.23179462001E+03  0.31568107910E+03  0.12500000000E+03 0.  0.
         25    1    1    2    0    0 -0.15666359253E+03  0.71207005324E+02 -0.15942645723E+03  0.26581142582E+03  0.12500000000E+03 0.  0.
</event>
<event>
 5    0  0.5668330E-005  0.3229064E+03  0.7546771E-02  0.1074319E+00
         21   -1    0    0  502  501  0.00000000000E+00  0.00000000000E+00  0.12050827714E+04  0.12050827714E+04  0.00000000000E+00 0.  1.
         21   -1    0    0  501  502 -0.00000000000E+00 -0.00000000000E+00 -0.86523964813E+02  0.86523964813E+02  0.00000000000E+00 0.  1.
         25    1    1    2    0    0  0.10405597729E+03  0.48439620678E+02  0.41904588012E+02  0.17479999358E+03  0.12500000000E+03 0.  0.
         25    1    1    2    0    0 -0.43396070887E+02  0.44057656346E+01  0.33129517333E+03  0.35676900316E+03  0.12500000000E+03 0.  0.
         25    1    1    2    0    0 -0.60659906400E+02 -0.52845386312E+02  0.74535904527E+03  0.76003773950E+03  0.12500000000E+03 0.  0.
</event>
<event>
 5    0  0.5668330E-005  0.2851452E+03  0.7546771E-02  0.1092911E+00
         21   -1    0    0  502  501  0.00000000000E+00  0.00000000000E+00  0.14994245617E+04  0.14994245617E+04  0.00000000000E+00 0.  1.
         21   -1    0    0  501  502 -0.00000000000E+00 -0.00000000000E+00 -0.54226005760E+02  0.54226005760E+02  0.00000000000E+00 0.  1.
         25    1    1    2    0    0 -0.54436093140E+02  0.67580799405E+02  0.31417865685E+03  0.34908978946E+03  0.12500000000E+03 0.  0.
         25    1    1    2    0    0  0.89373243616E+02 -0.24792380086E+02  0.10102872531E+04  0.10222072063E+04  0.12500000000E+03 0.  0.
         25    1    1    2    0    0 -0.34937150476E+02 -0.42788419319E+02  0.12073264597E+03  0.18235357171E+03  0.12500000000E+03 0.  0.
</event>
<event>
 5    0  0.5668330E-005  0.2966765E+03  0.7546771E-02  0.1086914E+00
         21   -1    0    0  502  501  0.00000000000E+00  0.00000000000E+00  0.80610476560E+02  0.80610476560E+02  0.00000000000E+00 0. -1.
         21   -1    0    0  501  502 -0.00000000000E+00 -0.00000000000E+00 -0.10918800159E+04  0.10918800159E+04  0.00000000000E+00 0. -1.
         25    1    1    2    0    0 -0.71418227176E+02  0.70912051434E+02 -0.70408359957E+03  0.72214112013E+03  0.12500000000E+03 0.  0.
         25    1    1    2    0    0  0.27625235446E+02 -0.13066423304E+03 -0.18927977954E+03  0.26322638616E+03  0.12500000000E+03 0.  0.
         25    1    1    2    0    0  0.43792991730E+02  0.59752181602E+02 -0.11790616024E+03  0.18712298617E+03  0.12500000000E+03 0.  0.
</event>
<event>
 5    0  0.5668330E-005  0.2473174E+03  0.7546771E-02  0.1115012E+00
         21   -1    0    0  502  501  0.00000000000E+00  0.00000000000E+00  0.64478151603E+02  0.64478151603E+02  0.00000000000E+00 0. -1.
         21   -1    0    0  501  502 -0.00000000000E+00 -0.00000000000E+00 -0.94863001695E+03  0.94863001695E+03  0.00000000000E+00 0. -1.
         25    1    1    2    0    0 -0.86592914104E+02  0.62003494655E+02 -0.36578714627E+03  0.40095885388E+03  0.12500000000E+03 0.  0.
         25    1    1    2    0    0 -0.46152911647E+02 -0.23894528350E+02 -0.26619149956E+03  0.29863682655E+03  0.12500000000E+03 0.  0.
         25    1    1    2    0    0  0.13274582575E+03 -0.38108966305E+02 -0.25217321952E+03  0.31351248812E+03  0.12500000000E+03 0.  0.
</event>
<event>
 5    0  0.5668330E-005  0.2896537E+03  0.7546771E-02  0.1090530E+00
         21   -1    0    0  502  501  0.00000000000E+00  0.00000000000E+00  0.10736508490E+04  0.10736508490E+04  0.00000000000E+00 0. -1.
         21   -1    0    0  501  502 -0.00000000000E+00 -0.00000000000E+00 -0.78143928040E+02  0.78143928040E+02  0.00000000000E+00 0. -1.
         25    1    1    2    0    0  0.64547898962E+01 -0.97915440518E+02  0.21781718514E+03  0.26962645261E+03  0.12500000000E+03 0.  0.
         25    1    1    2    0    0 -0.14976729014E+03 -0.12567484112E+02  0.33522319509E+03  0.38805640489E+03  0.12500000000E+03 0.  0.
         25    1    1    2    0    0  0.14331250024E+03  0.11048292463E+03  0.44246654071E+03  0.49411191952E+03  0.12500000000E+03 0.  0.
</event>
<event>
 5    0  0.6809971E-005  0.4049913E+03  0.7546771E-02  0.1042065E+00
         21   -1    0    0  502  501  0.00000000000E+00  0.00000000000E+00  0.71292513621E+03  0.71292513621E+03  0.00000000000E+00 0. -1.
         21   -1    0    0  501  502 -0.00000000000E+00 -0.00000000000E+00 -0.23006333065E+03  0.23006333065E+03  0.00000000000E+00 0. -1.
         25    1    1    2    0    0  0.24732602776E+02 -0.21114490173E+03  0.23789979195E+03  0.34265898817E+03  0.12500000000E+03 0.  0.
         25    1    1    2    0    0  0.17352384925E+03  0.10052119935E+03  0.24606763528E+03  0.34115878841E+03  0.12500000000E+03 0.  0.
         25    1    1    2    0    0 -0.19825645203E+03  0.11062370238E+03 -0.11056216784E+01  0.25917069028E+03  0.12500000000E+03 0.  0.
</event>
<event>
 5    0  0.5668330E-005  0.2620309E+03  0.7546771E-02  0.1105929E+00
         21   -1    0    0  502  501  0.00000000000E+00  0.00000000000E+00  0.55026821603E+03  0.55026821603E+03  0.00000000000E+00 0.  1.
         21   -1    0    0  501  502 -0.00000000000E+00 -0.00000000000E+00 -0.12477589764E+03  0.12477589764E+03  0.00000000000E+00 0.  1.
         25    1    1    2    0    0 -0.12091751878E+03 -0.42542264799E+01  0.22607639632E+03  0.28526247871E+03  0.12500000000E+03 0.  0.
         25    1    1    2    0    0  0.15394923713E+03 -0.29769837744E+02  0.13178631193E+03  0.23995675207E+03  0.12500000000E+03 0.  0.
         25    1    1    2    0    0 -0.33031718348E+02  0.34024064224E+02  0.67629610142E+02  0.14982488288E+03  0.12500000000E+03 0.  0.
</event>
<event>
 5    0  0.5668330E-005  0.3679278E+03  0.7546771E-02  0.1055488E+00
         21   -1    0    0  502  501  0.00000000000E+00  0.00000000000E+00  0.26837200074E+03  0.26837200074E+03  0.00000000000E+00 0.  1.
         21   -1    0    0  501  502 -0.00000000000E+00 -0.00000000000E+00 -0.50441490736E+03  0.50441490736E+03  0.00000000000E+00 0.  1.
         25    1    1    2    0    0  0.14216183576E+03  0.66417730254E+02 -0.77373944705E+02  0.21501867305E+03  0.12500000000E+03 0.  0.
         25    1    1    2    0    0 -0.39671726200E+02 -0.24838385604E+03 -0.13951693639E+03  0.31362136620E+03  0.12500000000E+03 0.  0.
         25    1    1    2    0    0 -0.10249010956E+03  0.18196612578E+03 -0.19152025517E+02  0.24414686885E+03  0.12500000000E+03 0.  0.
</event>
<event>
 5    0  0.5668330E-005  0.2944394E+03  0.7546771E-02  0.1088054E+00
         21   -1    0    0  502  501  0.00000000000E+00  0.00000000000E+00  0.21978170498E+03  0.21978170498E+03  0.00000000000E+00 0. -1.
         21   -1    0    0  501  502 -0.00000000000E+00 -0.00000000000E+00 -0.39445754656E+03  0.39445754656E+03  0.00000000000E+00 0. -1.
         25    1    1    2    0    0 -0.90887420629E+02 -0.12160070880E+01 -0.14046154284E+02  0.15519116068E+03  0.12500000000E+03 0.  0.
         25    1    1    2    0    0  0.12593249283E+03  0.16702216611E+02 -0.24535720933E+03  0.30325421177E+03  0.12500000000E+03 0.  0.
         25    1    1    2    0    0 -0.35045072203E+02 -0.15486209523E+02  0.84727522033E+02  0.15579387909E+03  0.12500000000E+03 0.  0.
</event>
<event>
 5    0  0.5668330E-005  0.2136774E+03  0.7546771E-02  0.1138687E+00
         21   -1    0    0  502  501  0.00000000000E+00  0.00000000000E+00  0.18407630870E+03  0.18407630870E+03  0.00000000000E+00 0.  1.
         21   -1    0    0  501  502 -0.00000000000E+00 -0.00000000000E+00 -0.24803867491E+03  0.24803867491E+03  0.00000000000E+00 0.  1.
         25    1    1    2    0    0 -0.24039964689E+02  0.10031311927E+02 -0.81302622584E+02  0.15137259845E+03  0.12500000000E+03 0.  0.
         25    1    1    2    0    0 -0.41678329279E+01 -0.53268153676E+02 -0.26647192685E+02  0.13852775861E+03  0.12500000000E+03 0.  0.
         25    1    1    2    0    0  0.28207797617E+02  0.43236841749E+02  0.43987449066E+02  0.14221462655E+03  0.12500000000E+03 0.  0.
</event>
<event>
 5    0  0.5668330E-005  0.3074279E+03  0.7546771E-02  0.1081585E+00
         21   -1    0    0  502  501  0.00000000000E+00  0.00000000000E+00  0.40396929981E+03  0.40396929981E+03  0.00000000000E+00 0. -1.
         21   -1    0    0  501  502 -0.00000000000E+00 -0.00000000000E+00 -0.23395818859E+03  0.23395818859E+03  0.00000000000E+00 0. -1.
         25    1    1    2    0    0 -0.44754689266E+02 -0.10768236677E+03  0.15754631819E+03  0.23247433557E+03  0.12500000000E+03 0.  0.
         25    1    1    2    0    0 -0.66895766104E+02  0.20809323956E+01 -0.10383103054E+03  0.17574201747E+03  0.12500000000E+03 0.  0.
         25    1    1    2    0    0  0.11165045537E+03  0.10560143437E+03  0.11629582357E+03  0.22971113535E+03  0.12500000000E+03 0.  0.
</event>
<event>
 5    0  0.5668330E-005  0.2679393E+03  0.7546771E-02  0.1102465E+00
         21   -1    0    0  502  501  0.00000000000E+00  0.00000000000E+00  0.74018210757E+03  0.74018210757E+03  0.00000000000E+00 0. -1.
         21   -1    0    0  501  502 -0.00000000000E+00 -0.00000000000E+00 -0.96991649558E+02  0.96991649558E+02  0.00000000000E+00 0. -1.
         25    1    1    2    0    0 -0.98244749846E+01 -0.15699282567E+01  0.11544957037E+03  0.17044819823E+03  0.12500000000E+03 0.  0.
         25    1    1    2    0    0  0.15885165435E+03 -0.89541863665E+01  0.19409574054E+03  0.28037864048E+03  0.12500000000E+03 0.  0.
         25    1    1    2    0    0 -0.14902717937E+03  0.10524114623E+02  0.33364514710E+03  0.38634691841E+03  0.12500000000E+03 0.  0.
</event>
<event>
 5    0  0.5668330E-005  0.2410534E+03  0.7546771E-02  0.1119093E+00
         21   -1    0    0  502  501  0.00000000000E+00  0.00000000000E+00  0.10844188742E+03  0.10844188742E+03  0.00000000000E+00 0.  1.
         21   -1    0    0  501  502 -0.00000000000E+00 -0.00000000000E+00 -0.53583283679E+03  0.53583283679E+03  0.00000000000E+00 0.  1.
         25    1    1    2    0    0 -0.17610147448E+02 -0.62280819163E+01 -0.17512093487E+03  0.21596584944E+03  0.12500000000E+03 0.  0.
         25    1    1    2    0    0  0.59575350004E+02 -0.74627254147E+02 -0.34234189201E+02  0.16098269814E+03  0.12500000000E+03 0.  0.
         25    1    1    2    0    0 -0.41965202556E+02  0.80855336063E+02 -0.21803582530E+03  0.26732617663E+03  0.12500000000E+03 0.  0.
</event>
<event>
 5    0  0.5668330E-005  0.3946799E+03  0.7546771E-02  0.1045638E+00
         21   -1    0    0  502  501  0.00000000000E+00  0.00000000000E+00  0.24384842606E+03  0.24384842606E+03  0.00000000000E+00 0.  1.
         21   -1    0    0  501  502 -0.00000000000E+00 -0.00000000000E+00 -0.63880744189E+03  0.63880744189E+03  0.00000000000E+00 0.  1.
         25    1    1    2    0    0 -0.24347808759E+03 -0.13339127843E+03 -0.28638363702E+03  0.41798971261E+03  0.12500000000E+03 0.  0.
         25    1    1    2    0    0 -0.30750426000E+02  0.33770145589E+02 -0.16074636603E+02  0.13405001072E+03  0.12500000000E+03 0.  0.
         25    1    1    2    0    0  0.27422851359E+03  0.99621132841E+02 -0.92500742200E+02  0.33061614462E+03  0.12500000000E+03 0.  0.
</event>
<event>
 5    0  0.5668330E-005  0.2824710E+03  0.7546771E-02  0.1094347E+00
         21   -1    0    0  502  501  0.00000000000E+00  0.00000000000E+00  0.14509403951E+04  0.14509403951E+04  0.00000000000E+00 0. -1.
         21   -1    0    0  501  502 -0.00000000000E+00 -0.00000000000E+00 -0.54991831066E+02  0.54991831066E+02  0.00000000000E+00 0. -1.
         25    1    1    2    0    0 -0.45818122044E+02 -0.58449361559E+02  0.66089058996E+03  0.67669564803E+03  0.12500000000E+03 0.  0.
         25    1    1    2    0    0 -0.11261251273E+03 -0.12846798721E+02  0.29366440474E+03  0.33868923938E+03  0.12500000000E+03 0.  0.
         25    1    1    2    0    0  0.15843063477E+03  0.71296160280E+02  0.44139356935E+03  0.49054733876E+03  0.12500000000E+03 0.  0.
</event>
<event>
 5    0  0.5668330E-005  0.2475721E+03  0.7546771E-02  0.1114849E+00
         21   -1    0    0  502  501  0.00000000000E+00  0.00000000000E+00  0.18036044079E+04  0.18036044079E+04  0.00000000000E+00 0. -1.
         21   -1    0    0  501  502 -0.00000000000E+00 -0.00000000000E+00 -0.33983038389E+02  0.33983038389E+02  0.00000000000E+00 0. -1.
         25    1    1    2    0    0 -0.43459619836E+02 -0.11496752787E+03  0.44422512950E+03  0.47756385615E+03  0.12500000000E+03 0.  0.
         25    1    1    2    0    0  0.20928582929E+02  0.49565733049E+02  0.92386551085E+03  0.93383470144E+03  0.12500000000E+03 0.  0.
         25    1    1    2    0    0  0.22531036907E+02  0.65401794824E+02  0.40153072917E+03  0.42618888870E+03  0.12500000000E+03 0.  0.
</event>
<event>
 5    0  0.5668330E-005  0.2653231E+03  0.7546771E-02  0.1103987E+00
         21   -1    0    0  502  501  0.00000000000E+00  0.00000000000E+00  0.50906625321E+03  0.50906625321E+03  0.00000000000E+00 0.  1.
         21   -1    0    0  501  502 -0.00000000000E+00 -0.00000000000E+00 -0.13828520700E+03  0.13828520700E+03  0.00000000000E+00 0.  1.
         25    1    1    2    0    0 -0.64955165750E+01  0.17294549887E+02  0.23452645029E+03  0.26639997950E+03  0.12500000000E+03 0.  0.
         25    1    1    2    0    0 -0.85122862229E+02  0.22940547009E+02  0.15735538495E+03  0.21944905456E+03  0.12500000000E+03 0.  0.
         25    1    1    2    0    0  0.91618378804E+02 -0.40235096896E+02 -0.21100789030E+02  0.16150242616E+03  0.12500000000E+03 0.  0.
</event>
<event>
 5    0  0.5668330E-005  0.2772720E+03  0.7546771E-02  0.1097188E+00
         21   -1    0    0  502  501  0.00000000000E+00  0.00000000000E+00  0.51596803646E+02  0.51596803646E+02  0.00000000000E+00 0. -1.
         21   -1    0    0  501  502 -0.00000000000E+00 -0.00000000000E+00 -0.14900104189E+04  0.14900104189E+04  0.00000000000E+00 0. -1.
         25    1    1    2    0    0  0.59411148155E+02 -0.22516785089E+02 -0.25420279304E+03  0.29031147088E+03  0.12500000000E+03 0.  0.
         25    1    1    2    0    0  0.92099929575E+02 -0.47731018085E+01 -0.83832057348E+03  0.85259108806E+03  0.12500000000E+03 0.  0.
         25    1    1    2    0    0 -0.15151107773E+03  0.27289886898E+02 -0.34589024869E+03  0.39870466356E+03  0.12500000000E+03 0.  0.
</event>
<event>
 5    0  0.6736374E-005  0.2819583E+03  0.7546771E-02  0.1094624E+00
         21   -1    0    0  502  501  0.00000000000E+00  0.00000000000E+00  0.43057043837E+03  0.43057043837E+03  0.00000000000E+00 0. -1.
         21   -1    0    0  501  502 -0.00000000000E+00 -0.00000000000E+00 -0.18463985365E+03  0.18463985365E+03  0.00000000000E+00 0. -1.
         25    1    1    2    0    0  0.12649768428E+03 -0.75795295341E+02  0.42492067826E+02  0.19793222767E+03  0.12500000000E+03 0.  0.
         25    1    1    2    0    0 -0.40312835300E+02  0.79929291418E+01  0.21339006161E+03  0.25069768646E+03  0.12500000000E+03 0.  0.
         25    1    1    2    0    0 -0.86184848978E+02  0.67802366199E+02 -0.99515447092E+01  0.16658037789E+03  0.12500000000E+03 0.  0.
</event>
<event>
 5    0  0.5668330E-005  0.2622784E+03  0.7546771E-02  0.1105782E+00
         21   -1    0    0  502  501  0.00000000000E+00  0.00000000000E+00  0.46320189381E+03  0.46320189381E+03  0.00000000000E+00 0. -1.
         21   -1    0    0  501  502 -0.00000000000E+00 -0.00000000000E+00 -0.14850961137E+03  0.14850961137E+03  0.00000000000E+00 0. -1.
         25    1    1    2    0    0 -0.52530036172E+02  0.13949085451E+03  0.41335716992E+02  0.19887369029E+03  0.12500000000E+03 0.  0.
         25    1    1    2    0    0  0.70699030527E+02 -0.82933952930E+02  0.18592090550E+03  0.24913445480E+03  0.12500000000E+03 0.  0.
         25    1    1    2    0    0 -0.18168994355E+02 -0.56556901580E+02  0.87435659945E+02  0.16370336008E+03  0.12500000000E+03 0.  0.
</event>
<event>
 5    0  0.5668330E-005  0.2122784E+03  0.7546771E-02  0.1139774E+00
         21   -1    0    0  502  501  0.00000000000E+00  0.00000000000E+00  0.31072723624E+03  0.31072723624E+03  0.00000000000E+00 0.  1.
         21   -1    0    0  501  502 -0.00000000000E+00 -0.00000000000E+00 -0.14502145802E+03  0.14502145802E+03  0.00000000000E+00 0.  1.
         25    1    1    2    0    0  0.81861207598E+02  0.80735800917E+01  0.90031218753E+02  0.17463407558E+03  0.12500000000E+03 0.  0.
         25    1    1    2    0    0 -0.21048551744E+02 -0.19736740048E+02  0.15598409664E+02  0.12923192648E+03  0.12500000000E+03 0.  0.
         25    1    1    2    0    0 -0.60812655854E+02  0.11663159957E+02  0.60076149805E+02  0.15188269219E+03  0.12500000000E+03 0.  0.
</event>
<event>
 5    0  0.5668330E-005  0.3176145E+03  0.7546771E-02  0.1076752E+00
         21   -1    0    0  502  501  0.00000000000E+00  0.00000000000E+00  0.15839606133E+04  0.15839606133E+04  0.00000000000E+00 0. -1.
         21   -1    0    0  501  502 -0.00000000000E+00 -0.00000000000E+00 -0.63687788915E+02  0.63687788915E+02  0.00000000000E+00 0. -1.
         25    1    1    2    0    0 -0.84863480309E+02 -0.20889438526E+01  0.54390189183E+03  0.56450016999E+03  0.12500000000E+03 0.  0.
         25    1    1    2    0    0  0.29977819081E+02  0.29056701526E+02  0.41776481414E+02  0.13825062727E+03  0.12500000000E+03 0.  0.
         25    1    1    2    0    0  0.54885661228E+02 -0.26967757673E+02  0.93459445118E+03  0.94489760500E+03  0.12500000000E+03 0.  0.
</event>
<event>
 5    0  0.5668330E-005  0.2224496E+03  0.7546771E-02  0.1132070E+00
         21   -1    0    0  502  501  0.00000000000E+00  0.00000000000E+00  0.12884035246E+03  0.12884035246E+03  0.00000000000E+00 0.  1.
         21   -1    0    0  501  502 -0.00000000000E+00 -0.00000000000E+00 -0.38407082914E+03  0.38407082914E+03  0.00000000000E+00 0.  1.
         25    1    1    2    0    0  0.52746725702E+02 -0.13522426052E+02 -0.10465297414E+03  0.17187878890E+03  0.12500000000E+03 0.  0.
         25    1    1    2    0    0 -0.20645149729E+02 -0.72588592602E+02 -0.10323328980E+03  0.17882236467E+03  0.12500000000E+03 0.  0.
         25    1    1    2    0    0 -0.32101575973E+02  0.86111018654E+02 -0.47344212748E+02  0.16221002803E+03  0.12500000000E+03 0.  0.
</event>
<event>
 5    0  0.5668330E-005  0.3756806E+03  0.7546771E-02  0.1052542E+00
         21   -1    0    0  502  501  0.00000000000E+00  0.00000000000E+00  0.53695463560E+03  0.53695463560E+03  0.00000000000E+00 0. -1.
         21   -1    0    0  501  502 -0.00000000000E+00 -0.00000000000E+00 -0.26284509626E+03  0.26284509626E+03  0.00000000000E+00 0. -1.
         25    1    1    2    0    0  0.14839704432E+03 -0.23697630333E+03  0.19556924300E+03  0.36338929527E+03  0.12500000000E+03 0.  0.
         25    1    1    2    0    0 -0.13438306701E+03  0.20412097978E+03 -0.17079467186E+02  0.27502889173E+03  0.12500000000E+03 0.  0.
         25    1    1    2    0    0 -0.14013977310E+02  0.32855323554E+02  0.95619763522E+02  0.16138154486E+03  0.12500000000E+03 0.  0.
</event>
<event>
 5    0  0.5668330E-005  0.2746214E+03  0.7546771E-02  0.1098663E+00
         21   -1    0    0  502  501  0.00000000000E+00  0.00000000000E+00  0.21388521875E+03  0.21388521875E+03  0.00000000000E+00 0. -1.
         21   -1    0    0  501  502 -0.00000000000E+00 -0.00000000000E+00 -0.35260468836E+03  0.35260468836E+03  0.00000000000E+00 0. -1.
         25    1    1    2    0    0 -0.89548428634E+02  0.80921514902E+02 -0.57507656514E+02  0.18302825793E+03  0.12500000000E+03 0.  0.
         25    1    1    2    0    0 -0.32068209093E+02 -0.10945895215E+03  0.33869220480E+02  0.17257391557E+03  0.12500000000E+03 0.  0.
         25    1    1    2    0    0  0.12161663773E+03  0.28537437248E+02 -0.11508103357E+03  0.21088773360E+03  0.12500000000E+03 0.  0.
</event>
<event>
 5    0  0.5668330E-005  0.2411087E+03  0.7546771E-02  0.1119056E+00
         21   -1    0    0  502  501  0.00000000000E+00  0.00000000000E+00  0.50162579978E+03  0.50162579978E+03  0.00000000000E+00 0.  1.
         21   -1    0    0  501  502 -0.00000000000E+00 -0.00000000000E+00 -0.11588996496E+03  0.11588996496E+03  0.00000000000E+00 0.  1.
         25    1    1    2    0    0  0.16777783657E+02 -0.39917438383E+01  0.13316429697E+03  0.18345342197E+03  0.12500000000E+03 0.  0.
         25    1    1    2    0    0  0.48512577158E+02  0.68575119097E+01  0.26020722387E+03  0.29280248456E+03  0.12500000000E+03 0.  0.
         25    1    1    2    0    0 -0.65290360815E+02 -0.28657680715E+01 -0.76356860108E+01  0.14125985821E+03  0.12500000000E+03 0.  0.
</event>
<event>
 5    0  0.5668330E-005  0.3079610E+03  0.7546771E-02  0.1081327E+00
         21   -1    0    0  502  501  0.00000000000E+00  0.00000000000E+00  0.14412438591E+03  0.14412438591E+03  0.00000000000E+00 0. -1.
         21   -1    0    0  501  502 -0.00000000000E+00 -0.00000000000E+00 -0.65804270041E+03  0.65804270041E+03  0.00000000000E+00 0. -1.
         25    1    1    2    0    0  0.16236654846E+03 -0.42274256561E+02 -0.32589343355E+03  0.38727450066E+03  0.12500000000E+03 0.  0.
         25    1    1    2    0    0 -0.70365339517E+02  0.10994128334E+03 -0.29833218458E+02  0.18317583823E+03  0.12500000000E+03 0.  0.
         25    1    1    2    0    0 -0.92001208943E+02 -0.67667026777E+02 -0.15819166249E+03  0.23171674743E+03  0.12500000000E+03 0.  0.
</event>
<event>
 5    0  0.5668330E-005  0.3106950E+03  0.7546771E-02  0.1080013E+00
         21   -1    0    0  502  501  0.00000000000E+00  0.00000000000E+00  0.71058535580E+02  0.71058535580E+02  0.00000000000E+00 0. -1.
         21   -1    0    0  501  502 -0.00000000000E+00 -0.00000000000E+00 -0.13584766516E+04  0.13584766516E+04  0.00000000000E+00 0. -1.
         25    1    1    2    0    0 -0.12990621175E+02  0.13040812584E+03 -0.19566928167E+03  0.26662052305E+03  0.12500000000E+03 0.  0.
         25    1    1    2    0    0 -0.16518774797E+02 -0.78835458715E+02 -0.15060215955E+03  0.21164571796E+03  0.12500000000E+03 0.  0.
         25    1    1    2    0    0  0.29509395972E+02 -0.51572667122E+02 -0.94114667480E+03  0.95126894617E+03  0.12500000000E+03 0.  0.
</event>
<event>
 5    0  0.5668330E-005  0.3554719E+03  0.7546771E-02  0.1060391E+00
         21   -1    0    0  502  501  0.00000000000E+00  0.00000000000E+00  0.92627514509E+02  0.92627514509E+02  0.00000000000E+00 0. -1.
         21   -1    0    0  501  502 -0.00000000000E+00 -0.00000000000E+00 -0.13641762754E+04  0.13641762754E+04  0.00000000000E+00 0. -1.
         25    1    1    2    0    0  0.73389174189E+02  0.67516265240E+02 -0.51639386385E+03  0.54058490507E+03  0.12500000000E+03 0.  0.
         25    1    1    2    0    0  0.16366273037E+03 -0.13010635348E+03 -0.36072286521E+03  0.43526904095E+03  0.12500000000E+03 0.  0.
         25    1    1    2    0    0 -0.23705190456E+03  0.62590088243E+02 -0.39443203182E+03  0.48094984388E+03  0.12500000000E+03 0.  0.
</event>
<event>
 5    0  0.5668330E-005  0.3119966E+03  0.7546771E-02  0.1079393E+00
         21   -1    0    0  502  501  0.00000000000E+00  0.00000000000E+00  0.49487856828E+03  0.49487856828E+03  0.00000000000E+00 0.  1.
         21   -1    0    0  501  502 -0.00000000000E+00 -0.00000000000E+00 -0.19669853898E+03  0.19669853898E+03  0.00000000000E+00 0.  1.
         25    1    1    2    0    0 -0.11533273403E+03 -0.10251499168E+03  0.34413300994E+02  0.20154463115E+03  0.12500000000E+03 0.  0.
         25    1    1    2    0    0 -0.70108308394E+02  0.12022424699E+03  0.98675383922E+02  0.21149675142E+03  0.12500000000E+03 0.  0.
         25    1    1    2    0    0  0.18544104242E+03 -0.17709255300E+02  0.16509134439E+03  0.27853572469E+03  0.12500000000E+03 0.  0.
</event>
<event>
 5    0  0.6842377E-005  0.3404985E+03  0.7546771E-02  0.1066584E+00
         21   -1    0    0  502  501  0.00000000000E+00  0.00000000000E+00  0.64755947130E+03  0.64755947130E+03  0.00000000000E+00 0. -1.
         21   -1    0    0  501  502 -0.00000000000E+00 -0.00000000000E+00 -0.17904031913E+03  0.17904031913E+03  0.00000000000E+00 0. -1.
         25    1    1    2    0    0  0.32422598615E+02 -0.12802428438E+03  0.30153084506E+03  0.35211829378E+03  0.12500000000E+03 0.  0.
         25    1    1    2    0    0  0.11797833455E+03  0.12325533367E+03 -0.85021588519E+01  0.21167912369E+03  0.12500000000E+03 0.  0.
         25    1    1    2    0    0 -0.15040093317E+03  0.47689507082E+01  0.17549046597E+03  0.26280237296E+03  0.12500000000E+03 0.  0.
</event>
<event>
 5    0  0.5668330E-005  0.3603959E+03  0.7546771E-02  0.1058427E+00
         21   -1    0    0  502  501  0.00000000000E+00  0.00000000000E+00  0.18783641190E+03  0.18783641190E+03  0.00000000000E+00 0. -1.
         21   -1    0    0  501  502 -0.00000000000E+00 -0.00000000000E+00 -0.69148026735E+03  0.69148026735E+03  0.00000000000E+00 0. -1.
         25    1    1    2    0    0 -0.63673805303E+02 -0.13320041803E+03 -0.24983218579E+03  0.31597124221E+03  0.12500000000E+03 0.  0.
         25    1    1    2    0    0 -0.56825680243E+02 -0.12898396450E+03 -0.99883957187E+02  0.21323185957E+03  0.12500000000E+03 0.  0.
         25    1    1    2    0    0  0.12049948555E+03  0.26218438253E+03 -0.15392771247E+03  0.35011357747E+03  0.12500000000E+03 0.  0.
</event>
<event>
 5    0  0.5708575E-005  0.3217856E+03  0.7546771E-02  0.1074830E+00
         21   -1    0    0  502  501  0.00000000000E+00  0.00000000000E+00  0.23045803861E+03  0.23045803861E+03  0.00000000000E+00 0.  1.
         21   -1    0    0  501  502 -0.00000000000E+00 -0.00000000000E+00 -0.44930504295E+03  0.44930504295E+03  0.00000000000E+00 0.  1.
         25    1    1    2    0    0  0.37990481750E+02  0.15659735166E+01 -0.32127111913E+02  0.13454694458E+03  0.12500000000E+03 0.  0.
         25    1    1    2    0    0 -0.23852326625E+03 -0.11545528878E+02 -0.14148563502E+03  0.30441720171E+03  0.12500000000E+03 0.  0.
         25    1    1    2    0    0  0.20053278450E+03  0.99795553612E+01 -0.45234257397E+02  0.24079893527E+03  0.12500000000E+03 0.  0.
</event>
<event>
 5    0  0.5668330E-005  0.4099025E+03  0.7546771E-02  0.1040404E+00
         21   -1    0    0  502  501  0.00000000000E+00  0.00000000000E+00  0.16367922539E+04  0.16367922539E+04  0.00000000000E+00 0.  1.
         21   -1    0    0  501  502 -0.00000000000E+00 -0.00000000000E+00 -0.10265202723E+03  0.10265202723E+03  0.00000000000E+00 0.  1.
         25    1    1    2    0    0  0.12548574635E+03  0.83469440304E+02  0.74476346105E+03  0.77007235564E+03  0.12500000000E+03 0.  0.
         25    1    1    2    0    0 -0.56524650320E+01 -0.17106487383E+02  0.77295393713E+03  0.78320327578E+03  0.12500000000E+03 0.  0.
         25    1    1    2    0    0 -0.11983328132E+03 -0.66362952921E+02  0.16422828477E+02  0.18616864969E+03  0.12500000000E+03 0.  0.
</event>
<event>
 5    0  0.6088115E-005  0.4457365E+03  0.7546771E-02  0.1029001E+00
         21   -1    0    0  502  501  0.00000000000E+00  0.00000000000E+00  0.48068427795E+03  0.48068427795E+03  0.00000000000E+00 0. -1.
         21   -1    0    0  501  502 -0.00000000000E+00 -0.00000000000E+00 -0.41332966276E+03  0.41332966276E+03  0.00000000000E+00 0. -1.
         25    1    1    2    0    0  0.19910646184E+03  0.90038871309E+02 -0.56710541279E+02  0.25805322510E+03  0.12500000000E+03 0.  0.
         25    1    1    2    0    0 -0.51169345405E+02 -0.12163519117E+03 -0.19170840325E+03  0.26417898008E+03  0.12500000000E+03 0.  0.
         25    1    1    2    0    0 -0.14793711643E+03  0.31596319861E+02  0.31577355973E+03  0.37178173553E+03  0.12500000000E+03 0.  0.
</event>
<event>
 5    0  0.5668330E-005  0.2251514E+03  0.7546771E-02  0.1130100E+00
         21   -1    0    0  502  501  0.00000000000E+00  0.00000000000E+00  0.13899787864E+03  0.13899787864E+03  0.00000000000E+00 0. -1.
         21   -1    0    0  501  502 -0.00000000000E+00 -0.00000000000E+00 -0.36470456122E+03  0.36470456122E+03  0.00000000000E+00 0. -1.
         25    1    1    2    0    0 -0.41004589952E+02 -0.16516638156E+02 -0.13831034212E+02  0.13330593850E+03  0.12500000000E+03 0.  0.
         25    1    1    2    0    0  0.97427236874E+02  0.39381012446E+02 -0.13251290583E+03  0.21030359207E+03  0.12500000000E+03 0.  0.
         25    1    1    2    0    0 -0.56422646922E+02 -0.22864374289E+02 -0.79362742537E+02  0.16009290928E+03  0.12500000000E+03 0.  0.
</event>
<event>
 5    0  0.5668330E-005  0.2504020E+03  0.7546771E-02  0.1113051E+00
         21   -1    0    0  502  501  0.00000000000E+00  0.00000000000E+00  0.50144323313E+03  0.50144323313E+03  0.00000000000E+00 0.  1.
         21   -1    0    0  501  502 -0.00000000000E+00 -0.00000000000E+00 -0.12504136230E+03  0.12504136230E+03  0.00000000000E+00 0.  1.
         25    1    1    2    0    0 -0.13793397547E+02  0.45187415047E+02  0.11296176561E+03  0.17497862951E+03  0.12500000000E+03 0.  0.
         25    1    1    2    0    0  0.62021202866E+02 -0.13107581785E+03  0.76934766732E+02  0.20632851951E+03  0.12500000000E+03 0.  0.
         25    1    1    2    0    0 -0.48227805319E+02  0.85888402804E+02  0.18650533849E+03  0.24517744641E+03  0.12500000000E+03 0.  0.
</event>
<event>
 5    0  0.5668330E-005  0.8428957E+03  0.7546771E-02  0.9499922E-01
         21   -1    0    0  502  501  0.00000000000E+00  0.00000000000E+00  0.45833011485E+03  0.45833011485E+03  0.00000000000E+00 0. -1.
         21   -1    0    0  501  502 -0.00000000000E+00 -0.00000000000E+00 -0.15501339873E+04  0.15501339873E+04  0.00000000000E+00 0. -1.
         25    1    1    2    0    0 -0.20400598499E+03  0.12233974159E+03 -0.14511740987E+03  0.30540058436E+03  0.12500000000E+03 0.  0.
         25    1    1    2    0    0 -0.43170713247E+03 -0.24767391745E+02  0.10664847080E+03  0.46258336356E+03  0.12500000000E+03 0.  0.
         25    1    1    2    0    0  0.63571311746E+03 -0.97572349841E+02 -0.10533349334E+04  0.12404801543E+04  0.12500000000E+03 0.  0.
</event>
<event>
 5    0  0.5668330E-005  0.2263818E+03  0.7546771E-02  0.1129213E+00
         21   -1    0    0  502  501  0.00000000000E+00  0.00000000000E+00  0.96457401057E+02  0.96457401057E+02  0.00000000000E+00 0. -1.
         21   -1    0    0  501  502 -0.00000000000E+00 -0.00000000000E+00 -0.53130940069E+03  0.53130940069E+03  0.00000000000E+00 0. -1.
         25    1    1    2    0    0  0.79735165808E+02  0.40350899966E+02 -0.21423367383E+03  0.26364172431E+03  0.12500000000E+03 0.  0.
         25    1    1    2    0    0 -0.52362502239E+01  0.28061707864E+02 -0.11019297752E+03  0.16906321321E+03  0.12500000000E+03 0.  0.
         25    1    1    2    0    0 -0.74498915584E+02 -0.68412607829E+02 -0.11042534827E+03  0.19506186422E+03  0.12500000000E+03 0.  0.
</event>
<event>
 5    0  0.5668330E-005  0.3236650E+03  0.7546771E-02  0.1073975E+00
         21   -1    0    0  502  501  0.00000000000E+00  0.00000000000E+00  0.98036455562E+02  0.98036455562E+02  0.00000000000E+00 0. -1.
         21   -1    0    0  501  502 -0.00000000000E+00 -0.00000000000E+00 -0.10685718914E+04  0.10685718914E+04  0.00000000000E+00 0. -1.
         25    1    1    2    0    0  0.50553747745E+02  0.54651919362E+02 -0.52162468894E+03  0.54153469862E+03  0.12500000000E+03 0.  0.
         25    1    1    2    0    0 -0.94822828464E+02  0.28678520704E+02 -0.44021273861E+03  0.46821584935E+03  0.12500000000E+03 0.  0.
         25    1    1    2    0    0  0.44269080720E+02 -0.83330440066E+02 -0.86980082667E+01  0.15685779897E+03  0.12500000000E+03 0.  0.
</event>
<event>
 5    0  0.5668330E-005  0.2921953E+03  0.7546771E-02  0.1089209E+00
         21   -1    0    0  502  501  0.00000000000E+00  0.00000000000E+00  0.60721586326E+02  0.60721586326E+02  0.00000000000E+00 0. -1.
         21   -1    0    0  501  502 -0.00000000000E+00 -0.00000000000E+00 -0.14060581839E+04  0.14060581839E+04  0.00000000000E+00 0. -1.
         25    1    1    2    0    0 -0.69713161132E+01 -0.16218800228E+02 -0.40647915600E+02  0.13262315700E+03  0.12500000000E+03 0.  0.
         25    1    1    2    0    0  0.56127142726E+02 -0.73514892038E+01 -0.52525594917E+03  0.54288406928E+03  0.12500000000E+03 0.  0.
         25    1    1    2    0    0 -0.49155826613E+02  0.23570289432E+02 -0.77943273282E+03  0.79127254397E+03  0.12500000000E+03 0.  0.
</event>
<event>
 5    0  0.5668330E-005  0.1966346E+03  0.7546771E-02  0.1152610E+00
         21   -1    0    0  502  501  0.00000000000E+00  0.00000000000E+00  0.79003411769E+03  0.79003411769E+03  0.00000000000E+00 0. -1.
         21   -1    0    0  501  502 -0.00000000000E+00 -0.00000000000E+00 -0.48941117783E+02  0.48941117783E+02  0.00000000000E+00 0. -1.
         25    1    1    2    0    0  0.19792645370E+01 -0.38216361872E+01  0.14958177480E+03  0.19498263960E+03  0.12500000000E+03 0.  0.
         25    1    1    2    0    0 -0.21266615693E+02 -0.21402877202E+01  0.32726761213E+03  0.35097854596E+03  0.12500000000E+03 0.  0.
         25    1    1    2    0    0  0.19287351156E+02  0.59619239073E+01  0.26424361297E+03  0.29301404992E+03  0.12500000000E+03 0.  0.
</event>
<event>
 5    0  0.5668330E-005  0.4257783E+03  0.7546771E-02  0.1035202E+00
         21   -1    0    0  502  501  0.00000000000E+00  0.00000000000E+00  0.26175493384E+04  0.26175493384E+04  0.00000000000E+00 0. -1.
         21   -1    0    0  501  502 -0.00000000000E+00 -0.00000000000E+00 -0.69258350404E+02  0.69258350404E+02  0.00000000000E+00 0. -1.
         25    1    1    2    0    0 -0.62471301487E+02 -0.14320755686E+03  0.26283224362E+03  0.33032840650E+03  0.12500000000E+03 0.  0.
         25    1    1    2    0    0  0.19559061094E+03  0.13115733807E+03  0.19980019247E+04  0.20157119401E+04  0.12500000000E+03 0.  0.
         25    1    1    2    0    0 -0.13311930945E+03  0.12050218785E+02  0.28745681960E+03  0.34076734212E+03  0.12500000000E+03 0.  0.
</event>
<event>
 5    0  0.5668330E-005  0.3128610E+03  0.7546771E-02  0.1078983E+00
         21   -1    0    0  502  501  0.00000000000E+00  0.00000000000E+00  0.22323009469E+03  0.22323009469E+03  0.00000000000E+00 0.  1.
         21   -1    0    0  501  502 -0.00000000000E+00 -0.00000000000E+00 -0.43848031557E+03  0.43848031557E+03  0.00000000000E+00 0.  1.
         25    1    1    2    0    0 -0.85237098146E+02 -0.45618243605E+02 -0.28420117040E+03  0.32517947707E+03  0.12500000000E+03 0.  0.
         25    1    1    2    0    0  0.66497636344E+02 -0.51681622151E+02 -0.22917369318E+02  0.15245698254E+03  0.12500000000E+03 0.  0.
         25    1    1    2    0    0  0.18739461802E+02  0.97299865756E+02  0.91868318837E+02  0.18407395066E+03  0.12500000000E+03 0.  0.
</event>
<event>
 5    0  0.5668330E-005  0.3757729E+03  0.7546771E-02  0.1052507E+00
         21   -1    0    0  502  501  0.00000000000E+00  0.00000000000E+00  0.44603023597E+03  0.44603023597E+03  0.00000000000E+00 0.  1.
         21   -1    0    0  501  502 -0.00000000000E+00 -0.00000000000E+00 -0.31658221331E+03  0.31658221331E+03  0.00000000000E+00 0.  1.
         25    1    1    2    0    0  0.13579238826E+03 -0.19059223559E+03  0.23632073406E+03  0.35529911670E+03  0.12500000000E+03 0.  0.
         25    1    1    2    0    0 -0.49316637011E+02  0.13806702764E+03 -0.14608408975E+03  0.24178543398E+03  0.12500000000E+03 0.  0.
         25    1    1    2    0    0 -0.86475751251E+02  0.52525207950E+02  0.39211378346E+02  0.16552789860E+03  0.12500000000E+03 0.  0.
</event>
<event>
 5    0  0.5668330E-005  0.2505875E+03  0.7546771E-02  0.1112934E+00
         21   -1    0    0  502  501  0.00000000000E+00  0.00000000000E+00  0.15771023768E+03  0.15771023768E+03  0.00000000000E+00 0. -1.
         21   -1    0    0  501  502 -0.00000000000E+00 -0.00000000000E+00 -0.39816123863E+03  0.39816123863E+03  0.00000000000E+00 0. -1.
         25    1    1    2    0    0 -0.11529316527E+03 -0.30607174711E+02 -0.72251215215E+02  0.18728200982E+03  0.12500000000E+03 0.  0.
         25    1    1    2    0    0  0.77895151255E+02  0.84707279844E+01  0.85627120710E+01  0.14777593803E+03  0.12500000000E+03 0.  0.
         25    1    1    2    0    0  0.37398014014E+02  0.22136446727E+02 -0.17676249780E+03  0.22081352847E+03  0.12500000000E+03 0.  0.
</event>
<event>
 5    0  0.5668330E-005  0.2434191E+03  0.7546771E-02  0.1117536E+00
         21   -1    0    0  502  501  0.00000000000E+00  0.00000000000E+00  0.14774959138E+03  0.14774959138E+03  0.00000000000E+00 0.  1.
         21   -1    0    0  501  502 -0.00000000000E+00 -0.00000000000E+00 -0.40103574537E+03  0.40103574537E+03  0.00000000000E+00 0.  1.
         25    1    1    2    0    0 -0.31888610056E+02  0.13110739729E+03 -0.10106387322E+03  0.20986886273E+03  0.12500000000E+03 0.  0.
         25    1    1    2    0    0  0.14587578083E+02 -0.12315400195E+03 -0.95821920563E+02  0.20046582275E+03  0.12500000000E+03 0.  0.
         25    1    1    2    0    0  0.17301031973E+02 -0.79533953389E+01 -0.56400360207E+02  0.13845065127E+03  0.12500000000E+03 0.  0.
</event>
<event>
 5    0  0.5668330E-005  0.4216547E+03  0.7546771E-02  0.1036529E+00
         21   -1    0    0  502  501  0.00000000000E+00  0.00000000000E+00  0.38393207514E+03  0.38393207514E+03  0.00000000000E+00 0. -1.
         21   -1    0    0  501  502 -0.00000000000E+00 -0.00000000000E+00 -0.46308373814E+03  0.46308373814E+03  0.00000000000E+00 0. -1.
         25    1    1    2    0    0 -0.13135148313E+03  0.31289103575E+03  0.47048584001E+02  0.36468147969E+03  0.12500000000E+03 0.  0.
         25    1    1    2    0    0  0.38851078168E+02 -0.78529197529E+02  0.37119398381E+02  0.15709580158E+03  0.12500000000E+03 0.  0.
         25    1    1    2    0    0  0.92500404965E+02 -0.23436183822E+03 -0.16331964538E+03  0.32523853201E+03  0.12500000000E+03 0.  0.
</event>
<event>
 5    0  0.5668330E-005  0.2685248E+03  0.7546771E-02  0.1102127E+00
         21   -1    0    0  502  501  0.00000000000E+00  0.00000000000E+00  0.81488756128E+02  0.81488756128E+02  0.00000000000E+00 0. -1.
         21   -1    0    0  501  502 -0.00000000000E+00 -0.00000000000E+00 -0.88485309556E+03  0.88485309556E+03  0.00000000000E+00 0. -1.
         25    1    1    2    0    0 -0.10600999873E+03 -0.10325924706E+03 -0.29379797726E+03  0.35191311907E+03  0.12500000000E+03 0.  0.
         25    1    1    2    0    0  0.17428672642E+01  0.12766980896E+03 -0.26951556818E+03  0.32336706573E+03  0.12500000000E+03 0.  0.
         25    1    1    2    0    0  0.10426713146E+03 -0.24410561893E+02 -0.24005079399E+03  0.29106166689E+03  0.12500000000E+03 0.  0.
</event>
<event>
 5    0  0.5668330E-005  0.4104396E+03  0.7546771E-02  0.1040224E+00
         21   -1    0    0  502  501  0.00000000000E+00  0.00000000000E+00  0.61940026241E+03  0.61940026241E+03  0.00000000000E+00 0.  1.
         21   -1    0    0  501  502 -0.00000000000E+00 -0.00000000000E+00 -0.27197388033E+03  0.27197388033E+03  0.00000000000E+00 0.  1.
         25    1    1    2    0    0  0.15584756661E+03  0.47026534144E+02 -0.40706636316E+02  0.20924146141E+03  0.12500000000E+03 0.  0.
         25    1    1    2    0    0 -0.29710375128E+03 -0.48590644299E+02  0.36927239148E+03  0.49256348712E+03  0.12500000000E+03 0.  0.
         25    1    1    2    0    0  0.14125618467E+03  0.15641101547E+01  0.18860626914E+02  0.18956919422E+03  0.12500000000E+03 0.  0.
</event>
<event>
 5    0  0.5668330E-005  0.2098087E+03  0.7546771E-02  0.1141718E+00
         21   -1    0    0  502  501  0.00000000000E+00  0.00000000000E+00  0.56835966847E+02  0.56835966847E+02  0.00000000000E+00 0. -1.
         21   -1    0    0  501  502 -0.00000000000E+00 -0.00000000000E+00 -0.77450422897E+03  0.77450422897E+03  0.00000000000E+00 0. -1.
         25    1    1    2    0    0  0.10844232915E+02  0.11534175195E+02 -0.42035881568E+03  0.43883615223E+03  0.12500000000E+03 0.  0.
         25    1    1    2    0    0  0.56768192253E+01 -0.19649927960E+02 -0.17996531485E+03  0.22007012631E+03  0.12500000000E+03 0.  0.
         25    1    1    2    0    0 -0.16521052140E+02  0.81157527645E+01 -0.11734413159E+03  0.17243391727E+03  0.12500000000E+03 0.  0.
</event>
<event>
 5    0  0.5668330E-005  0.2295068E+03  0.7546771E-02  0.1126987E+00
         21   -1    0    0  502  501  0.00000000000E+00  0.00000000000E+00  0.91730454407E+03  0.91730454407E+03  0.00000000000E+00 0.  1.
         21   -1    0    0  501  502 -0.00000000000E+00 -0.00000000000E+00 -0.57421901648E+02  0.57421901648E+02  0.00000000000E+00 0.  1.
         25    1    1    2    0    0 -0.90994049334E+01  0.18940471549E+02  0.10800134970E+03  0.16652577029E+03  0.12500000000E+03 0.  0.
         25    1    1    2    0    0  0.54971493999E+02 -0.30614226189E+02  0.53871571830E+03  0.55659565318E+03  0.12500000000E+03 0.  0.
         25    1    1    2    0    0 -0.45872089066E+02  0.11673754640E+02  0.21316557442E+03  0.25160502225E+03  0.12500000000E+03 0.  0.
</event>
<event>
 5    0  0.5668330E-005  0.4585924E+03  0.7546771E-02  0.1025190E+00
         21   -1    0    0  502  501  0.00000000000E+00  0.00000000000E+00  0.39382927992E+03  0.39382927992E+03  0.00000000000E+00 0. -1.
         21   -1    0    0  501  502 -0.00000000000E+00 -0.00000000000E+00 -0.53400548445E+03  0.53400548445E+03  0.00000000000E+00 0. -1.
         25    1    1    2    0    0 -0.12930967454E+03  0.46230191853E+02 -0.95866854316E+02  0.20898247851E+03  0.12500000000E+03 0.  0.
         25    1    1    2    0    0  0.23461092107E+03 -0.28585677519E+03 -0.13800280150E+03  0.41403641558E+03  0.12500000000E+03 0.  0.
         25    1    1    2    0    0 -0.10530124654E+03  0.23962658333E+03  0.93693451284E+02  0.30481587028E+03  0.12500000000E+03 0.  0.
</event>
<event>
 5    0  0.5668330E-005  0.3303408E+03  0.7546771E-02  0.1070986E+00
         21   -1    0    0  502  501  0.00000000000E+00  0.00000000000E+00  0.70202692544E+03  0.70202692544E+03  0.00000000000E+00 0.  1.
         21   -1    0    0  501  502 -0.00000000000E+00 -0.00000000000E+00 -0.15544285308E+03  0.15544285308E+03  0.00000000000E+00 0.  1.
         25    1    1    2    0    0  0.11951210850E+03  0.56932188428E+02  0.25044226659E+03  0.30963001639E+03  0.12500000000E+03 0.  0.
         25    1    1    2    0    0  0.70624076020E+02  0.83554291967E+02  0.20816428271E+03  0.26632019904E+03  0.12500000000E+03 0.  0.
         25    1    1    2    0    0 -0.19013618452E+03 -0.14048648040E+03  0.87977523070E+02  0.28151956309E+03  0.12500000000E+03 0.  0.
</event>
<event>
 5    0  0.5668330E-005  0.3651426E+03  0.7546771E-02  0.1056566E+00
         21   -1    0    0  502  501  0.00000000000E+00  0.00000000000E+00  0.94003032651E+03  0.94003032651E+03  0.00000000000E+00 0.  1.
         21   -1    0    0  501  502 -0.00000000000E+00 -0.00000000000E+00 -0.14183492382E+03  0.14183492382E+03  0.00000000000E+00 0.  1.
         25    1    1    2    0    0 -0.75326208560E+02 -0.45203161010E+02  0.24728215768E+02  0.15477030761E+03  0.12500000000E+03 0.  0.
         25    1    1    2    0    0  0.45949171705E+01 -0.66907609918E+02  0.10020693414E+02  0.14220814261E+03  0.12500000000E+03 0.  0.
         25    1    1    2    0    0  0.70731291389E+02  0.11211077093E+03  0.76344649351E+03  0.78488680011E+03  0.12500000000E+03 0.  0.
</event>
<event>
 5    0  0.5668330E-005  0.3038127E+03  0.7546771E-02  0.1083350E+00
         21   -1    0    0  502  501  0.00000000000E+00  0.00000000000E+00  0.13251331567E+03  0.13251331567E+03  0.00000000000E+00 0. -1.
         21   -1    0    0  501  502 -0.00000000000E+00 -0.00000000000E+00 -0.69654990653E+03  0.69654990653E+03  0.00000000000E+00 0. -1.
         25    1    1    2    0    0 -0.43729678211E+02  0.20267513644E+03 -0.36587641837E+03  0.43872548275E+03  0.12500000000E+03 0.  0.
         25    1    1    2    0    0  0.27680473735E+02 -0.75614984054E+02 -0.13418510357E+03  0.20028598668E+03  0.12500000000E+03 0.  0.
         25    1    1    2    0    0  0.16049204476E+02 -0.12706015239E+03 -0.63975068914E+02  0.19005175277E+03  0.12500000000E+03 0.  0.
</event>
<event>
 5    0  0.5668330E-005  0.3167085E+03  0.7546771E-02  0.1077174E+00
         21   -1    0    0  502  501  0.00000000000E+00  0.00000000000E+00  0.47549631518E+02  0.47549631518E+02  0.00000000000E+00 0.  1.
         21   -1    0    0  501  502 -0.00000000000E+00 -0.00000000000E+00 -0.21094646593E+04  0.21094646593E+04  0.00000000000E+00 0.  1.
         25    1    1    2    0    0  0.42658203266E+02 -0.35126333392E+02 -0.18799789805E+03  0.23242588340E+03  0.12500000000E+03 0.  0.
         25    1    1    2    0    0  0.57778769499E+02  0.17675847331E+03 -0.90397842745E+03  0.93133449490E+03  0.12500000000E+03 0.  0.
         25    1    1    2    0    0 -0.10043697277E+03 -0.14163213992E+03 -0.96993870230E+03  0.99325391254E+03  0.12500000000E+03 0.  0.
</event>
<event>
 5    0  0.5668330E-005  0.3617756E+03  0.7546771E-02  0.1057883E+00
         21   -1    0    0  502  501  0.00000000000E+00  0.00000000000E+00  0.37059704325E+04  0.37059704325E+04  0.00000000000E+00 0.  1.
         21   -1    0    0  501  502 -0.00000000000E+00 -0.00000000000E+00 -0.35316405698E+02  0.35316405698E+02  0.00000000000E+00 0.  1.
         25    1    1    2    0    0  0.11028542424E+03 -0.19838560297E+03  0.22393753981E+04  0.22543173902E+04  0.12500000000E+03 0.  0.
         25    1    1    2    0    0 -0.30699268486E+02 -0.64026179727E+01  0.73529102156E+03  0.74649938044E+03  0.12500000000E+03 0.  0.
         25    1    1    2    0    0 -0.79586155751E+02  0.20478822094E+03  0.69598760714E+03  0.74047006754E+03  0.12500000000E+03 0.  0.
</event>
<event>
 5    0  0.5668330E-005  0.2362467E+03  0.7546771E-02  0.1122319E+00
         21   -1    0    0  502  501  0.00000000000E+00  0.00000000000E+00  0.86134125731E+03  0.86134125731E+03  0.00000000000E+00 0.  1.
         21   -1    0    0  501  502 -0.00000000000E+00 -0.00000000000E+00 -0.64797175883E+02  0.64797175883E+02  0.00000000000E+00 0.  1.
         25    1    1    2    0    0  0.36086025528E+02  0.79676402919E+02  0.45057701318E+03  0.47570492454E+03  0.12500000000E+03 0.  0.
         25    1    1    2    0    0 -0.49508734129E+01  0.15333144585E+02  0.12431769683E+03  0.17702967608E+03  0.12500000000E+03 0.  0.
         25    1    1    2    0    0 -0.31135152115E+02 -0.95009547504E+02  0.22164937142E+03  0.27340383257E+03  0.12500000000E+03 0.  0.
</event>
<event>
 5    0  0.5668330E-005  0.2414260E+03  0.7546771E-02  0.1118846E+00
         21   -1    0    0  502  501  0.00000000000E+00  0.00000000000E+00  0.79153842966E+02  0.79153842966E+02  0.00000000000E+00 0. -1.
         21   -1    0    0  501  502 -0.00000000000E+00 -0.00000000000E+00 -0.73637010757E+03  0.73637010757E+03  0.00000000000E+00 0. -1.
         25    1    1    2    0    0  0.17536976633E+02 -0.20433167493E+02 -0.22392806521E+02  0.12981331853E+03  0.12500000000E+03 0.  0.
         25    1    1    2    0    0 -0.81937306943E+01 -0.14993059960E+02 -0.26215309340E+03  0.29093156145E+03  0.12500000000E+03 0.  0.
         25    1    1    2    0    0 -0.93432459389E+01  0.35426227453E+02 -0.37267036468E+03  0.39477907055E+03  0.12500000000E+03 0.  0.
</event>
<event>
 5    0  0.5668330E-005  0.4177899E+03  0.7546771E-02  0.1037788E+00
         21   -1    0    0  502  501  0.00000000000E+00  0.00000000000E+00  0.18716468037E+03  0.18716468037E+03  0.00000000000E+00 0. -1.
         21   -1    0    0  501  502 -0.00000000000E+00 -0.00000000000E+00 -0.93259271411E+03  0.93259271411E+03  0.00000000000E+00 0.  1.
         25    1    1    2    0    0  0.23866657294E+03 -0.23464344783E+03 -0.21122706784E+03  0.41504355776E+03  0.12500000000E+03 0.  0.
         25    1    1    2    0    0 -0.45678980848E+02  0.50941545621E+01 -0.12990732943E+03  0.18604685953E+03  0.12500000000E+03 0.  0.
         25    1    1    2    0    0 -0.19298759210E+03  0.22954929327E+03 -0.40429363647E+03  0.51866697719E+03  0.12500000000E+03 0.  0.
</event>
<event>
 5    0  0.5668330E-005  0.4942220E+03  0.7546771E-02  0.1015298E+00
         21   -1    0    0  502  501  0.00000000000E+00  0.00000000000E+00  0.22251451460E+03  0.22251451460E+03  0.00000000000E+00 0.  1.
         21   -1    0    0  501  502 -0.00000000000E+00 -0.00000000000E+00 -0.10977056003E+04  0.10977056003E+04  0.00000000000E+00 0.  1.
         25    1    1    2    0    0 -0.29984581435E+03 -0.18340331699E+03 -0.24699535197E+03  0.44741031834E+03  0.12500000000E+03 0.  0.
         25    1    1    2    0    0  0.88046358552E+02 -0.12565329130E+03 -0.12889695334E+03  0.23617860921E+03  0.12500000000E+03 0.  0.
         25    1    1    2    0    0  0.21179945579E+03  0.30905660829E+03 -0.49929878038E+03  0.63663118734E+03  0.12500000000E+03 0.  0.
</event>
<event>
 5    0  0.6525240E-005  0.5455277E+03  0.7546771E-02  0.1002534E+00
         21   -1    0    0  502  501  0.00000000000E+00  0.00000000000E+00  0.85456428706E+03  0.85456428706E+03  0.00000000000E+00 0.  1.
         21   -1    0    0  501  502 -0.00000000000E+00 -0.00000000000E+00 -0.34824813858E+03  0.34824813858E+03  0.00000000000E+00 0.  1.
         25    1    1    2    0    0 -0.80511836865E+02  0.22469790492E+03  0.19181824290E+03  0.33074241135E+03  0.12500000000E+03 0.  0.
         25    1    1    2    0    0  0.28172454564E+03 -0.75381696559E+02  0.45820044206E+03  0.55733631219E+03  0.12500000000E+03 0.  0.
         25    1    1    2    0    0 -0.20121270877E+03 -0.14931620837E+03 -0.14370253648E+03  0.31473370211E+03  0.12500000000E+03 0.  0.
</event>
<event>
 5    0  0.5668330E-005  0.5389856E+03  0.7546771E-02  0.1004076E+00
         21   -1    0    0  502  501  0.00000000000E+00  0.00000000000E+00  0.73968492356E+03  0.73968492356E+03  0.00000000000E+00 0. -1.
         21   -1    0    0  501  502 -0.00000000000E+00 -0.00000000000E+00 -0.39274222300E+03  0.39274222300E+03  0.00000000000E+00 0. -1.
         25    1    1    2    0    0  0.27945419806E+03  0.97417853830E+02 -0.39797266552E+02  0.32371856524E+03  0.12500000000E+03 0.  0.
         25    1    1    2    0    0 -0.40977550149E+03  0.30867185417E+02  0.90746162589E+02  0.43900866823E+03  0.12500000000E+03 0.  0.
         25    1    1    2    0    0  0.13032130343E+03 -0.12828503925E+03  0.29599380453E+03  0.36969991309E+03  0.12500000000E+03 0.  0.
</event>
<event>
 5    0  0.5668330E-005  0.3035144E+03  0.7546771E-02  0.1083497E+00
         21   -1    0    0  502  501  0.00000000000E+00  0.00000000000E+00  0.53809951990E+03  0.53809951990E+03  0.00000000000E+00 0. -1.
         21   -1    0    0  501  502 -0.00000000000E+00 -0.00000000000E+00 -0.17119698082E+03  0.17119698082E+03  0.00000000000E+00 0. -1.
         25    1    1    2    0    0 -0.42147187702E+02  0.61417425443E+02  0.32569711815E+03  0.35672412078E+03  0.12500000000E+03 0.  0.
         25    1    1    2    0    0 -0.22460310603E+02 -0.37645788690E+02  0.12910307916E+03  0.18497101397E+03  0.12500000000E+03 0.  0.
         25    1    1    2    0    0  0.64607498304E+02 -0.23771636754E+02 -0.87897658233E+02  0.16760136597E+03  0.12500000000E+03 0.  0.
</event>
<event>
 5    0  0.6926937E-005  0.5195316E+03  0.7546771E-02  0.1008803E+00
         21   -1    0    0  502  501  0.00000000000E+00  0.00000000000E+00  0.66620557296E+03  0.66620557296E+03  0.00000000000E+00 0.  1.
         21   -1    0    0  501  502 -0.00000000000E+00 -0.00000000000E+00 -0.40514984709E+03  0.40514984709E+03  0.00000000000E+00 0.  1.
         25    1    1    2    0    0  0.29473714263E+03 -0.75415742179E+02  0.16395978222E+03  0.36751235027E+03  0.12500000000E+03 0.  0.
         25    1    1    2    0    0 -0.18137820179E+03  0.27797648417E+03  0.21531039797E+03  0.41491269601E+03  0.12500000000E+03 0.  0.
         25    1    1    2    0    0 -0.11335894084E+03 -0.20256074200E+03 -0.11821445433E+03  0.28893037376E+03  0.12500000000E+03 0.  0.
</event>
<event>
 5    0  0.5668330E-005  0.2574184E+03  0.7546771E-02  0.1108704E+00
         21   -1    0    0  502  501  0.00000000000E+00  0.00000000000E+00  0.95750472842E+02  0.95750472842E+02  0.00000000000E+00 0.  1.
         21   -1    0    0  501  502 -0.00000000000E+00 -0.00000000000E+00 -0.69205136005E+03  0.69205136005E+03  0.00000000000E+00 0.  1.
         25    1    1    2    0    0  0.12035455339E+03  0.47216965217E+02 -0.21194999966E+03  0.27796126111E+03  0.12500000000E+03 0.  0.
         25    1    1    2    0    0  0.18375593006E+02  0.34226273246E+02 -0.16193292541E+03  0.20822193096E+03  0.12500000000E+03 0.  0.
         25    1    1    2    0    0 -0.13873014639E+03 -0.81443238463E+02 -0.22241796214E+03  0.30161864082E+03  0.12500000000E+03 0.  0.
</event>
<event>
 5    0  0.5668330E-005  0.2880499E+03  0.7546771E-02  0.1091372E+00
         21   -1    0    0  502  501  0.00000000000E+00  0.00000000000E+00  0.69254726818E+02  0.69254726818E+02  0.00000000000E+00 0.  1.
         21   -1    0    0  501  502 -0.00000000000E+00 -0.00000000000E+00 -0.11980806059E+04  0.11980806059E+04  0.00000000000E+00 0.  1.
         25    1    1    2    0    0 -0.70598375616E+02  0.17266233265E+03 -0.47644327693E+03  0.52670637730E+03  0.12500000000E+03 0.  0.
         25    1    1    2    0    0  0.77858207750E+02 -0.15848782491E+02 -0.24022671844E+03  0.28221793117E+03  0.12500000000E+03 0.  0.
         25    1    1    2    0    0 -0.72598321340E+01 -0.15681355016E+03 -0.41215588373E+03  0.45841102427E+03  0.12500000000E+03 0.  0.
</event>
<event>
 5    0  0.5668330E-005  0.3326763E+03  0.7546771E-02  0.1069959E+00
         21   -1    0    0  502  501  0.00000000000E+00  0.00000000000E+00  0.98210139700E+02  0.98210139700E+02  0.00000000000E+00 0. -1.
         21   -1    0    0  501  502 -0.00000000000E+00 -0.00000000000E+00 -0.11269055216E+04  0.11269055216E+04  0.00000000000E+00 0. -1.
         25    1    1    2    0    0 -0.78476407062E+02  0.40745633173E+02 -0.33301618155E+02  0.15669317426E+03  0.12500000000E+03 0.  0.
         25    1    1    2    0    0  0.35032260773E+02  0.11009040305E+03 -0.61785460504E+03  0.64087164792E+03  0.12500000000E+03 0.  0.
         25    1    1    2    0    0  0.43444146289E+02 -0.15083603623E+03 -0.37753915866E+03  0.42755083908E+03  0.12500000000E+03 0.  0.
</event>
<event>
 5    0  0.5668330E-005  0.3470875E+03  0.7546771E-02  0.1063817E+00
         21   -1    0    0  502  501  0.00000000000E+00  0.00000000000E+00  0.21321389270E+03  0.21321389270E+03  0.00000000000E+00 0. -1.
         21   -1    0    0  501  502 -0.00000000000E+00 -0.00000000000E+00 -0.56501808714E+03  0.56501808714E+03  0.00000000000E+00 0. -1.
         25    1    1    2    0    0 -0.18548591701E+02 -0.16043439948E+03 -0.33741841263E+02  0.20699458602E+03  0.12500000000E+03 0.  0.
         25    1    1    2    0    0 -0.86810172344E+02  0.21015729805E+02  0.35343770297E+02  0.15764469233E+03  0.12500000000E+03 0.  0.
         25    1    1    2    0    0  0.10535876404E+03  0.13941866968E+03 -0.35340612347E+03  0.41359270149E+03  0.12500000000E+03 0.  0.
</event>
<event>
 5    0  0.5668330E-005  0.3226953E+03  0.7546771E-02  0.1074416E+00
         21   -1    0    0  502  501  0.00000000000E+00  0.00000000000E+00  0.12018351197E+03  0.12018351197E+03  0.00000000000E+00 0.  1.
         21   -1    0    0  501  502 -0.00000000000E+00 -0.00000000000E+00 -0.86644354562E+03  0.86644354562E+03  0.00000000000E+00 0.  1.
         25    1    1    2    0    0  0.12653043509E+03  0.20435687872E+02 -0.34546048257E+03  0.38909576374E+03  0.12500000000E+03 0.  0.
         25    1    1    2    0    0 -0.18498380683E+03 -0.36552012516E+02 -0.66951370707E+02  0.23592910894E+03  0.12500000000E+03 0.  0.
         25    1    1    2    0    0  0.58453371735E+02  0.16116324644E+02 -0.33384818037E+03  0.36160218490E+03  0.12500000000E+03 0.  0.
</event>
<event>
 5    0  0.5668330E-005  0.2504074E+03  0.7546771E-02  0.1113048E+00
         21   -1    0    0  502  501  0.00000000000E+00  0.00000000000E+00  0.99493327813E+03  0.99493327813E+03  0.00000000000E+00 0.  1.
         21   -1    0    0  501  502 -0.00000000000E+00 -0.00000000000E+00 -0.63023181082E+02  0.63023181082E+02  0.00000000000E+00 0.  1.
         25    1    1    2    0    0  0.12426407558E+03  0.11945000019E+02  0.52010794049E+03  0.54929182887E+03  0.12500000000E+03 0.  0.
         25    1    1    2    0    0 -0.10625857316E+03  0.20145648906E+02  0.26548944250E+03  0.31274010875E+03  0.12500000000E+03 0.  0.
         25    1    1    2    0    0 -0.18005502422E+02 -0.32090648925E+02  0.14631271406E+03  0.19592452160E+03  0.12500000000E+03 0.  0.
</event>
<event>
 5    0  0.5668330E-005  0.3616449E+03  0.7546771E-02  0.1057934E+00
         21   -1    0    0  502  501  0.00000000000E+00  0.00000000000E+00  0.37913040308E+03  0.37913040308E+03  0.00000000000E+00 0.  1.
         21   -1    0    0  501  502 -0.00000000000E+00 -0.00000000000E+00 -0.34496578369E+03  0.34496578369E+03  0.00000000000E+00 0.  1.
         25    1    1    2    0    0  0.65313371706E+02  0.10331149925E+03 -0.90407286921E+02  0.19681864731E+03  0.12500000000E+03 0.  0.
         25    1    1    2    0    0  0.42007438643E+02 -0.24548529839E+03  0.44221417480E+01  0.27869734833E+03  0.12500000000E+03 0.  0.
         25    1    1    2    0    0 -0.10732081035E+03  0.14217379914E+03  0.12014976456E+03  0.24858019113E+03  0.12500000000E+03 0.  0.
</event>
<event>
 5    0  0.5668330E-005  0.2637451E+03  0.7546771E-02  0.1104914E+00
         21   -1    0    0  502  501  0.00000000000E+00  0.00000000000E+00  0.26435340529E+03  0.26435340529E+03  0.00000000000E+00 0. -1.
         21   -1    0    0  501  502 -0.00000000000E+00 -0.00000000000E+00 -0.26313817015E+03  0.26313817015E+03  0.00000000000E+00 0. -1.
         25    1    1    2    0    0  0.78194560124E+02  0.26461582690E+02  0.93833526621E+02  0.17676067241E+03  0.12500000000E+03 0.  0.
         25    1    1    2    0    0 -0.81143757542E+02 -0.49485442439E+02 -0.14451738020E+03  0.21340897727E+03  0.12500000000E+03 0.  0.
         25    1    1    2    0    0  0.29491974184E+01  0.23023859749E+02  0.51899088721E+02  0.13732192576E+03  0.12500000000E+03 0.  0.
</event>
<event>
 5    0  0.5668330E-005  0.2388768E+03  0.7546771E-02  0.1120543E+00
         21   -1    0    0  502  501  0.00000000000E+00  0.00000000000E+00  0.12107222879E+03  0.12107222879E+03  0.00000000000E+00 0.  1.
         21   -1    0    0  501  502 -0.00000000000E+00 -0.00000000000E+00 -0.47130651400E+03  0.47130651400E+03  0.00000000000E+00 0.  1.
         25    1    1    2    0    0 -0.61957278388E+02 -0.11234933863E+02 -0.82487014566E+02  0.16246241306E+03  0.12500000000E+03 0.  0.
         25    1    1    2    0    0 -0.37305391453E+02 -0.75818810047E+02 -0.15321427008E+03  0.21503440828E+03  0.12500000000E+03 0.  0.
         25    1    1    2    0    0  0.99262669841E+02  0.87053743910E+02 -0.11453300057E+03  0.21488192146E+03  0.12500000000E+03 0.  0.
</event>
<event>
 5    0  0.5668330E-005  0.2275937E+03  0.7546771E-02  0.1128345E+00
         21   -1    0    0  502  501  0.00000000000E+00  0.00000000000E+00  0.14603017416E+03  0.14603017416E+03  0.00000000000E+00 0.  1.
         21   -1    0    0  501  502 -0.00000000000E+00 -0.00000000000E+00 -0.35471362598E+03  0.35471362598E+03  0.00000000000E+00 0.  1.
         25    1    1    2    0    0 -0.63634509488E+02  0.58355490056E+02 -0.87730366091E+02  0.17543184190E+03  0.12500000000E+03 0.  0.
         25    1    1    2    0    0  0.69572075546E+02  0.25240946643E+02 -0.92312937023E+02  0.17211640661E+03  0.12500000000E+03 0.  0.
         25    1    1    2    0    0 -0.59375660574E+01 -0.83596436699E+02 -0.28640148705E+02  0.15319555162E+03  0.12500000000E+03 0.  0.
</event>
<event>
 5    0  0.7643448E-005  0.4485276E+03  0.7546771E-02  0.1028162E+00
         21   -1    0    0  502  501  0.00000000000E+00  0.00000000000E+00  0.21900021237E+03  0.21900021237E+03  0.00000000000E+00 0.  1.
         21   -1    0    0  501  502 -0.00000000000E+00 -0.00000000000E+00 -0.91861539120E+03  0.91861539120E+03  0.00000000000E+00 0.  1.
         25    1    1    2    0    0  0.27273329939E+02  0.84246639875E+01  0.90346016494E+02  0.15685092345E+03  0.12500000000E+03 0.  0.
         25    1    1    2    0    0 -0.25432650771E+03  0.46649571385E+02 -0.25626099671E+03  0.38490629180E+03  0.12500000000E+03 0.  0.
         25    1    1    2    0    0  0.22705317777E+03 -0.55074235373E+02 -0.53370019861E+03  0.59585838832E+03  0.12500000000E+03 0.  0.
</event>
<event>
 5    0  0.5668330E-005  0.3017161E+03  0.7546771E-02  0.1084386E+00
         21   -1    0    0  502  501  0.00000000000E+00  0.00000000000E+00  0.15938512429E+04  0.15938512429E+04  0.00000000000E+00 0.  1.
         21   -1    0    0  501  502 -0.00000000000E+00 -0.00000000000E+00 -0.57114886319E+02  0.57114886319E+02  0.00000000000E+00 0.  1.
         25    1    1    2    0    0 -0.66304987017E+02  0.66318818764E+02  0.53394551099E+03  0.55634283112E+03  0.12500000000E+03 0.  0.
         25    1    1    2    0    0  0.43903046806E+02  0.13934697533E+03  0.52646010656E+03  0.56047328291E+03  0.12500000000E+03 0.  0.
         25    1    1    2    0    0  0.22401940211E+02 -0.20566579410E+03  0.47633073900E+03  0.53415001517E+03  0.12500000000E+03 0.  0.
</event>
<event>
 5    0  0.5668330E-005  0.3077718E+03  0.7546771E-02  0.1081419E+00
         21   -1    0    0  502  501  0.00000000000E+00  0.00000000000E+00  0.36833430472E+03  0.36833430472E+03  0.00000000000E+00 0.  1.
         21   -1    0    0  501  502 -0.00000000000E+00 -0.00000000000E+00 -0.25716716161E+03  0.25716716161E+03  0.00000000000E+00 0.  1.
         25    1    1    2    0    0 -0.32265366106E+02  0.72631144197E+02 -0.58262872000E+02  0.15917254541E+03  0.12500000000E+03 0.  0.
         25    1    1    2    0    0  0.60334991107E+02 -0.20588540748E+03  0.79164498828E+02  0.26061682609E+03  0.12500000000E+03 0.  0.
         25    1    1    2    0    0 -0.28069625000E+02  0.13325426329E+03  0.90265516273E+02  0.20571209483E+03  0.12500000000E+03 0.  0.
</event>
<event>
 5    0  0.5668330E-005  0.2583004E+03  0.7546771E-02  0.1108169E+00
         21   -1    0    0  502  501  0.00000000000E+00  0.00000000000E+00  0.15730517848E+04  0.15730517848E+04  0.00000000000E+00 0.  1.
         21   -1    0    0  501  502 -0.00000000000E+00 -0.00000000000E+00 -0.42413806207E+02  0.42413806207E+02  0.00000000000E+00 0.  1.
         25    1    1    2    0    0 -0.14427091088E+01 -0.11447436703E+03  0.49002822661E+03  0.51851627263E+03  0.12500000000E+03 0.  0.
         25    1    1    2    0    0  0.72923663199E+02 -0.24488833633E+02  0.42486453707E+03  0.44950243435E+03  0.12500000000E+03 0.  0.
         25    1    1    2    0    0 -0.71480954090E+02  0.13896320066E+03  0.61574521493E+03  0.64744688403E+03  0.12500000000E+03 0.  0.
</event>
