<event>
 5    0  0.5452999E-005  0.5207080E+03  0.7546771E-02  0.1008511E+00
         21   -1    0    0  502  501  0.00000000000E+00  0.00000000000E+00  0.61136928229E+03  0.61136928229E+03  0.00000000000E+00 0.  1.
         21   -1    0    0  501  502 -0.00000000000E+00 -0.00000000000E+00 -0.44349106594E+03  0.44349106594E+03  0.00000000000E+00 0.  1.
         25    1    1    2    0    0 -0.57428159203E+02  0.26610022494E+03 -0.23387906524E+03  0.38004176131E+03  0.12500000000E+03 0.  0.
         25    1    1    2    0    0  0.13711527164E+03  0.19819166168E+02  0.26690250418E+03  0.32566139440E+03  0.12500000000E+03 0.  0.
         25    1    1    2    0    0 -0.79687112432E+02 -0.28591939111E+03  0.13485477740E+03  0.34915719252E+03  0.12500000000E+03 0.  0.
</event>
<event>
 5    0  0.5452999E-005  0.4928609E+03  0.7546771E-02  0.1015659E+00
         21   -1    0    0  502  501  0.00000000000E+00  0.00000000000E+00  0.39503530971E+03  0.39503530971E+03  0.00000000000E+00 0. -1.
         21   -1    0    0  501  502 -0.00000000000E+00 -0.00000000000E+00 -0.61491187256E+03  0.61491187256E+03  0.00000000000E+00 0. -1.
         25    1    1    2    0    0 -0.33585902214E+03  0.15032590600E+03 -0.23508812519E+03  0.45419223614E+03  0.12500000000E+03 0.  0.
         25    1    1    2    0    0  0.35084755830E+03 -0.10287117492E+03  0.96893328400E+02  0.39835888955E+03  0.12500000000E+03 0.  0.
         25    1    1    2    0    0 -0.14988536164E+02 -0.47454731075E+02 -0.81681766061E+02  0.15739605657E+03  0.12500000000E+03 0.  0.
</event>
<event>
 5    0  0.5452999E-005  0.2796773E+03  0.7546771E-02  0.1095865E+00
         21   -1    0    0  502  501  0.00000000000E+00  0.00000000000E+00  0.16989404813E+04  0.16989404813E+04  0.00000000000E+00 0.  1.
         21   -1    0    0  501  502 -0.00000000000E+00 -0.00000000000E+00 -0.46040086434E+02  0.46040086434E+02  0.00000000000E+00 0.  1.
         25    1    1    2    0    0  0.34162570251E+02  0.17585781790E+03  0.86355533274E+03  0.89075578360E+03  0.12500000000E+03 0.  0.
         25    1    1    2    0    0 -0.20500196928E+01 -0.11563532120E+03  0.54949401932E+03  0.57527767848E+03  0.12500000000E+03 0.  0.
         25    1    1    2    0    0 -0.32112550558E+02 -0.60222496707E+02  0.23985104279E+03  0.27894710563E+03  0.12500000000E+03 0.  0.
</event>
<event>
 5    0  0.5452999E-005  0.2599629E+03  0.7546771E-02  0.1107165E+00
         21   -1    0    0  502  501  0.00000000000E+00  0.00000000000E+00  0.24591607860E+03  0.24591607860E+03  0.00000000000E+00 0. -1.
         21   -1    0    0  501  502 -0.00000000000E+00 -0.00000000000E+00 -0.27481218157E+03  0.27481218157E+03  0.00000000000E+00 0. -1.
         25    1    1    2    0    0  0.11526487629E+03 -0.94694345213E+01 -0.87494908264E+02  0.19145762160E+03  0.12500000000E+03 0.  0.
         25    1    1    2    0    0 -0.53722825932E+02  0.21839407978E+02 -0.55704752057E+02  0.14863082173E+03  0.12500000000E+03 0.  0.
         25    1    1    2    0    0 -0.61542050355E+02 -0.12369973457E+02  0.11430355735E+03  0.18063981684E+03  0.12500000000E+03 0.  0.
</event>
<event>
 5    0  0.5452999E-005  0.3895511E+03  0.7546771E-02  0.1047459E+00
         21   -1    0    0  502  501  0.00000000000E+00  0.00000000000E+00  0.76023037321E+02  0.76023037321E+02  0.00000000000E+00 0.  1.
         21   -1    0    0  501  502 -0.00000000000E+00 -0.00000000000E+00 -0.19961062249E+04  0.19961062249E+04  0.00000000000E+00 0.  1.
         25    1    1    2    0    0 -0.17314209565E+03  0.68517086797E+02 -0.71223397587E+03  0.74670945679E+03  0.12500000000E+03 0.  0.
         25    1    1    2    0    0  0.26272527199E+03  0.86673480638E+02 -0.88475079186E+03  0.93538538822E+03  0.12500000000E+03 0.  0.
         25    1    1    2    0    0 -0.89583176334E+02 -0.15519056743E+03 -0.32309841981E+03  0.39003441718E+03  0.12500000000E+03 0.  0.
</event>
<event>
 5    0  0.5452999E-005  0.2679366E+03  0.7546771E-02  0.1102466E+00
         21   -1    0    0  502  501  0.00000000000E+00  0.00000000000E+00  0.76660510677E+02  0.76660510677E+02  0.00000000000E+00 0. -1.
         21   -1    0    0  501  502 -0.00000000000E+00 -0.00000000000E+00 -0.93646652231E+03  0.93646652231E+03  0.00000000000E+00 0. -1.
         25    1    1    2    0    0  0.52112681899E+02 -0.50283830415E+02 -0.12465165369E+03  0.19080678705E+03  0.12500000000E+03 0.  0.
         25    1    1    2    0    0  0.57246643737E+02 -0.82026723591E+01 -0.54927970385E+03  0.56628407633E+03  0.12500000000E+03 0.  0.
         25    1    1    2    0    0 -0.10935932564E+03  0.58486502774E+02 -0.18587465409E+03  0.25603616960E+03  0.12500000000E+03 0.  0.
</event>
<event>
 5    0  0.5452999E-005  0.5298475E+03  0.7546771E-02  0.1006269E+00
         21   -1    0    0  502  501  0.00000000000E+00  0.00000000000E+00  0.47384582239E+03  0.47384582239E+03  0.00000000000E+00 0.  1.
         21   -1    0    0  501  502 -0.00000000000E+00 -0.00000000000E+00 -0.59246778938E+03  0.59246778938E+03  0.00000000000E+00 0.  1.
         25    1    1    2    0    0 -0.11780108815E+03 -0.12994167301E+03  0.33466929860E+03  0.39798300740E+03  0.12500000000E+03 0.  0.
         25    1    1    2    0    0 -0.69874602656E+02 -0.47306516347E+02 -0.31643097187E+03  0.35053377376E+03  0.12500000000E+03 0.  0.
         25    1    1    2    0    0  0.18767569080E+03  0.17724818936E+03 -0.13686029372E+03  0.31779683061E+03  0.12500000000E+03 0.  0.
</event>
<event>
 5    0  0.5452999E-005  0.3174762E+03  0.7546771E-02  0.1076817E+00
         21   -1    0    0  502  501  0.00000000000E+00  0.00000000000E+00  0.45074168576E+02  0.45074168576E+02  0.00000000000E+00 0.  1.
         21   -1    0    0  501  502 -0.00000000000E+00 -0.00000000000E+00 -0.22361176863E+04  0.22361176863E+04  0.00000000000E+00 0.  1.
         25    1    1    2    0    0 -0.89468966456E+02  0.93048592875E+02 -0.34075819638E+03  0.38523224812E+03  0.12500000000E+03 0.  0.
         25    1    1    2    0    0  0.27032749050E+02 -0.17107563202E+03 -0.62997280358E+03  0.66519799657E+03  0.12500000000E+03 0.  0.
         25    1    1    2    0    0  0.62436217406E+02  0.78027039141E+02 -0.12203125178E+04  0.12307616102E+04  0.12500000000E+03 0.  0.
</event>
<event>
 5    0  0.5574764E-005  0.3622065E+03  0.7546771E-02  0.1057714E+00
         21   -1    0    0  502  501  0.00000000000E+00  0.00000000000E+00  0.15460052631E+03  0.15460052631E+03  0.00000000000E+00 0. -1.
         21   -1    0    0  501  502 -0.00000000000E+00 -0.00000000000E+00 -0.84859696055E+03  0.84859696055E+03  0.00000000000E+00 0. -1.
         25    1    1    2    0    0 -0.20058867641E+03  0.34456553734E+02 -0.21707020952E+03  0.32274997608E+03  0.12500000000E+03 0.  0.
         25    1    1    2    0    0  0.12259284397E+03 -0.41402050511E+02  0.13775118448E+01  0.17991673829E+03  0.12500000000E+03 0.  0.
         25    1    1    2    0    0  0.77995832444E+02  0.69454967772E+01 -0.47830373656E+03  0.50053077249E+03  0.12500000000E+03 0.  0.
</event>
<event>
 5    0  0.5452999E-005  0.2309223E+03  0.7546771E-02  0.1125992E+00
         21   -1    0    0  502  501  0.00000000000E+00  0.00000000000E+00  0.18529740945E+03  0.18529740945E+03  0.00000000000E+00 0. -1.
         21   -1    0    0  501  502 -0.00000000000E+00 -0.00000000000E+00 -0.28778118216E+03  0.28778118216E+03  0.00000000000E+00 0. -1.
         25    1    1    2    0    0 -0.15556531162E+00 -0.56350191370E+02 -0.10777372605E+03  0.17440052837E+03  0.12500000000E+03 0.  0.
         25    1    1    2    0    0  0.54158784099E+02 -0.57381001226E+01 -0.40393600530E+02  0.14220668990E+03  0.12500000000E+03 0.  0.
         25    1    1    2    0    0 -0.54003218788E+02  0.62088291493E+02  0.45683553875E+02  0.15647137334E+03  0.12500000000E+03 0.  0.
</event>
<event>
 5    0  0.5452999E-005  0.3060608E+03  0.7546771E-02  0.1082250E+00
         21   -1    0    0  502  501  0.00000000000E+00  0.00000000000E+00  0.43664659578E+02  0.43664659578E+02  0.00000000000E+00 0.  1.
         21   -1    0    0  501  502 -0.00000000000E+00 -0.00000000000E+00 -0.21452860789E+04  0.21452860789E+04  0.00000000000E+00 0.  1.
         25    1    1    2    0    0  0.91597674445E+02 -0.50461536915E+02 -0.25161151777E+03  0.29978301577E+03  0.12500000000E+03 0.  0.
         25    1    1    2    0    0  0.41699107892E+02 -0.79097964707E+02 -0.90610163806E+03  0.91904324279E+03  0.12500000000E+03 0.  0.
         25    1    1    2    0    0 -0.13329678234E+03  0.12955950162E+03 -0.94390826350E+03  0.97012447992E+03  0.12500000000E+03 0.  0.
</event>
<event>
 5    0  0.5452999E-005  0.3555129E+03  0.7546771E-02  0.1060375E+00
         21   -1    0    0  502  501  0.00000000000E+00  0.00000000000E+00  0.14639836257E+04  0.14639836257E+04  0.00000000000E+00 0. -1.
         21   -1    0    0  501  502 -0.00000000000E+00 -0.00000000000E+00 -0.86332525769E+02  0.86332525769E+02  0.00000000000E+00 0. -1.
         25    1    1    2    0    0 -0.52840388140E+02 -0.23295800956E+02  0.19261171406E+03  0.23676797367E+03  0.12500000000E+03 0.  0.
         25    1    1    2    0    0  0.96462418050E+01  0.25311226763E+03  0.77872854513E+03  0.82837311461E+03  0.12500000000E+03 0.  0.
         25    1    1    2    0    0  0.43194146335E+02 -0.22981646668E+03  0.40631084070E+03  0.48517506315E+03  0.12500000000E+03 0.  0.
</event>
<event>
 5    0  0.5452999E-005  0.2665953E+03  0.7546771E-02  0.1103244E+00
         21   -1    0    0  502  501  0.00000000000E+00  0.00000000000E+00  0.77554253563E+03  0.77554253563E+03  0.00000000000E+00 0.  1.
         21   -1    0    0  501  502 -0.00000000000E+00 -0.00000000000E+00 -0.91643030975E+02  0.91643030975E+02  0.00000000000E+00 0.  1.
         25    1    1    2    0    0 -0.25964939592E+02  0.35378360522E+02  0.44340099553E+03  0.46276911016E+03  0.12500000000E+03 0.  0.
         25    1    1    2    0    0 -0.63061686090E+02 -0.52237003961E+02  0.46535611451E+02  0.15651212084E+03  0.12500000000E+03 0.  0.
         25    1    1    2    0    0  0.89026625682E+02  0.16858643438E+02  0.19396289767E+03  0.24790433560E+03  0.12500000000E+03 0.  0.
</event>
<event>
 5    0  0.5452999E-005  0.4230676E+03  0.7546771E-02  0.1036073E+00
         21   -1    0    0  502  501  0.00000000000E+00  0.00000000000E+00  0.21759351205E+03  0.21759351205E+03  0.00000000000E+00 0. -1.
         21   -1    0    0  501  502 -0.00000000000E+00 -0.00000000000E+00 -0.82257118775E+03  0.82257118775E+03  0.00000000000E+00 0. -1.
         25    1    1    2    0    0 -0.36865921525E+03  0.52273936052E+01 -0.24714503489E+03  0.46113188016E+03  0.12500000000E+03 0.  0.
         25    1    1    2    0    0  0.22529382411E+03 -0.27349908266E+02 -0.16441487805E+03  0.30685921331E+03  0.12500000000E+03 0.  0.
         25    1    1    2    0    0  0.14336539113E+03  0.22122514661E+02 -0.19341776275E+03  0.27217360632E+03  0.12500000000E+03 0.  0.
</event>
<event>
 5    0  0.5452999E-005  0.3249427E+03  0.7546771E-02  0.1073397E+00
         21   -1    0    0  502  501  0.00000000000E+00  0.00000000000E+00  0.52001676945E+03  0.52001676945E+03  0.00000000000E+00 0.  1.
         21   -1    0    0  501  502 -0.00000000000E+00 -0.00000000000E+00 -0.20304688435E+03  0.20304688435E+03  0.00000000000E+00 0.  1.
         25    1    1    2    0    0  0.87419677456E+02  0.66447095927E+02  0.11988164502E+03  0.20507078138E+03  0.12500000000E+03 0.  0.
         25    1    1    2    0    0 -0.28770952928E+02 -0.20504590932E+03  0.22319033023E+01  0.24187098638E+03  0.12500000000E+03 0.  0.
         25    1    1    2    0    0 -0.58648724528E+02  0.13859881339E+03  0.19485633678E+03  0.27612188604E+03  0.12500000000E+03 0.  0.
</event>
<event>
 5    0  0.5452999E-005  0.3218455E+03  0.7546771E-02  0.1074803E+00
         21   -1    0    0  502  501  0.00000000000E+00  0.00000000000E+00  0.44018626475E+03  0.44018626475E+03  0.00000000000E+00 0. -1.
         21   -1    0    0  501  502 -0.00000000000E+00 -0.00000000000E+00 -0.23531980183E+03  0.23531980183E+03  0.00000000000E+00 0. -1.
         25    1    1    2    0    0 -0.55917908315E+02  0.76660276940E+02  0.69419776849E+02  0.17160336812E+03  0.12500000000E+03 0.  0.
         25    1    1    2    0    0  0.20671099310E+03  0.46576787762E+02  0.24387207867E+02  0.24722169754E+03  0.12500000000E+03 0.  0.
         25    1    1    2    0    0 -0.15079308479E+03 -0.12323706470E+03  0.11105947820E+03  0.25668100092E+03  0.12500000000E+03 0.  0.
</event>
<event>
 5    0  0.5489512E-005  0.3345992E+03  0.7546771E-02  0.1069120E+00
         21   -1    0    0  502  501  0.00000000000E+00  0.00000000000E+00  0.16791786716E+03  0.16791786716E+03  0.00000000000E+00 0.  1.
         21   -1    0    0  501  502 -0.00000000000E+00 -0.00000000000E+00 -0.66673435489E+03  0.66673435489E+03  0.00000000000E+00 0.  1.
         25    1    1    2    0    0 -0.45137312556E+01 -0.14631157203E+03  0.25271721827E+01  0.19250671801E+03  0.12500000000E+03 0.  0.
         25    1    1    2    0    0 -0.93570036446E+02  0.17949792980E+03 -0.32035945711E+03  0.39903638967E+03  0.12500000000E+03 0.  0.
         25    1    1    2    0    0  0.98083767702E+02 -0.33186357766E+02 -0.18098420281E+03  0.24310911438E+03  0.12500000000E+03 0.  0.
</event>
<event>
 5    0  0.5452999E-005  0.2671865E+03  0.7546771E-02  0.1102901E+00
         21   -1    0    0  502  501  0.00000000000E+00  0.00000000000E+00  0.46904672794E+02  0.46904672794E+02  0.00000000000E+00 0.  1.
         21   -1    0    0  501  502 -0.00000000000E+00 -0.00000000000E+00 -0.15219942544E+04  0.15219942544E+04  0.00000000000E+00 0.  1.
         25    1    1    2    0    0  0.29273424077E+02  0.48949958091E+02 -0.42673630307E+03  0.44831005355E+03  0.12500000000E+03 0.  0.
         25    1    1    2    0    0 -0.91164068600E+02  0.24324987515E+02 -0.18236545724E+03  0.24038459271E+03  0.12500000000E+03 0.  0.
         25    1    1    2    0    0  0.61890644523E+02 -0.73274945606E+02 -0.86598782134E+03  0.88020428097E+03  0.12500000000E+03 0.  0.
</event>
<event>
 5    0  0.5452999E-005  0.3028203E+03  0.7546771E-02  0.1083839E+00
         21   -1    0    0  502  501  0.00000000000E+00  0.00000000000E+00  0.49206238136E+02  0.49206238136E+02  0.00000000000E+00 0. -1.
         21   -1    0    0  501  502 -0.00000000000E+00 -0.00000000000E+00 -0.18635875334E+04  0.18635875334E+04  0.00000000000E+00 0. -1.
         25    1    1    2    0    0 -0.21768939822E+02  0.96038440617E+02 -0.45307867240E+03  0.48021094552E+03  0.12500000000E+03 0.  0.
         25    1    1    2    0    0 -0.38372664576E+02 -0.19344883917E+03 -0.46430332647E+03  0.51970904719E+03  0.12500000000E+03 0.  0.
         25    1    1    2    0    0  0.60141604399E+02  0.97410398552E+02 -0.89699929645E+03  0.91287377887E+03  0.12500000000E+03 0.  0.
</event>
<event>
 5    0  0.5452999E-005  0.2613696E+03  0.7546771E-02  0.1106323E+00
         21   -1    0    0  502  501  0.00000000000E+00  0.00000000000E+00  0.31442662955E+03  0.31442662955E+03  0.00000000000E+00 0. -1.
         21   -1    0    0  501  502 -0.00000000000E+00 -0.00000000000E+00 -0.21726560945E+03  0.21726560945E+03  0.00000000000E+00 0. -1.
         25    1    1    2    0    0 -0.27605589142E+02  0.11962670725E+01 -0.12588856108E+03  0.17954506236E+03  0.12500000000E+03 0.  0.
         25    1    1    2    0    0  0.33954419123E+02 -0.43902903848E+02  0.14142225914E+03  0.19673744667E+03  0.12500000000E+03 0.  0.
         25    1    1    2    0    0 -0.63488299809E+01  0.42706636775E+02  0.81627322042E+02  0.15540972997E+03  0.12500000000E+03 0.  0.
</event>
<event>
 5    0  0.5452999E-005  0.3287830E+03  0.7546771E-02  0.1071677E+00
         21   -1    0    0  502  501  0.00000000000E+00  0.00000000000E+00  0.46210771220E+03  0.46210771220E+03  0.00000000000E+00 0. -1.
         21   -1    0    0  501  502 -0.00000000000E+00 -0.00000000000E+00 -0.23392441872E+03  0.23392441872E+03  0.00000000000E+00 0. -1.
         25    1    1    2    0    0  0.91105094344E+01  0.19632689621E+03  0.23743155997E+02  0.23412814657E+03  0.12500000000E+03 0.  0.
         25    1    1    2    0    0  0.90410100152E+02 -0.16708418518E+03  0.40255718145E+02  0.23094725370E+03  0.12500000000E+03 0.  0.
         25    1    1    2    0    0 -0.99520609586E+02 -0.29242711029E+02  0.16418441934E+03  0.23095673065E+03  0.12500000000E+03 0.  0.
</event>
<event>
 5    0  0.5452999E-005  0.5264720E+03  0.7546771E-02  0.1007091E+00
         21   -1    0    0  502  501  0.00000000000E+00  0.00000000000E+00  0.37233670351E+03  0.37233670351E+03  0.00000000000E+00 0.  1.
         21   -1    0    0  501  502 -0.00000000000E+00 -0.00000000000E+00 -0.74441439440E+03  0.74441439440E+03  0.00000000000E+00 0.  1.
         25    1    1    2    0    0 -0.43440879846E+02 -0.13488285171E+02 -0.47136297752E+02  0.14112361406E+03  0.12500000000E+03 0.  0.
         25    1    1    2    0    0 -0.32950726880E+03  0.18182074458E+03 -0.37384811167E+03  0.54499654490E+03  0.12500000000E+03 0.  0.
         25    1    1    2    0    0  0.37294814864E+03 -0.16833245941E+03  0.48906718533E+02  0.43063093895E+03  0.12500000000E+03 0.  0.
</event>
<event>
 5    0  0.5452999E-005  0.2734543E+03  0.7546771E-02  0.1099319E+00
         21   -1    0    0  502  501  0.00000000000E+00  0.00000000000E+00  0.19764900968E+04  0.19764900968E+04  0.00000000000E+00 0.  1.
         21   -1    0    0  501  502 -0.00000000000E+00 -0.00000000000E+00 -0.37833352963E+02  0.37833352963E+02  0.00000000000E+00 0.  1.
         25    1    1    2    0    0 -0.73809543460E+02 -0.12612236546E+03  0.68484580548E+03  0.71133218475E+03  0.12500000000E+03 0.  0.
         25    1    1    2    0    0  0.68210022191E+00 -0.11357109462E+01  0.23580191735E+03  0.26688817757E+03  0.12500000000E+03 0.  0.
         25    1    1    2    0    0  0.73127443238E+02  0.12725807641E+03  0.10180090211E+04  0.10361030875E+04  0.12500000000E+03 0.  0.
</event>
<event>
 5    0  0.5452999E-005  0.2845274E+03  0.7546771E-02  0.1093242E+00
         21   -1    0    0  502  501  0.00000000000E+00  0.00000000000E+00  0.67552169371E+03  0.67552169371E+03  0.00000000000E+00 0. -1.
         21   -1    0    0  501  502 -0.00000000000E+00 -0.00000000000E+00 -0.11984192653E+03  0.11984192653E+03  0.00000000000E+00 0. -1.
         25    1    1    2    0    0  0.53049047404E+02 -0.12308720587E+03  0.28735174463E+03  0.34082354206E+03  0.12500000000E+03 0.  0.
         25    1    1    2    0    0 -0.11947318484E+03  0.24848816317E+02  0.20881475609E+03  0.27224971612E+03  0.12500000000E+03 0.  0.
         25    1    1    2    0    0  0.66424137437E+02  0.98238389548E+02  0.59513266457E+02  0.18229036206E+03  0.12500000000E+03 0.  0.
</event>
<event>
 5    0  0.5452999E-005  0.4178772E+03  0.7546771E-02  0.1037759E+00
         21   -1    0    0  502  501  0.00000000000E+00  0.00000000000E+00  0.59472334663E+03  0.59472334663E+03  0.00000000000E+00 0. -1.
         21   -1    0    0  501  502 -0.00000000000E+00 -0.00000000000E+00 -0.29361773576E+03  0.29361773576E+03  0.00000000000E+00 0. -1.
         25    1    1    2    0    0 -0.68743963113E+02 -0.12351074369E+03  0.12610693814E+03  0.22695505308E+03  0.12500000000E+03 0.  0.
         25    1    1    2    0    0 -0.17918602831E+03  0.19094937967E+03 -0.54084748079E+02  0.29516005541E+03  0.12500000000E+03 0.  0.
         25    1    1    2    0    0  0.24792999142E+03 -0.67438635977E+02  0.22908342081E+03  0.36622597390E+03  0.12500000000E+03 0.  0.
</event>
<event>
 5    0  0.5452999E-005  0.3481912E+03  0.7546771E-02  0.1063360E+00
         21   -1    0    0  502  501  0.00000000000E+00  0.00000000000E+00  0.26079165762E+03  0.26079165762E+03  0.00000000000E+00 0.  1.
         21   -1    0    0  501  502 -0.00000000000E+00 -0.00000000000E+00 -0.46488117055E+03  0.46488117055E+03  0.00000000000E+00 0. -1.
         25    1    1    2    0    0 -0.15182686146E+03  0.88942604139E+02  0.13086067063E+02  0.21623697150E+03  0.12500000000E+03 0.  0.
         25    1    1    2    0    0  0.29111239438E+02  0.25908684901E+02 -0.26410474322E+03  0.29477964585E+03  0.12500000000E+03 0.  0.
         25    1    1    2    0    0  0.12271562202E+03 -0.11485128904E+03  0.46929163225E+02  0.21465621082E+03  0.12500000000E+03 0.  0.
</event>
<event>
 5    0  0.5452999E-005  0.2956052E+03  0.7546771E-02  0.1087458E+00
         21   -1    0    0  502  501  0.00000000000E+00  0.00000000000E+00  0.19480346550E+03  0.19480346550E+03  0.00000000000E+00 0. -1.
         21   -1    0    0  501  502 -0.00000000000E+00 -0.00000000000E+00 -0.44856715901E+03  0.44856715901E+03  0.00000000000E+00 0. -1.
         25    1    1    2    0    0  0.15047984485E+03  0.81295131550E+02 -0.14384077215E+03  0.25606298025E+03  0.12500000000E+03 0.  0.
         25    1    1    2    0    0  0.41017794419E+02 -0.23841376874E+02 -0.21169271832E+02  0.13536620250E+03  0.12500000000E+03 0.  0.
         25    1    1    2    0    0 -0.19149763927E+03 -0.57453754675E+02 -0.88753649525E+02  0.25194144176E+03  0.12500000000E+03 0.  0.
</event>
<event>
 5    0  0.5452999E-005  0.2652414E+03  0.7546771E-02  0.1104034E+00
         21   -1    0    0  502  501  0.00000000000E+00  0.00000000000E+00  0.12196135166E+04  0.12196135166E+04  0.00000000000E+00 0. -1.
         21   -1    0    0  501  502 -0.00000000000E+00 -0.00000000000E+00 -0.57684678789E+02  0.57684678789E+02  0.00000000000E+00 0. -1.
         25    1    1    2    0    0 -0.12942304226E+03  0.38174026609E+02  0.70018106961E+03  0.72393791889E+03  0.12500000000E+03 0.  0.
         25    1    1    2    0    0  0.12746710855E+02  0.12299033800E+02  0.17725068424E+03  0.21761560131E+03  0.12500000000E+03 0.  0.
         25    1    1    2    0    0  0.11667633140E+03 -0.50473060409E+02  0.28449708401E+03  0.33574467523E+03  0.12500000000E+03 0.  0.
</event>
<event>
 5    0  0.5452999E-005  0.3198039E+03  0.7546771E-02  0.1075740E+00
         21   -1    0    0  502  501  0.00000000000E+00  0.00000000000E+00  0.10994390799E+04  0.10994390799E+04  0.00000000000E+00 0. -1.
         21   -1    0    0  501  502 -0.00000000000E+00 -0.00000000000E+00 -0.93024261861E+02  0.93024261861E+02  0.00000000000E+00 0. -1.
         25    1    1    2    0    0  0.59715907233E+01 -0.23205562505E+03  0.51020800553E+03  0.57430190834E+03  0.12500000000E+03 0.  0.
         25    1    1    2    0    0 -0.66457367106E+02  0.15341066155E+03  0.26858119347E+03  0.34016506318E+03  0.12500000000E+03 0.  0.
         25    1    1    2    0    0  0.60485776383E+02  0.78644963500E+02  0.22762561902E+03  0.27799637023E+03  0.12500000000E+03 0.  0.
</event>
<event>
 5    0  0.5452999E-005  0.5065162E+03  0.7546771E-02  0.1012092E+00
         21   -1    0    0  502  501  0.00000000000E+00  0.00000000000E+00  0.35575123143E+03  0.35575123143E+03  0.00000000000E+00 0. -1.
         21   -1    0    0  501  502 -0.00000000000E+00 -0.00000000000E+00 -0.72117443678E+03  0.72117443678E+03  0.00000000000E+00 0. -1.
         25    1    1    2    0    0 -0.31336956252E+03  0.11269536413E+02  0.18804279954E+03  0.38640985963E+03  0.12500000000E+03 0.  0.
         25    1    1    2    0    0  0.15879776198E+03  0.35789415966E+02 -0.32144835629E+03  0.38138124924E+03  0.12500000000E+03 0.  0.
         25    1    1    2    0    0  0.15457180054E+03 -0.47058952380E+02 -0.23201764859E+03  0.30913455934E+03  0.12500000000E+03 0.  0.
</event>
<event>
 5    0  0.6318548E-005  0.3078630E+03  0.7546771E-02  0.1081375E+00
         21   -1    0    0  502  501  0.00000000000E+00  0.00000000000E+00  0.54638000870E+03  0.54638000870E+03  0.00000000000E+00 0.  1.
         21   -1    0    0  501  502 -0.00000000000E+00 -0.00000000000E+00 -0.17346831050E+03  0.17346831050E+03  0.00000000000E+00 0.  1.
         25    1    1    2    0    0  0.12733332100E+03 -0.59686038160E+02  0.11314433438E+03  0.21955144771E+03  0.12500000000E+03 0.  0.
         25    1    1    2    0    0 -0.13730553986E+03  0.16487119241E+03  0.89059992496E+02  0.26380296364E+03  0.12500000000E+03 0.  0.
         25    1    1    2    0    0  0.99722188653E+01 -0.10518515425E+03  0.17070737133E+03  0.23649390785E+03  0.12500000000E+03 0.  0.
</event>
<event>
 5    0  0.5452999E-005  0.3586326E+03  0.7546771E-02  0.1059127E+00
         21   -1    0    0  502  501  0.00000000000E+00  0.00000000000E+00  0.77757865122E+03  0.77757865122E+03  0.00000000000E+00 0.  1.
         21   -1    0    0  501  502 -0.00000000000E+00 -0.00000000000E+00 -0.16540754045E+03  0.16540754045E+03  0.00000000000E+00 0.  1.
         25    1    1    2    0    0  0.69870906735E+02  0.15845604506E+02 -0.52407950527E+02  0.15331216543E+03  0.12500000000E+03 0.  0.
         25    1    1    2    0    0  0.12163767603E+03 -0.65660895489E+02  0.22954977655E+03  0.29567748873E+03  0.12500000000E+03 0.  0.
         25    1    1    2    0    0 -0.19150858276E+03  0.49815290983E+02  0.43502928474E+03  0.49399653751E+03  0.12500000000E+03 0.  0.
</event>
<event>
 5    0  0.5452999E-005  0.4355221E+03  0.7546771E-02  0.1032130E+00
         21   -1    0    0  502  501  0.00000000000E+00  0.00000000000E+00  0.12724326988E+04  0.12724326988E+04  0.00000000000E+00 0.  1.
         21   -1    0    0  501  502 -0.00000000000E+00 -0.00000000000E+00 -0.14906841307E+03  0.14906841307E+03  0.00000000000E+00 0.  1.
         25    1    1    2    0    0  0.56618788569E+02 -0.29557927619E+03  0.34114666559E+03  0.47178262280E+03  0.12500000000E+03 0.  0.
         25    1    1    2    0    0 -0.55629739478E+02 -0.66375396019E+02  0.17502034480E+03  0.23185659836E+03  0.12500000000E+03 0.  0.
         25    1    1    2    0    0 -0.98904909127E+00  0.36195467221E+03  0.60719727530E+03  0.71786189067E+03  0.12500000000E+03 0.  0.
</event>
<event>
 5    0  0.5452999E-005  0.3074589E+03  0.7546771E-02  0.1081570E+00
         21   -1    0    0  502  501  0.00000000000E+00  0.00000000000E+00  0.63038636521E+03  0.63038636521E+03  0.00000000000E+00 0. -1.
         21   -1    0    0  501  502 -0.00000000000E+00 -0.00000000000E+00 -0.14995719007E+03  0.14995719007E+03  0.00000000000E+00 0. -1.
         25    1    1    2    0    0  0.30922705317E+02 -0.17097156291E+03  0.12128648169E+03  0.24601402331E+03  0.12500000000E+03 0.  0.
         25    1    1    2    0    0 -0.31925398350E+02  0.86956151759E+02  0.35048725658E+03  0.38346697435E+03  0.12500000000E+03 0.  0.
         25    1    1    2    0    0  0.10026930324E+01  0.84015411149E+02  0.86554368728E+01  0.15086255762E+03  0.12500000000E+03 0.  0.
</event>
<event>
 5    0  0.5452999E-005  0.3801421E+03  0.7546771E-02  0.1050881E+00
         21   -1    0    0  502  501  0.00000000000E+00  0.00000000000E+00  0.13761748588E+04  0.13761748588E+04  0.00000000000E+00 0.  1.
         21   -1    0    0  501  502 -0.00000000000E+00 -0.00000000000E+00 -0.10500699926E+03  0.10500699926E+03  0.00000000000E+00 0.  1.
         25    1    1    2    0    0  0.19988844996E+02 -0.88629962170E+02  0.69064757641E+03  0.70772445126E+03  0.12500000000E+03 0.  0.
         25    1    1    2    0    0  0.92612796226E+02  0.13926473386E+03  0.55866697696E+03  0.59641058615E+03  0.12500000000E+03 0.  0.
         25    1    1    2    0    0 -0.11260164122E+03 -0.50634771689E+02  0.21853306170E+02  0.17704682064E+03  0.12500000000E+03 0.  0.
</event>
<event>
 5    0  0.5452999E-005  0.2145552E+03  0.7546771E-02  0.1138009E+00
         21   -1    0    0  502  501  0.00000000000E+00  0.00000000000E+00  0.49895103701E+02  0.49895103701E+02  0.00000000000E+00 0.  1.
         21   -1    0    0  501  502 -0.00000000000E+00 -0.00000000000E+00 -0.92261391518E+03  0.92261391518E+03  0.00000000000E+00 0.  1.
         25    1    1    2    0    0  0.66366984222E+02 -0.22545745997E+01 -0.23021409243E+03  0.27024653200E+03  0.12500000000E+03 0.  0.
         25    1    1    2    0    0 -0.78686069608E+02 -0.28685390659E+02 -0.28881219990E+03  0.32565600870E+03  0.12500000000E+03 0.  0.
         25    1    1    2    0    0  0.12319085385E+02  0.30939965259E+02 -0.35369251914E+03  0.37660647819E+03  0.12500000000E+03 0.  0.
</event>
<event>
 5    0  0.5452999E-005  0.2236425E+03  0.7546771E-02  0.1131196E+00
         21   -1    0    0  502  501  0.00000000000E+00  0.00000000000E+00  0.41659211062E+03  0.41659211062E+03  0.00000000000E+00 0.  1.
         21   -1    0    0  501  502 -0.00000000000E+00 -0.00000000000E+00 -0.12005981938E+03  0.12005981938E+03  0.00000000000E+00 0.  1.
         25    1    1    2    0    0  0.41755317290E+02  0.74389120120E+02  0.13303074005E+03  0.20149299122E+03  0.12500000000E+03 0.  0.
         25    1    1    2    0    0  0.36766936497E+02 -0.57732605300E+02  0.97051134861E+02  0.17242037035E+03  0.12500000000E+03 0.  0.
         25    1    1    2    0    0 -0.78522253787E+02 -0.16656514820E+02  0.66450416334E+02  0.16273856844E+03  0.12500000000E+03 0.  0.
</event>
<event>
 5    0  0.5452999E-005  0.4563304E+03  0.7546771E-02  0.1025851E+00
         21   -1    0    0  502  501  0.00000000000E+00  0.00000000000E+00  0.23754090672E+03  0.23754090672E+03  0.00000000000E+00 0. -1.
         21   -1    0    0  501  502 -0.00000000000E+00 -0.00000000000E+00 -0.87663830717E+03  0.87663830717E+03  0.00000000000E+00 0. -1.
         25    1    1    2    0    0  0.19927227954E+03 -0.19165138854E+03 -0.10453615886E+03  0.32092445315E+03  0.12500000000E+03 0.  0.
         25    1    1    2    0    0 -0.33033264102E+03  0.18271993896E+03 -0.30754947533E+03  0.50271056244E+03  0.12500000000E+03 0.  0.
         25    1    1    2    0    0  0.13106036148E+03  0.89314495790E+01 -0.22701176626E+03  0.29054419830E+03  0.12500000000E+03 0.  0.
</event>
<event>
 5    0  0.5452999E-005  0.3160305E+03  0.7546771E-02  0.1077491E+00
         21   -1    0    0  502  501  0.00000000000E+00  0.00000000000E+00  0.22080064696E+03  0.22080064696E+03  0.00000000000E+00 0.  1.
         21   -1    0    0  501  502 -0.00000000000E+00 -0.00000000000E+00 -0.45233238162E+03  0.45233238162E+03  0.00000000000E+00 0.  1.
         25    1    1    2    0    0  0.14754103691E+03  0.18647983933E+02  0.52314241201E+02  0.20119116459E+03  0.12500000000E+03 0.  0.
         25    1    1    2    0    0 -0.20709475903E+02 -0.11689299768E+03 -0.14960913129E+03  0.22825588156E+03  0.12500000000E+03 0.  0.
         25    1    1    2    0    0 -0.12683156101E+03  0.98245013751E+02 -0.13423684457E+03  0.24368598243E+03  0.12500000000E+03 0.  0.
</event>
<event>
 5    0  0.5452999E-005  0.2549828E+03  0.7546771E-02  0.1110196E+00
         21   -1    0    0  502  501  0.00000000000E+00  0.00000000000E+00  0.12923113135E+03  0.12923113135E+03  0.00000000000E+00 0.  1.
         21   -1    0    0  501  502 -0.00000000000E+00 -0.00000000000E+00 -0.50310035532E+03  0.50310035532E+03  0.00000000000E+00 0.  1.
         25    1    1    2    0    0 -0.36567454780E+02 -0.54672307885E+02 -0.27317150230E+03  0.30752871357E+03  0.12500000000E+03 0.  0.
         25    1    1    2    0    0  0.22980322751E+02  0.10470050334E+03 -0.16659224587E+02  0.16550776537E+03  0.12500000000E+03 0.  0.
         25    1    1    2    0    0  0.13587132029E+02 -0.50028195451E+02 -0.84038497086E+02  0.15929500773E+03  0.12500000000E+03 0.  0.
</event>
<event>
 5    0  0.5452999E-005  0.3830603E+03  0.7546771E-02  0.1049808E+00
         21   -1    0    0  502  501  0.00000000000E+00  0.00000000000E+00  0.45890943545E+03  0.45890943545E+03  0.00000000000E+00 0.  1.
         21   -1    0    0  501  502 -0.00000000000E+00 -0.00000000000E+00 -0.31974755679E+03  0.31974755679E+03  0.00000000000E+00 0.  1.
         25    1    1    2    0    0  0.17554721619E+03 -0.14922072486E+03 -0.64683829193E+02  0.26998638410E+03  0.12500000000E+03 0.  0.
         25    1    1    2    0    0 -0.76004708176E+02 -0.93754272516E+02  0.95955134475E+02  0.19849173059E+03  0.12500000000E+03 0.  0.
         25    1    1    2    0    0 -0.99542508018E+02  0.24297499738E+03  0.10789057338E+03  0.31017887755E+03  0.12500000000E+03 0.  0.
</event>
<event>
 5    0  0.5452999E-005  0.2236585E+03  0.7546771E-02  0.1131184E+00
         21   -1    0    0  502  501  0.00000000000E+00  0.00000000000E+00  0.23601036619E+03  0.23601036619E+03  0.00000000000E+00 0. -1.
         21   -1    0    0  501  502 -0.00000000000E+00 -0.00000000000E+00 -0.21195317135E+03  0.21195317135E+03  0.00000000000E+00 0. -1.
         25    1    1    2    0    0 -0.21103432308E+02  0.38480819187E+01  0.45969102021E+02  0.13490115244E+03  0.12500000000E+03 0.  0.
         25    1    1    2    0    0  0.69195343102E+02  0.54581396078E+02  0.33877246477E+02  0.15665181816E+03  0.12500000000E+03 0.  0.
         25    1    1    2    0    0 -0.48091910794E+02 -0.58429477997E+02 -0.55789153659E+02  0.15641056693E+03  0.12500000000E+03 0.  0.
</event>
<event>
 5    0  0.5452999E-005  0.2598688E+03  0.7546771E-02  0.1107222E+00
         21   -1    0    0  502  501  0.00000000000E+00  0.00000000000E+00  0.19428486358E+03  0.19428486358E+03  0.00000000000E+00 0.  1.
         21   -1    0    0  501  502 -0.00000000000E+00 -0.00000000000E+00 -0.34759162519E+03  0.34759162519E+03  0.00000000000E+00 0.  1.
         25    1    1    2    0    0  0.29563621862E+02  0.55141017158E+02 -0.41775292238E+02  0.14589281871E+03  0.12500000000E+03 0.  0.
         25    1    1    2    0    0  0.21789460264E+02 -0.13750887327E+03 -0.14190929205E+03  0.23483338344E+03  0.12500000000E+03 0.  0.
         25    1    1    2    0    0 -0.51353082125E+02  0.82367856117E+02  0.30377822675E+02  0.16115028661E+03  0.12500000000E+03 0.  0.
</event>
<event>
 5    0  0.5452999E-005  0.4054768E+03  0.7546771E-02  0.1041900E+00
         21   -1    0    0  502  501  0.00000000000E+00  0.00000000000E+00  0.44376364414E+03  0.44376364414E+03  0.00000000000E+00 0. -1.
         21   -1    0    0  501  502 -0.00000000000E+00 -0.00000000000E+00 -0.37049325396E+03  0.37049325396E+03  0.00000000000E+00 0. -1.
         25    1    1    2    0    0  0.20745723041E+02  0.10830666416E+03  0.30330175622E+03  0.34608911259E+03  0.12500000000E+03 0.  0.
         25    1    1    2    0    0 -0.14424871622E+03  0.17067775381E+02 -0.11653295796E+03  0.22428537932E+03  0.12500000000E+03 0.  0.
         25    1    1    2    0    0  0.12350299318E+03 -0.12537443954E+03 -0.11349840807E+03  0.24388240619E+03  0.12500000000E+03 0.  0.
</event>
<event>
 5    0  0.5482423E-005  0.3136671E+03  0.7546771E-02  0.1078601E+00
         21   -1    0    0  502  501  0.00000000000E+00  0.00000000000E+00  0.34500768884E+03  0.34500768884E+03  0.00000000000E+00 0. -1.
         21   -1    0    0  501  502 -0.00000000000E+00 -0.00000000000E+00 -0.28517347160E+03  0.28517347160E+03  0.00000000000E+00 0. -1.
         25    1    1    2    0    0  0.54612207888E+02  0.30779831273E+02 -0.13377202193E+03  0.19351962463E+03  0.12500000000E+03 0.  0.
         25    1    1    2    0    0 -0.16149598106E+02 -0.11612056382E+03 -0.19477645241E+02  0.17247948726E+03  0.12500000000E+03 0.  0.
         25    1    1    2    0    0 -0.38462609783E+02  0.85340732543E+02  0.21308388441E+03  0.26418204856E+03  0.12500000000E+03 0.  0.
</event>
<event>
 5    0  0.5452999E-005  0.2628228E+03  0.7546771E-02  0.1105459E+00
         21   -1    0    0  502  501  0.00000000000E+00  0.00000000000E+00  0.18043593229E+04  0.18043593229E+04  0.00000000000E+00 0.  1.
         21   -1    0    0  501  502 -0.00000000000E+00 -0.00000000000E+00 -0.38282743133E+02  0.38282743133E+02  0.00000000000E+00 0.  1.
         25    1    1    2    0    0  0.38846225868E+02  0.10159446078E+03  0.57184388245E+03  0.59536618112E+03  0.12500000000E+03 0.  0.
         25    1    1    2    0    0  0.48763376517E+02 -0.89139682323E+02  0.30475132306E+03  0.34470584382E+03  0.12500000000E+03 0.  0.
         25    1    1    2    0    0 -0.87609602385E+02 -0.12454778457E+02  0.88948137427E+03  0.90257004111E+03  0.12500000000E+03 0.  0.
</event>
<event>
 5    0  0.5452999E-005  0.3116278E+03  0.7546771E-02  0.1079568E+00
         21   -1    0    0  502  501  0.00000000000E+00  0.00000000000E+00  0.13626372590E+04  0.13626372590E+04  0.00000000000E+00 0. -1.
         21   -1    0    0  501  502 -0.00000000000E+00 -0.00000000000E+00 -0.71267580257E+02  0.71267580257E+02  0.00000000000E+00 0. -1.
         25    1    1    2    0    0 -0.13975111524E+03 -0.77542121375E+02  0.67009351847E+03  0.70013818514E+03  0.12500000000E+03 0.  0.
         25    1    1    2    0    0  0.10622818666E+03  0.56730363447E+02  0.56510022417E+03  0.59115651492E+03  0.12500000000E+03 0.  0.
         25    1    1    2    0    0  0.33522928578E+02  0.20811757927E+02  0.56175936131E+02  0.14261013922E+03  0.12500000000E+03 0.  0.
</event>
<event>
 5    0  0.5452999E-005  0.2596195E+03  0.7546771E-02  0.1107372E+00
         21   -1    0    0  502  501  0.00000000000E+00  0.00000000000E+00  0.27081482737E+03  0.27081482737E+03  0.00000000000E+00 0. -1.
         21   -1    0    0  501  502 -0.00000000000E+00 -0.00000000000E+00 -0.24888690468E+03  0.24888690468E+03  0.00000000000E+00 0. -1.
         25    1    1    2    0    0  0.23181953483E+01  0.15086062834E+02 -0.27528719681E+02  0.12890226425E+03  0.12500000000E+03 0.  0.
         25    1    1    2    0    0 -0.10522862603E+03 -0.22601622463E+01 -0.81084555913E+02  0.18242224995E+03  0.12500000000E+03 0.  0.
         25    1    1    2    0    0  0.10291043068E+03 -0.12825900588E+02  0.13054119828E+03  0.20837721785E+03  0.12500000000E+03 0.  0.
</event>
<event>
 5    0  0.5452999E-005  0.3100978E+03  0.7546771E-02  0.1080299E+00
         21   -1    0    0  502  501  0.00000000000E+00  0.00000000000E+00  0.26930271368E+04  0.26930271368E+04  0.00000000000E+00 0.  1.
         21   -1    0    0  501  502 -0.00000000000E+00 -0.00000000000E+00 -0.35707276742E+02  0.35707276742E+02  0.00000000000E+00 0.  1.
         25    1    1    2    0    0 -0.88375029513E+01 -0.92604408447E+02  0.63613474374E+03  0.65493976067E+03  0.12500000000E+03 0.  0.
         25    1    1    2    0    0 -0.42790972669E+02  0.29377523748E+01  0.17689060505E+04  0.17738357628E+04  0.12500000000E+03 0.  0.
         25    1    1    2    0    0  0.51628475620E+02  0.89666656072E+02  0.25227906582E+03  0.29995889011E+03  0.12500000000E+03 0.  0.
</event>
<event>
 5    0  0.5452999E-005  0.2898818E+03  0.7546771E-02  0.1090411E+00
         21   -1    0    0  502  501  0.00000000000E+00  0.00000000000E+00  0.19569149716E+03  0.19569149716E+03  0.00000000000E+00 0.  1.
         21   -1    0    0  501  502 -0.00000000000E+00 -0.00000000000E+00 -0.42940794361E+03  0.42940794361E+03  0.00000000000E+00 0.  1.
         25    1    1    2    0    0  0.19154978810E+02  0.33461136675E+02 -0.47518282509E+02  0.13917452372E+03  0.12500000000E+03 0.  0.
         25    1    1    2    0    0 -0.29675051417E+02  0.13482730458E+03  0.25305272318E+02  0.18794777877E+03  0.12500000000E+03 0.  0.
         25    1    1    2    0    0  0.10520072606E+02 -0.16828844125E+03 -0.21150343625E+03  0.29797713828E+03  0.12500000000E+03 0.  0.
</event>
<event>
 5    0  0.5452999E-005  0.3252306E+03  0.7546771E-02  0.1073267E+00
         21   -1    0    0  502  501  0.00000000000E+00  0.00000000000E+00  0.73757720254E+02  0.73757720254E+02  0.00000000000E+00 0. -1.
         21   -1    0    0  501  502 -0.00000000000E+00 -0.00000000000E+00 -0.14340861501E+04  0.14340861501E+04  0.00000000000E+00 0. -1.
         25    1    1    2    0    0  0.10776088725E+01  0.46196507736E+02 -0.33980153745E+03  0.36500049784E+03  0.12500000000E+03 0.  0.
         25    1    1    2    0    0  0.82808030693E+02  0.17290032002E+03 -0.63128962040E+03  0.67149331749E+03  0.12500000000E+03 0.  0.
         25    1    1    2    0    0 -0.83885639565E+02 -0.21909682775E+03 -0.38923727196E+03  0.47135005500E+03  0.12500000000E+03 0.  0.
</event>
<event>
 5    0  0.5452999E-005  0.2473608E+03  0.7546771E-02  0.1114984E+00
         21   -1    0    0  502  501  0.00000000000E+00  0.00000000000E+00  0.75238442110E+03  0.75238442110E+03  0.00000000000E+00 0.  1.
         21   -1    0    0  501  502 -0.00000000000E+00 -0.00000000000E+00 -0.81324614358E+02  0.81324614358E+02  0.00000000000E+00 0.  1.
         25    1    1    2    0    0  0.45731407878E+02 -0.70386986364E+02  0.40836637915E+03  0.43523992135E+03  0.12500000000E+03 0.  0.
         25    1    1    2    0    0 -0.65287806058E+02  0.72369240016E+02  0.83653867391E+02  0.17922827358E+03  0.12500000000E+03 0.  0.
         25    1    1    2    0    0  0.19556398179E+02 -0.19822536521E+01  0.17903956020E+03  0.21924084053E+03  0.12500000000E+03 0.  0.
</event>
<event>
 5    0  0.5452999E-005  0.5655286E+03  0.7546771E-02  0.9979622E-01
         21   -1    0    0  502  501  0.00000000000E+00  0.00000000000E+00  0.72693925738E+03  0.72693925738E+03  0.00000000000E+00 0. -1.
         21   -1    0    0  501  502 -0.00000000000E+00 -0.00000000000E+00 -0.43995780529E+03  0.43995780529E+03  0.00000000000E+00 0. -1.
         25    1    1    2    0    0  0.19037208670E+03 -0.82106502415E+01 -0.34400977922E+03  0.41264594311E+03  0.12500000000E+03 0.  0.
         25    1    1    2    0    0 -0.14099337132E+03  0.13187362923E+03  0.37158601804E+03  0.43700223528E+03  0.12500000000E+03 0.  0.
         25    1    1    2    0    0 -0.49378715376E+02 -0.12366297899E+03  0.25940521326E+03  0.31724888427E+03  0.12500000000E+03 0.  0.
</event>
<event>
 5    0  0.5452999E-005  0.4690081E+03  0.7546771E-02  0.1022201E+00
         21   -1    0    0  502  501  0.00000000000E+00  0.00000000000E+00  0.23061184061E+03  0.23061184061E+03  0.00000000000E+00 0.  1.
         21   -1    0    0  501  502 -0.00000000000E+00 -0.00000000000E+00 -0.95384764227E+03  0.95384764227E+03  0.00000000000E+00 0.  1.
         25    1    1    2    0    0 -0.17477168389E+02 -0.11207213982E+03 -0.40005401159E+03  0.43420482278E+03  0.12500000000E+03 0.  0.
         25    1    1    2    0    0  0.31623052949E+03  0.51137783449E+02 -0.20405881737E+03  0.39985224974E+03  0.12500000000E+03 0.  0.
         25    1    1    2    0    0 -0.29875336110E+03  0.60934356373E+02 -0.11912297270E+03  0.35040241035E+03  0.12500000000E+03 0.  0.
</event>
<event>
 5    0  0.5452999E-005  0.3893755E+03  0.7546771E-02  0.1047522E+00
         21   -1    0    0  502  501  0.00000000000E+00  0.00000000000E+00  0.25321102644E+03  0.25321102644E+03  0.00000000000E+00 0. -1.
         21   -1    0    0  501  502 -0.00000000000E+00 -0.00000000000E+00 -0.59876261366E+03  0.59876261366E+03  0.00000000000E+00 0. -1.
         25    1    1    2    0    0 -0.84925898429E+02  0.72686610571E+02  0.43258660461E+02  0.17318216792E+03  0.12500000000E+03 0.  0.
         25    1    1    2    0    0  0.13860742080E+03 -0.25623352066E+03 -0.15863721222E+03  0.35448328495E+03  0.12500000000E+03 0.  0.
         25    1    1    2    0    0 -0.53681522372E+02  0.18354691009E+03 -0.23017303547E+03  0.32430818723E+03  0.12500000000E+03 0.  0.
</event>
<event>
 5    0  0.5452999E-005  0.3100909E+03  0.7546771E-02  0.1080302E+00
         21   -1    0    0  502  501  0.00000000000E+00  0.00000000000E+00  0.24620991711E+03  0.24620991711E+03  0.00000000000E+00 0.  1.
         21   -1    0    0  501  502 -0.00000000000E+00 -0.00000000000E+00 -0.39054636167E+03  0.39054636167E+03  0.00000000000E+00 0.  1.
         25    1    1    2    0    0  0.22117832924E+03 -0.43825528329E+02 -0.51148206814E+02  0.26283391965E+03  0.12500000000E+03 0.  0.
         25    1    1    2    0    0 -0.14846048649E+03  0.74743243036E+02 -0.88357044592E+02  0.22596246537E+03  0.12500000000E+03 0.  0.
         25    1    1    2    0    0 -0.72717842746E+02 -0.30917714707E+02 -0.48311931525E+01  0.14795989377E+03  0.12500000000E+03 0.  0.
</event>
<event>
 5    0  0.5452999E-005  0.6198878E+03  0.7546771E-02  0.9864983E-01
         21   -1    0    0  502  501  0.00000000000E+00  0.00000000000E+00  0.75482018845E+03  0.75482018845E+03  0.00000000000E+00 0. -1.
         21   -1    0    0  501  502 -0.00000000000E+00 -0.00000000000E+00 -0.50907599970E+03  0.50907599970E+03  0.00000000000E+00 0.  1.
         25    1    1    2    0    0  0.89152813748E+01  0.14151959247E+03 -0.25798852128E+02  0.19078222681E+03  0.12500000000E+03 0.  0.
         25    1    1    2    0    0 -0.39913558346E+03 -0.29718477265E+03 -0.69464781587E+02  0.51776284046E+03  0.12500000000E+03 0.  0.
         25    1    1    2    0    0  0.39022030208E+03  0.15566518018E+03  0.34100782247E+03  0.55535112088E+03  0.12500000000E+03 0.  0.
</event>
<event>
 5    0  0.5452999E-005  0.2593041E+03  0.7546771E-02  0.1107562E+00
         21   -1    0    0  502  501  0.00000000000E+00  0.00000000000E+00  0.66472699510E+03  0.66472699510E+03  0.00000000000E+00 0. -1.
         21   -1    0    0  501  502 -0.00000000000E+00 -0.00000000000E+00 -0.10115222918E+03  0.10115222918E+03  0.00000000000E+00 0. -1.
         25    1    1    2    0    0  0.65735600800E+02 -0.28243973065E+02  0.27685953449E+02  0.14666425347E+03  0.12500000000E+03 0.  0.
         25    1    1    2    0    0  0.23967944772E+01  0.28327855393E+02  0.40862734672E+03  0.42826337749E+03  0.12500000000E+03 0.  0.
         25    1    1    2    0    0 -0.68132395277E+02 -0.83882327671E-01  0.12726146575E+03  0.19095159331E+03  0.12500000000E+03 0.  0.
</event>
<event>
 5    0  0.5452999E-005  0.3934932E+03  0.7546771E-02  0.1046056E+00
         21   -1    0    0  502  501  0.00000000000E+00  0.00000000000E+00  0.17764953277E+04  0.17764953277E+04  0.00000000000E+00 0.  1.
         21   -1    0    0  501  502 -0.00000000000E+00 -0.00000000000E+00 -0.87158627738E+02  0.87158627738E+02  0.00000000000E+00 0.  1.
         25    1    1    2    0    0  0.80369416585E+02  0.16195354777E+03  0.29379100226E+03  0.36691463280E+03  0.12500000000E+03 0.  0.
         25    1    1    2    0    0 -0.66205485365E+02 -0.28750979342E+03  0.11487733052E+04  0.11926232239E+04  0.12500000000E+03 0.  0.
         25    1    1    2    0    0 -0.14163931219E+02  0.12555624566E+03  0.24677239254E+03  0.30411609870E+03  0.12500000000E+03 0.  0.
</event>
<event>
 5    0  0.5452999E-005  0.3000743E+03  0.7546771E-02  0.1085203E+00
         21   -1    0    0  502  501  0.00000000000E+00  0.00000000000E+00  0.93872086110E+03  0.93872086110E+03  0.00000000000E+00 0. -1.
         21   -1    0    0  501  502 -0.00000000000E+00 -0.00000000000E+00 -0.95922620308E+02  0.95922620308E+02  0.00000000000E+00 0. -1.
         25    1    1    2    0    0  0.10208716107E+03 -0.41091575493E+02  0.32747633740E+03  0.36739087848E+03  0.12500000000E+03 0.  0.
         25    1    1    2    0    0  0.63720253710E+02  0.31536249126E+02  0.40946736891E+03  0.43398540522E+03  0.12500000000E+03 0.  0.
         25    1    1    2    0    0 -0.16580741478E+03  0.95553263673E+01  0.10585453448E+03  0.23326719771E+03  0.12500000000E+03 0.  0.
</event>
<event>
 5    0  0.5452999E-005  0.3231135E+03  0.7546771E-02  0.1074225E+00
         21   -1    0    0  502  501  0.00000000000E+00  0.00000000000E+00  0.12819653263E+04  0.12819653263E+04  0.00000000000E+00 0. -1.
         21   -1    0    0  501  502 -0.00000000000E+00 -0.00000000000E+00 -0.81439287687E+02  0.81439287687E+02  0.00000000000E+00 0. -1.
         25    1    1    2    0    0 -0.12950578510E+03  0.19268016437E+02  0.49177924856E+03  0.52403705417E+03  0.12500000000E+03 0.  0.
         25    1    1    2    0    0 -0.37176153524E+02 -0.73464869925E+02  0.55498549289E+03  0.57481566682E+03  0.12500000000E+03 0.  0.
         25    1    1    2    0    0  0.16668193863E+03  0.54196853488E+02  0.15376129721E+03  0.26455189304E+03  0.12500000000E+03 0.  0.
</event>
<event>
 5    0  0.5452999E-005  0.3313395E+03  0.7546771E-02  0.1070546E+00
         21   -1    0    0  502  501  0.00000000000E+00  0.00000000000E+00  0.29347295359E+03  0.29347295359E+03  0.00000000000E+00 0. -1.
         21   -1    0    0  501  502 -0.00000000000E+00 -0.00000000000E+00 -0.37409189540E+03  0.37409189540E+03  0.00000000000E+00 0. -1.
         25    1    1    2    0    0  0.78797098810E+02  0.40648508094E+02  0.69741590060E+02  0.16837509725E+03  0.12500000000E+03 0.  0.
         25    1    1    2    0    0  0.14464941555E+03  0.43217672620E+02 -0.11556264241E+03  0.22753229434E+03  0.12500000000E+03 0.  0.
         25    1    1    2    0    0 -0.22344651436E+03 -0.83866180714E+02 -0.34797889466E+02  0.27165745740E+03  0.12500000000E+03 0.  0.
</event>
<event>
 5    0  0.5452999E-005  0.2609314E+03  0.7546771E-02  0.1106585E+00
         21   -1    0    0  502  501  0.00000000000E+00  0.00000000000E+00  0.12952788544E+03  0.12952788544E+03  0.00000000000E+00 0.  1.
         21   -1    0    0  501  502 -0.00000000000E+00 -0.00000000000E+00 -0.52564126085E+03  0.52564126085E+03  0.00000000000E+00 0.  1.
         25    1    1    2    0    0 -0.66308698606E+02  0.74611329253E+02 -0.10419519416E+01  0.15996805815E+03  0.12500000000E+03 0.  0.
         25    1    1    2    0    0  0.61476800591E+02  0.32119164944E+01 -0.12326341338E+03  0.18603382084E+03  0.12500000000E+03 0.  0.
         25    1    1    2    0    0  0.48318980155E+01 -0.77823245747E+02 -0.27180801009E+03  0.30916726730E+03  0.12500000000E+03 0.  0.
</event>
<event>
 5    0  0.5452999E-005  0.2978142E+03  0.7546771E-02  0.1086338E+00
         21   -1    0    0  502  501  0.00000000000E+00  0.00000000000E+00  0.46439589958E+02  0.46439589958E+02  0.00000000000E+00 0. -1.
         21   -1    0    0  501  502 -0.00000000000E+00 -0.00000000000E+00 -0.19098638549E+04  0.19098638549E+04  0.00000000000E+00 0. -1.
         25    1    1    2    0    0 -0.35370539244E+02 -0.65605578810E+02 -0.72588622426E+03  0.74033166729E+03  0.12500000000E+03 0.  0.
         25    1    1    2    0    0 -0.74893345572E+02  0.17687595454E+03 -0.61731284265E+03  0.65847874848E+03  0.12500000000E+03 0.  0.
         25    1    1    2    0    0  0.11026388482E+03 -0.11127037573E+03 -0.52022519799E+03  0.55749302904E+03  0.12500000000E+03 0.  0.
</event>
<event>
 5    0  0.5452999E-005  0.2795941E+03  0.7546771E-02  0.1095911E+00
         21   -1    0    0  502  501  0.00000000000E+00  0.00000000000E+00  0.15317864079E+04  0.15317864079E+04  0.00000000000E+00 0. -1.
         21   -1    0    0  501  502 -0.00000000000E+00 -0.00000000000E+00 -0.51033780924E+02  0.51033780924E+02  0.00000000000E+00 0. -1.
         25    1    1    2    0    0 -0.91806115861E+02  0.22770033360E+02  0.23778348757E+03  0.28480313251E+03  0.12500000000E+03 0.  0.
         25    1    1    2    0    0 -0.56946016707E+02  0.41254430879E+02  0.76149591742E+03  0.77488438437E+03  0.12500000000E+03 0.  0.
         25    1    1    2    0    0  0.14875213257E+03 -0.64024464239E+02  0.48147322196E+03  0.52313267192E+03  0.12500000000E+03 0.  0.
</event>
<event>
 5    0  0.5452999E-005  0.2745610E+03  0.7546771E-02  0.1098697E+00
         21   -1    0    0  502  501  0.00000000000E+00  0.00000000000E+00  0.87157110521E+02  0.87157110521E+02  0.00000000000E+00 0. -1.
         21   -1    0    0  501  502 -0.00000000000E+00 -0.00000000000E+00 -0.86491776913E+03  0.86491776913E+03  0.00000000000E+00 0. -1.
         25    1    1    2    0    0  0.25737396417E+02  0.55268552545E+02 -0.42167295191E+03  0.44401588355E+03  0.12500000000E+03 0.  0.
         25    1    1    2    0    0  0.11250959302E+03 -0.40587358614E+01 -0.18337503527E+03  0.24884992549E+03  0.12500000000E+03 0.  0.
         25    1    1    2    0    0 -0.13824698943E+03 -0.51209816684E+02 -0.17271267143E+03  0.25920907061E+03  0.12500000000E+03 0.  0.
</event>
<event>
 5    0  0.5452999E-005  0.3031090E+03  0.7546771E-02  0.1083697E+00
         21   -1    0    0  502  501  0.00000000000E+00  0.00000000000E+00  0.36602831845E+03  0.36602831845E+03  0.00000000000E+00 0.  1.
         21   -1    0    0  501  502 -0.00000000000E+00 -0.00000000000E+00 -0.25100531995E+03  0.25100531995E+03  0.00000000000E+00 0.  1.
         25    1    1    2    0    0 -0.28125730128E+02 -0.61337996518E+02 -0.11674838480E+03  0.18387112842E+03  0.12500000000E+03 0.  0.
         25    1    1    2    0    0 -0.14757722872E+02  0.61945982195E+02 -0.26757924487E+02  0.14281485083E+03  0.12500000000E+03 0.  0.
         25    1    1    2    0    0  0.42883453000E+02 -0.60798567636E+00  0.25852930779E+03  0.29034765915E+03  0.12500000000E+03 0.  0.
</event>
<event>
 5    0  0.5452999E-005  0.2481889E+03  0.7546771E-02  0.1114455E+00
         21   -1    0    0  502  501  0.00000000000E+00  0.00000000000E+00  0.42710445547E+03  0.42710445547E+03  0.00000000000E+00 0.  1.
         21   -1    0    0  501  502 -0.00000000000E+00 -0.00000000000E+00 -0.14422174720E+03  0.14422174720E+03  0.00000000000E+00 0.  1.
         25    1    1    2    0    0 -0.54137220394E+02 -0.12345140691E+03  0.10349184321E+03  0.21096599278E+03  0.12500000000E+03 0.  0.
         25    1    1    2    0    0 -0.44119650483E+01  0.75648688896E+02  0.15357658731E+03  0.21202112569E+03  0.12500000000E+03 0.  0.
         25    1    1    2    0    0  0.58549185442E+02  0.47802718014E+02  0.25814277754E+02  0.14833908420E+03  0.12500000000E+03 0.  0.
</event>
<event>
 5    0  0.5452999E-005  0.2827258E+03  0.7546771E-02  0.1094209E+00
         21   -1    0    0  502  501  0.00000000000E+00  0.00000000000E+00  0.24634037707E+03  0.24634037707E+03  0.00000000000E+00 0. -1.
         21   -1    0    0  501  502 -0.00000000000E+00 -0.00000000000E+00 -0.32448558607E+03  0.32448558607E+03  0.00000000000E+00 0. -1.
         25    1    1    2    0    0  0.68878986230E+02  0.30658437050E+02 -0.20555533209E+03  0.25211554703E+03  0.12500000000E+03 0.  0.
         25    1    1    2    0    0 -0.74879317613E+01 -0.30896177685E+02 -0.14346504794E+01  0.12898721309E+03  0.12500000000E+03 0.  0.
         25    1    1    2    0    0 -0.61391054468E+02  0.23774063520E+00  0.12884477357E+03  0.18972320302E+03  0.12500000000E+03 0.  0.
</event>
<event>
 5    0  0.5452999E-005  0.2507380E+03  0.7546771E-02  0.1112839E+00
         21   -1    0    0  502  501  0.00000000000E+00  0.00000000000E+00  0.89404468420E+03  0.89404468420E+03  0.00000000000E+00 0.  1.
         21   -1    0    0  501  502 -0.00000000000E+00 -0.00000000000E+00 -0.70320355287E+02  0.70320355287E+02  0.00000000000E+00 0.  1.
         25    1    1    2    0    0 -0.10157989766E+03  0.16282582108E+02  0.52678729835E+03  0.55110203755E+03  0.12500000000E+03 0.  0.
         25    1    1    2    0    0  0.23498584572E+02 -0.36631509606E+02  0.97259653205E+02  0.16425130476E+03  0.12500000000E+03 0.  0.
         25    1    1    2    0    0  0.78081313087E+02  0.20348927498E+02  0.19967737735E+03  0.24901169717E+03  0.12500000000E+03 0.  0.
</event>
<event>
 5    0  0.5452999E-005  0.3589209E+03  0.7546771E-02  0.1059012E+00
         21   -1    0    0  502  501  0.00000000000E+00  0.00000000000E+00  0.23026329499E+03  0.23026329499E+03  0.00000000000E+00 0.  1.
         21   -1    0    0  501  502 -0.00000000000E+00 -0.00000000000E+00 -0.55946475064E+03  0.55946475064E+03  0.00000000000E+00 0.  1.
         25    1    1    2    0    0  0.39419615793E+02 -0.35315785345E+02 -0.10562519516E+03  0.17199649024E+03  0.12500000000E+03 0.  0.
         25    1    1    2    0    0  0.17094266931E+03 -0.42531823876E+02  0.70604247075E+02  0.22724504821E+03  0.12500000000E+03 0.  0.
         25    1    1    2    0    0 -0.21036228510E+03  0.77847609221E+02 -0.29418050756E+03  0.39048650717E+03  0.12500000000E+03 0.  0.
</event>
<event>
 5    0  0.5452999E-005  0.2793448E+03  0.7546771E-02  0.1096047E+00
         21   -1    0    0  502  501  0.00000000000E+00  0.00000000000E+00  0.64311324375E+03  0.64311324375E+03  0.00000000000E+00 0.  1.
         21   -1    0    0  501  502 -0.00000000000E+00 -0.00000000000E+00 -0.12133711658E+03  0.12133711658E+03  0.00000000000E+00 0.  1.
         25    1    1    2    0    0  0.72783730053E+02 -0.29339587295E+02  0.19104240203E+02  0.14882289722E+03  0.12500000000E+03 0.  0.
         25    1    1    2    0    0 -0.89008871533E+02  0.95090473664E+02  0.14771391000E+03  0.23325774714E+03  0.12500000000E+03 0.  0.
         25    1    1    2    0    0  0.16225141480E+02 -0.65750886368E+02  0.35495797697E+03  0.38236971597E+03  0.12500000000E+03 0.  0.
</event>
<event>
 5    0  0.5452999E-005  0.3582278E+03  0.7546771E-02  0.1059288E+00
         21   -1    0    0  502  501  0.00000000000E+00  0.00000000000E+00  0.71351981699E+02  0.71351981699E+02  0.00000000000E+00 0.  1.
         21   -1    0    0  501  502 -0.00000000000E+00 -0.00000000000E+00 -0.17985089515E+04  0.17985089515E+04  0.00000000000E+00 0.  1.
         25    1    1    2    0    0  0.49907128439E+02  0.47379655520E+02 -0.63964474475E+02  0.15637137596E+03  0.12500000000E+03 0.  0.
         25    1    1    2    0    0  0.13448136860E+03  0.33787850086E+01 -0.74493198194E+03  0.76723224151E+03  0.12500000000E+03 0.  0.
         25    1    1    2    0    0 -0.18438849704E+03 -0.50758440528E+02 -0.91826051342E+03  0.94625731577E+03  0.12500000000E+03 0.  0.
</event>
<event>
 5    0  0.5452999E-005  0.2753568E+03  0.7546771E-02  0.1098252E+00
         21   -1    0    0  502  501  0.00000000000E+00  0.00000000000E+00  0.10754138871E+03  0.10754138871E+03  0.00000000000E+00 0.  1.
         21   -1    0    0  501  502 -0.00000000000E+00 -0.00000000000E+00 -0.70504361225E+03  0.70504361225E+03  0.00000000000E+00 0.  1.
         25    1    1    2    0    0  0.10121303144E+03 -0.10189471809E+03 -0.22130977745E+03  0.29194113945E+03  0.12500000000E+03 0.  0.
         25    1    1    2    0    0 -0.41759138044E+02  0.50393598811E+02 -0.34068328356E+03  0.36874576623E+03  0.12500000000E+03 0.  0.
         25    1    1    2    0    0 -0.59453893400E+02  0.51501119281E+02 -0.35509162525E+02  0.15189809528E+03  0.12500000000E+03 0.  0.
</event>
<event>
 5    0  0.5452999E-005  0.4968646E+03  0.7546771E-02  0.1014601E+00
         21   -1    0    0  502  501  0.00000000000E+00  0.00000000000E+00  0.16229220716E+03  0.16229220716E+03  0.00000000000E+00 0.  1.
         21   -1    0    0  501  502 -0.00000000000E+00 -0.00000000000E+00 -0.15211724650E+04  0.15211724650E+04  0.00000000000E+00 0.  1.
         25    1    1    2    0    0  0.19247231933E+03  0.17206574647E+03 -0.58850328749E+03  0.65468567588E+03  0.12500000000E+03 0.  0.
         25    1    1    2    0    0 -0.19618651497E+03 -0.36808172900E+03 -0.59614043024E+03  0.73822877243E+03  0.12500000000E+03 0.  0.
         25    1    1    2    0    0  0.37141956373E+01  0.19601598253E+03 -0.17423654008E+03  0.29055022381E+03  0.12500000000E+03 0.  0.
</event>
<event>
 5    0  0.5452999E-005  0.2792716E+03  0.7546771E-02  0.1096087E+00
         21   -1    0    0  502  501  0.00000000000E+00  0.00000000000E+00  0.45781177913E+03  0.45781177913E+03  0.00000000000E+00 0.  1.
         21   -1    0    0  501  502 -0.00000000000E+00 -0.00000000000E+00 -0.17035957249E+03  0.17035957249E+03  0.00000000000E+00 0.  1.
         25    1    1    2    0    0 -0.19326825011E+01 -0.17406747808E+03  0.11948099176E+03  0.24536489068E+03  0.12500000000E+03 0.  0.
         25    1    1    2    0    0  0.70050335492E+02  0.40801105617E+02  0.73056085258E+02  0.16593363527E+03  0.12500000000E+03 0.  0.
         25    1    1    2    0    0 -0.68117652991E+02  0.13326637247E+03  0.94915129626E+02  0.21687282566E+03  0.12500000000E+03 0.  0.
</event>
<event>
 5    0  0.5452999E-005  0.2700497E+03  0.7546771E-02  0.1101251E+00
         21   -1    0    0  502  501  0.00000000000E+00  0.00000000000E+00  0.10854513543E+03  0.10854513543E+03  0.00000000000E+00 0.  1.
         21   -1    0    0  501  502 -0.00000000000E+00 -0.00000000000E+00 -0.67185752570E+03  0.67185752570E+03  0.00000000000E+00 0.  1.
         25    1    1    2    0    0 -0.10107595242E+02 -0.94998644733E+02 -0.83598241706E+02  0.17815883924E+03  0.12500000000E+03 0.  0.
         25    1    1    2    0    0  0.10428727459E+03 -0.56703801637E+01 -0.31092570310E+03  0.35100966041E+03  0.12500000000E+03 0.  0.
         25    1    1    2    0    0 -0.94179679349E+02  0.10066902490E+03 -0.16878844547E+03  0.25123416149E+03  0.12500000000E+03 0.  0.
</event>
<event>
 5    0  0.5452999E-005  0.3832713E+03  0.7546771E-02  0.1049731E+00
         21   -1    0    0  502  501  0.00000000000E+00  0.00000000000E+00  0.17067537605E+03  0.17067537605E+03  0.00000000000E+00 0. -1.
         21   -1    0    0  501  502 -0.00000000000E+00 -0.00000000000E+00 -0.86067983624E+03  0.86067983624E+03  0.00000000000E+00 0. -1.
         25    1    1    2    0    0 -0.10593863217E+02  0.21528004043E+02  0.49240480183E+02  0.13647457560E+03  0.12500000000E+03 0.  0.
         25    1    1    2    0    0 -0.11203676048E+03  0.43536125127E+02 -0.67564443429E+03  0.69754428639E+03  0.12500000000E+03 0.  0.
         25    1    1    2    0    0  0.12263062370E+03 -0.65064129170E+02 -0.63600506090E+02  0.19733635030E+03  0.12500000000E+03 0.  0.
</event>
<event>
 5    0  0.5452999E-005  0.2879431E+03  0.7546771E-02  0.1091428E+00
         21   -1    0    0  502  501  0.00000000000E+00  0.00000000000E+00  0.43883530358E+02  0.43883530358E+02  0.00000000000E+00 0. -1.
         21   -1    0    0  501  502 -0.00000000000E+00 -0.00000000000E+00 -0.18893476934E+04  0.18893476934E+04  0.00000000000E+00 0. -1.
         25    1    1    2    0    0  0.61654259075E+02  0.10894528904E+03 -0.32767060345E+03  0.37237527849E+03  0.12500000000E+03 0.  0.
         25    1    1    2    0    0 -0.68003358538E+02 -0.10041710194E+03 -0.12819117319E+04  0.12936888109E+04  0.12500000000E+03 0.  0.
         25    1    1    2    0    0  0.63490994628E+01 -0.85281871037E+01 -0.23588182775E+03  0.26716713440E+03  0.12500000000E+03 0.  0.
</event>
<event>
 5    0  0.5452999E-005  0.2412289E+03  0.7546771E-02  0.1118977E+00
         21   -1    0    0  502  501  0.00000000000E+00  0.00000000000E+00  0.10980990120E+03  0.10980990120E+03  0.00000000000E+00 0.  1.
         21   -1    0    0  501  502 -0.00000000000E+00 -0.00000000000E+00 -0.52992826306E+03  0.52992826306E+03  0.00000000000E+00 0.  1.
         25    1    1    2    0    0 -0.23470779917E+02 -0.12852380357E+02 -0.10351184302E+03  0.16448636064E+03  0.12500000000E+03 0.  0.
         25    1    1    2    0    0 -0.56617052284E+02  0.76764209803E+02 -0.26028512970E+03  0.30409140609E+03  0.12500000000E+03 0.  0.
         25    1    1    2    0    0  0.80087832201E+02 -0.63911829446E+02 -0.56321389143E+02  0.17116039754E+03  0.12500000000E+03 0.  0.
</event>
<event>
 5    0  0.5452999E-005  0.4564747E+03  0.7546771E-02  0.1025809E+00
         21   -1    0    0  502  501  0.00000000000E+00  0.00000000000E+00  0.40898872132E+03  0.40898872132E+03  0.00000000000E+00 0.  1.
         21   -1    0    0  501  502 -0.00000000000E+00 -0.00000000000E+00 -0.50947403196E+03  0.50947403196E+03  0.00000000000E+00 0.  1.
         25    1    1    2    0    0 -0.15190509414E+03  0.49023895131E+02 -0.18678072307E+03  0.27566381415E+03  0.12500000000E+03 0.  0.
         25    1    1    2    0    0 -0.18036927323E+02  0.16082176236E+03 -0.15751014432E+03  0.25811512075E+03  0.12500000000E+03 0.  0.
         25    1    1    2    0    0  0.16994202147E+03 -0.20984565749E+03  0.24380555674E+03  0.38468381838E+03  0.12500000000E+03 0.  0.
</event>
<event>
 5    0  0.5452999E-005  0.2740078E+03  0.7546771E-02  0.1099007E+00
         21   -1    0    0  502  501  0.00000000000E+00  0.00000000000E+00  0.13133043529E+04  0.13133043529E+04  0.00000000000E+00 0.  1.
         21   -1    0    0  501  502 -0.00000000000E+00 -0.00000000000E+00 -0.57169000395E+02  0.57169000395E+02  0.00000000000E+00 0.  1.
         25    1    1    2    0    0  0.19860582234E+02 -0.67282752492E+02  0.76593409575E+03  0.77923132030E+03  0.12500000000E+03 0.  0.
         25    1    1    2    0    0  0.30011509718E+02  0.12202375906E+03  0.33266781688E+03  0.37693947110E+03  0.12500000000E+03 0.  0.
         25    1    1    2    0    0 -0.49872091952E+02 -0.54741006570E+02  0.15753343992E+03  0.21430256193E+03  0.12500000000E+03 0.  0.
</event>
<event>
 5    0  0.5452999E-005  0.3893460E+03  0.7546771E-02  0.1047533E+00
         21   -1    0    0  502  501  0.00000000000E+00  0.00000000000E+00  0.49500785973E+03  0.49500785973E+03  0.00000000000E+00 0. -1.
         21   -1    0    0  501  502 -0.00000000000E+00 -0.00000000000E+00 -0.30623813442E+03  0.30623813442E+03  0.00000000000E+00 0. -1.
         25    1    1    2    0    0 -0.95354005631E+02 -0.23657261230E+02 -0.16987392896E+03  0.23266758292E+03  0.12500000000E+03 0.  0.
         25    1    1    2    0    0 -0.84261569537E+02  0.85613334660E+02  0.41406263629E+02  0.17823897958E+03  0.12500000000E+03 0.  0.
         25    1    1    2    0    0  0.17961557517E+03 -0.61956073430E+02  0.31723739065E+03  0.39033943166E+03  0.12500000000E+03 0.  0.
</event>
<event>
 5    0  0.5452999E-005  0.3245121E+03  0.7546771E-02  0.1073591E+00
         21   -1    0    0  502  501  0.00000000000E+00  0.00000000000E+00  0.18988842525E+03  0.18988842525E+03  0.00000000000E+00 0.  1.
         21   -1    0    0  501  502 -0.00000000000E+00 -0.00000000000E+00 -0.55457901101E+03  0.55457901101E+03  0.00000000000E+00 0.  1.
         25    1    1    2    0    0  0.28169617610E+02  0.66807363794E+02  0.15837604788E+02  0.14537049542E+03  0.12500000000E+03 0.  0.
         25    1    1    2    0    0 -0.22165135031E+02 -0.11540918346E+03  0.23664305488E+02  0.17319229830E+03  0.12500000000E+03 0.  0.
         25    1    1    2    0    0 -0.60044825796E+01  0.48601819662E+02 -0.40419249604E+03  0.42590464254E+03  0.12500000000E+03 0.  0.
</event>
<event>
 5    0  0.5452999E-005  0.2262990E+03  0.7546771E-02  0.1129272E+00
         21   -1    0    0  502  501  0.00000000000E+00  0.00000000000E+00  0.98908249180E+03  0.98908249180E+03  0.00000000000E+00 0. -1.
         21   -1    0    0  501  502 -0.00000000000E+00 -0.00000000000E+00 -0.51776488017E+02  0.51776488017E+02  0.00000000000E+00 0. -1.
         25    1    1    2    0    0 -0.89089522584E+01 -0.78169819553E+02  0.46866962544E+03  0.49139201045E+03  0.12500000000E+03 0.  0.
         25    1    1    2    0    0  0.18353666737E+02 -0.13647048465E+02  0.25929660890E+03  0.28876085331E+03  0.12500000000E+03 0.  0.
         25    1    1    2    0    0 -0.94447144782E+01  0.91816868018E+02  0.20933976944E+03  0.26070611607E+03  0.12500000000E+03 0.  0.
</event>
<event>
 5    0  0.5452999E-005  0.2772495E+03  0.7546771E-02  0.1097201E+00
         21   -1    0    0  502  501  0.00000000000E+00  0.00000000000E+00  0.45904218160E+03  0.45904218160E+03  0.00000000000E+00 0.  1.
         21   -1    0    0  501  502 -0.00000000000E+00 -0.00000000000E+00 -0.16745147686E+03  0.16745147686E+03  0.00000000000E+00 0.  1.
         25    1    1    2    0    0 -0.93710375146E+02  0.10631051261E+03  0.23426219977E+03  0.30097730436E+03  0.12500000000E+03 0.  0.
         25    1    1    2    0    0 -0.18629692378E+02 -0.10764511777E+02  0.16238975029E+02  0.12787354872E+03  0.12500000000E+03 0.  0.
         25    1    1    2    0    0  0.11234006752E+03 -0.95546000835E+02  0.41089529935E+02  0.19764280538E+03  0.12500000000E+03 0.  0.
</event>
<event>
 5    0  0.5452999E-005  0.2727977E+03  0.7546771E-02  0.1099689E+00
         21   -1    0    0  502  501  0.00000000000E+00  0.00000000000E+00  0.95076079684E+02  0.95076079684E+02  0.00000000000E+00 0.  1.
         21   -1    0    0  501  502 -0.00000000000E+00 -0.00000000000E+00 -0.78272652113E+03  0.78272652113E+03  0.00000000000E+00 0.  1.
         25    1    1    2    0    0 -0.55854045289E+02  0.17531256644E+02 -0.34040112933E+02  0.14216451253E+03  0.12500000000E+03 0.  0.
         25    1    1    2    0    0  0.16297997222E+02  0.83305500295E+02 -0.44163638885E+03  0.46676881971E+03  0.12500000000E+03 0.  0.
         25    1    1    2    0    0  0.39556048066E+02 -0.10083675694E+03 -0.21197393966E+03  0.26886926857E+03  0.12500000000E+03 0.  0.
</event>
<event>
 5    0  0.5452999E-005  0.3066169E+03  0.7546771E-02  0.1081979E+00
         21   -1    0    0  502  501  0.00000000000E+00  0.00000000000E+00  0.46723942348E+02  0.46723942348E+02  0.00000000000E+00 0. -1.
         21   -1    0    0  501  502 -0.00000000000E+00 -0.00000000000E+00 -0.20121146527E+04  0.20121146527E+04  0.00000000000E+00 0. -1.
         25    1    1    2    0    0 -0.98948486672E+02  0.43936326766E+02 -0.57927781017E+03  0.60241927690E+03  0.12500000000E+03 0.  0.
         25    1    1    2    0    0 -0.74888743220E+02 -0.62034270785E+00 -0.10179380074E+04  0.10283148816E+04  0.12500000000E+03 0.  0.
         25    1    1    2    0    0  0.17383722989E+03 -0.43315984059E+02 -0.36817489279E+03  0.42810443662E+03  0.12500000000E+03 0.  0.
</event>
<event>
 5    0  0.5452999E-005  0.5314000E+03  0.7546771E-02  0.1005893E+00
         21   -1    0    0  502  501  0.00000000000E+00  0.00000000000E+00  0.63303120198E+03  0.63303120198E+03  0.00000000000E+00 0. -1.
         21   -1    0    0  501  502 -0.00000000000E+00 -0.00000000000E+00 -0.44608531172E+03  0.44608531172E+03  0.00000000000E+00 0. -1.
         25    1    1    2    0    0  0.10678781404E+03 -0.43156219552E+02  0.47451189230E+02  0.17647297774E+03  0.12500000000E+03 0.  0.
         25    1    1    2    0    0 -0.23013498428E+03  0.58924224676E+02  0.46243735423E+03  0.53470317170E+03  0.12500000000E+03 0.  0.
         25    1    1    2    0    0  0.12334717024E+03 -0.15768005124E+02 -0.32294265320E+03  0.36794036425E+03  0.12500000000E+03 0.  0.
</event>
<event>
 5    0  0.5855201E-005  0.3283097E+03  0.7546771E-02  0.1071887E+00
         21   -1    0    0  502  501  0.00000000000E+00  0.00000000000E+00  0.14619124827E+03  0.14619124827E+03  0.00000000000E+00 0.  1.
         21   -1    0    0  501  502 -0.00000000000E+00 -0.00000000000E+00 -0.73730288799E+03  0.73730288799E+03  0.00000000000E+00 0.  1.
         25    1    1    2    0    0 -0.12675569359E+03 -0.11470742936E+03 -0.18511381275E+03  0.28127730779E+03  0.12500000000E+03 0.  0.
         25    1    1    2    0    0  0.19309181255E+03  0.75798024309E+02 -0.98426125197E+02  0.26142396731E+03  0.12500000000E+03 0.  0.
         25    1    1    2    0    0 -0.66336118964E+02  0.38909405052E+02 -0.30757170177E+03  0.34079286115E+03  0.12500000000E+03 0.  0.
</event>
<event>
 5    0  0.5452999E-005  0.2702821E+03  0.7546771E-02  0.1101118E+00
         21   -1    0    0  502  501  0.00000000000E+00  0.00000000000E+00  0.47141743589E+03  0.47141743589E+03  0.00000000000E+00 0. -1.
         21   -1    0    0  501  502 -0.00000000000E+00 -0.00000000000E+00 -0.15496333503E+03  0.15496333503E+03  0.00000000000E+00 0. -1.
         25    1    1    2    0    0  0.12844823099E+03  0.74186962188E+02  0.84812569694E+02  0.21170929451E+03  0.12500000000E+03 0.  0.
         25    1    1    2    0    0 -0.10374432438E+03 -0.85466423836E+02  0.46007285852E+02  0.18923283223E+03  0.12500000000E+03 0.  0.
         25    1    1    2    0    0 -0.24703906607E+02  0.11279461648E+02  0.18563424532E+03  0.22543864418E+03  0.12500000000E+03 0.  0.
</event>
<event>
 5    0  0.5452999E-005  0.3030995E+03  0.7546771E-02  0.1083701E+00
         21   -1    0    0  502  501  0.00000000000E+00  0.00000000000E+00  0.22824720808E+04  0.22824720808E+04  0.00000000000E+00 0. -1.
         21   -1    0    0  501  502 -0.00000000000E+00 -0.00000000000E+00 -0.40249927549E+02  0.40249927549E+02  0.00000000000E+00 0. -1.
         25    1    1    2    0    0  0.48311739646E+02  0.70272524352E+02  0.24462882978E+03  0.28764651262E+03  0.12500000000E+03 0.  0.
         25    1    1    2    0    0 -0.53111561706E+02  0.44409633739E+02  0.33984563421E+03  0.36866395084E+03  0.12500000000E+03 0.  0.
         25    1    1    2    0    0  0.47998220596E+01 -0.11468215809E+03  0.16577476892E+04  0.16664115448E+04  0.12500000000E+03 0.  0.
</event>
<event>
 5    0  0.5452999E-005  0.3608663E+03  0.7546771E-02  0.1058241E+00
         21   -1    0    0  502  501  0.00000000000E+00  0.00000000000E+00  0.37173916319E+03  0.37173916319E+03  0.00000000000E+00 0.  1.
         21   -1    0    0  501  502 -0.00000000000E+00 -0.00000000000E+00 -0.35031149423E+03  0.35031149423E+03  0.00000000000E+00 0.  1.
         25    1    1    2    0    0  0.70926810360E+02 -0.61418802411E+02  0.13701884950E+03  0.20785102077E+03  0.12500000000E+03 0.  0.
         25    1    1    2    0    0 -0.15881217265E+03  0.17665215630E+03  0.34966726714E+02  0.27069348438E+03  0.12500000000E+03 0.  0.
         25    1    1    2    0    0  0.87885362285E+02 -0.11523335389E+03 -0.15055790725E+03  0.24350615226E+03  0.12500000000E+03 0.  0.
</event>
<event>
 5    0  0.5452999E-005  0.3763162E+03  0.7546771E-02  0.1052304E+00
         21   -1    0    0  502  501  0.00000000000E+00  0.00000000000E+00  0.28779551685E+03  0.28779551685E+03  0.00000000000E+00 0. -1.
         21   -1    0    0  501  502 -0.00000000000E+00 -0.00000000000E+00 -0.49206421792E+03  0.49206421792E+03  0.00000000000E+00 0. -1.
         25    1    1    2    0    0  0.31751741017E+02 -0.21065431040E+03 -0.20876970491E+03  0.32340872165E+03  0.12500000000E+03 0.  0.
         25    1    1    2    0    0  0.90740865699E+01 -0.59537098819E+02 -0.56528150717E+02  0.14982468757E+03  0.12500000000E+03 0.  0.
         25    1    1    2    0    0 -0.40825827587E+02  0.27019140922E+03  0.61029154557E+02  0.30662632555E+03  0.12500000000E+03 0.  0.
</event>
<event>
 5    0  0.5452999E-005  0.2679929E+03  0.7546771E-02  0.1102434E+00
         21   -1    0    0  502  501  0.00000000000E+00  0.00000000000E+00  0.77071608197E+03  0.77071608197E+03  0.00000000000E+00 0. -1.
         21   -1    0    0  501  502 -0.00000000000E+00 -0.00000000000E+00 -0.93186315044E+02  0.93186315044E+02  0.00000000000E+00 0. -1.
         25    1    1    2    0    0 -0.62840607426E+02  0.10178331883E+03  0.16712870601E+03  0.24055309249E+03  0.12500000000E+03 0.  0.
         25    1    1    2    0    0  0.17694888731E+02  0.66576797578E+02  0.18604017235E+03  0.23448139540E+03  0.12500000000E+03 0.  0.
         25    1    1    2    0    0  0.45145718695E+02 -0.16836011641E+03  0.32436088857E+03  0.38886790913E+03  0.12500000000E+03 0.  0.
</event>
<event>
 5    0  0.5452999E-005  0.3786479E+03  0.7546771E-02  0.1051435E+00
         21   -1    0    0  502  501  0.00000000000E+00  0.00000000000E+00  0.37314211869E+03  0.37314211869E+03  0.00000000000E+00 0.  1.
         21   -1    0    0  501  502 -0.00000000000E+00 -0.00000000000E+00 -0.38423482577E+03  0.38423482577E+03  0.00000000000E+00 0.  1.
         25    1    1    2    0    0  0.19399144414E+03  0.21081738463E+03  0.10448731270E+03  0.32957434453E+03  0.12500000000E+03 0.  0.
         25    1    1    2    0    0 -0.37464085128E+01 -0.59753623935E+02 -0.34572797082E+02  0.14284540401E+03  0.12500000000E+03 0.  0.
         25    1    1    2    0    0 -0.19024503562E+03 -0.15106376069E+03 -0.81007222699E+02  0.28495719591E+03  0.12500000000E+03 0.  0.
</event>
<event>
 5    0  0.5452999E-005  0.3630295E+03  0.7546771E-02  0.1057391E+00
         21   -1    0    0  502  501  0.00000000000E+00  0.00000000000E+00  0.53386661920E+03  0.53386661920E+03  0.00000000000E+00 0. -1.
         21   -1    0    0  501  502 -0.00000000000E+00 -0.00000000000E+00 -0.24686016693E+03  0.24686016693E+03  0.00000000000E+00 0. -1.
         25    1    1    2    0    0  0.27997323258E+02 -0.17893948319E+03  0.21411458178E+03  0.30703948099E+03  0.12500000000E+03 0.  0.
         25    1    1    2    0    0 -0.90217366921E+02  0.19812645865E+02 -0.11283460137E+03  0.19206343092E+03  0.12500000000E+03 0.  0.
         25    1    1    2    0    0  0.62220043663E+02  0.15912683732E+03  0.18572647186E+03  0.28162387423E+03  0.12500000000E+03 0.  0.
</event>
<event>
 5    0  0.5452999E-005  0.3344893E+03  0.7546771E-02  0.1069168E+00
         21   -1    0    0  502  501  0.00000000000E+00  0.00000000000E+00  0.15357782001E+04  0.15357782001E+04  0.00000000000E+00 0. -1.
         21   -1    0    0  501  502 -0.00000000000E+00 -0.00000000000E+00 -0.72851093992E+02  0.72851093992E+02  0.00000000000E+00 0. -1.
         25    1    1    2    0    0  0.70762170463E+02 -0.87155571334E+02  0.84144115267E+03  0.85805104265E+03  0.12500000000E+03 0.  0.
         25    1    1    2    0    0  0.99672681859E+02  0.12867298449E+03  0.31584849880E+03  0.37666517578E+03  0.12500000000E+03 0.  0.
         25    1    1    2    0    0 -0.17043485232E+03 -0.41517413161E+02  0.30563745466E+03  0.37391307569E+03  0.12500000000E+03 0.  0.
</event>
<event>
 5    0  0.5452999E-005  0.3615413E+03  0.7546771E-02  0.1057975E+00
         21   -1    0    0  502  501  0.00000000000E+00  0.00000000000E+00  0.26287659380E+03  0.26287659380E+03  0.00000000000E+00 0.  1.
         21   -1    0    0  501  502 -0.00000000000E+00 -0.00000000000E+00 -0.49723750342E+03  0.49723750342E+03  0.00000000000E+00 0.  1.
         25    1    1    2    0    0 -0.38428482235E+02 -0.47755047532E+02 -0.36433313245E+03  0.39002682499E+03  0.12500000000E+03 0.  0.
         25    1    1    2    0    0  0.10963892464E+03 -0.48604506426E+02  0.59838390023E+02  0.18327226948E+03  0.12500000000E+03 0.  0.
         25    1    1    2    0    0 -0.71210442406E+02  0.96359553958E+02  0.70133832800E+02  0.18681500274E+03  0.12500000000E+03 0.  0.
</event>
<event>
 5    0  0.5452999E-005  0.4473008E+03  0.7546771E-02  0.1028530E+00
         21   -1    0    0  502  501  0.00000000000E+00  0.00000000000E+00  0.98034728452E+02  0.98034728452E+02  0.00000000000E+00 0. -1.
         21   -1    0    0  501  502 -0.00000000000E+00 -0.00000000000E+00 -0.20408894244E+04  0.20408894244E+04  0.00000000000E+00 0.  1.
         25    1    1    2    0    0 -0.27227246253E+03 -0.20376965693E+03 -0.10904264415E+04  0.11490470797E+04  0.12500000000E+03 0.  0.
         25    1    1    2    0    0  0.65973080155E+02 -0.84447805056E+01 -0.46759353576E+03  0.48856164023E+03  0.12500000000E+03 0.  0.
         25    1    1    2    0    0  0.20629938238E+03  0.21221443743E+03 -0.38483471869E+03  0.50131543297E+03  0.12500000000E+03 0.  0.
</event>
<event>
 5    0  0.5452999E-005  0.2249898E+03  0.7546771E-02  0.1130217E+00
         21   -1    0    0  502  501  0.00000000000E+00  0.00000000000E+00  0.25314424748E+03  0.25314424748E+03  0.00000000000E+00 0. -1.
         21   -1    0    0  501  502 -0.00000000000E+00 -0.00000000000E+00 -0.19996659171E+03  0.19996659171E+03  0.00000000000E+00 0. -1.
         25    1    1    2    0    0 -0.11065657458E+02  0.10138685779E+02  0.17374851687E+02  0.12709101933E+03  0.12500000000E+03 0.  0.
         25    1    1    2    0    0  0.62467920628E+02 -0.61101947910E+02  0.83533970979E+02  0.17389253421E+03  0.12500000000E+03 0.  0.
         25    1    1    2    0    0 -0.51402263170E+02  0.50963262131E+02 -0.47731166894E+02  0.15212728565E+03  0.12500000000E+03 0.  0.
</event>
<event>
 5    0  0.6046787E-005  0.2785002E+03  0.7546771E-02  0.1096511E+00
         21   -1    0    0  502  501  0.00000000000E+00  0.00000000000E+00  0.38464883376E+03  0.38464883376E+03  0.00000000000E+00 0. -1.
         21   -1    0    0  501  502 -0.00000000000E+00 -0.00000000000E+00 -0.20164467415E+03  0.20164467415E+03  0.00000000000E+00 0. -1.
         25    1    1    2    0    0 -0.48850462969E+02 -0.10183767778E+03  0.20209035712E+03  0.26310224778E+03  0.12500000000E+03 0.  0.
         25    1    1    2    0    0  0.34524389674E+02  0.11946825077E+03  0.43434765832E+02  0.18159343410E+03  0.12500000000E+03 0.  0.
         25    1    1    2    0    0  0.14326073295E+02 -0.17630572985E+02 -0.62520963333E+02  0.14159782603E+03  0.12500000000E+03 0.  0.
</event>
<event>
 5    0  0.5452999E-005  0.3654840E+03  0.7546771E-02  0.1056433E+00
         21   -1    0    0  502  501  0.00000000000E+00  0.00000000000E+00  0.13969660734E+03  0.13969660734E+03  0.00000000000E+00 0. -1.
         21   -1    0    0  501  502 -0.00000000000E+00 -0.00000000000E+00 -0.95620457513E+03  0.95620457513E+03  0.00000000000E+00 0. -1.
         25    1    1    2    0    0 -0.55926506477E+02  0.20315277589E+03 -0.42592710752E+03  0.49136312987E+03  0.12500000000E+03 0.  0.
         25    1    1    2    0    0 -0.13142687205E+03 -0.13186859673E+03 -0.17095125445E+03  0.28197815677E+03  0.12500000000E+03 0.  0.
         25    1    1    2    0    0  0.18735337853E+03 -0.71284179160E+02 -0.21962960581E+03  0.32255989582E+03  0.12500000000E+03 0.  0.
</event>
<event>
 5    0  0.5782911E-005  0.2841732E+03  0.7546771E-02  0.1093431E+00
         21   -1    0    0  502  501  0.00000000000E+00  0.00000000000E+00  0.91761179905E+02  0.91761179905E+02  0.00000000000E+00 0.  1.
         21   -1    0    0  501  502 -0.00000000000E+00 -0.00000000000E+00 -0.88004984060E+03  0.88004984060E+03  0.00000000000E+00 0.  1.
         25    1    1    2    0    0 -0.32631341363E+02  0.10925908342E+02 -0.45777662217E+02  0.13749463361E+03  0.12500000000E+03 0.  0.
         25    1    1    2    0    0  0.32577242394E+02  0.76122649605E+02 -0.62276470087E+03  0.64055976080E+03  0.12500000000E+03 0.  0.
         25    1    1    2    0    0  0.54098969267E-01 -0.87048557947E+02 -0.11974629761E+03  0.19375662610E+03  0.12500000000E+03 0.  0.
</event>
<event>
 5    0  0.5452999E-005  0.3014710E+03  0.7546771E-02  0.1084508E+00
         21   -1    0    0  502  501  0.00000000000E+00  0.00000000000E+00  0.37153869444E+04  0.37153869444E+04  0.00000000000E+00 0.  1.
         21   -1    0    0  501  502 -0.00000000000E+00 -0.00000000000E+00 -0.24461722069E+02  0.24461722069E+02  0.00000000000E+00 0.  1.
         25    1    1    2    0    0  0.19191646602E+03 -0.59072572599E+02  0.13155803744E+04  0.13366743135E+04  0.12500000000E+03 0.  0.
         25    1    1    2    0    0 -0.14858041756E+03 -0.36517517706E+02  0.14723666443E+04  0.14855632618E+04  0.12500000000E+03 0.  0.
         25    1    1    2    0    0 -0.43336048462E+02  0.95590090306E+02  0.90297820366E+03  0.91761109123E+03  0.12500000000E+03 0.  0.
</event>
<event>
 5    0  0.5452999E-005  0.2689015E+03  0.7546771E-02  0.1101910E+00
         21   -1    0    0  502  501  0.00000000000E+00  0.00000000000E+00  0.63922178721E+03  0.63922178721E+03  0.00000000000E+00 0. -1.
         21   -1    0    0  501  502 -0.00000000000E+00 -0.00000000000E+00 -0.11311884813E+03  0.11311884813E+03  0.00000000000E+00 0. -1.
         25    1    1    2    0    0  0.73853166520E+01 -0.92176354324E+02  0.29408106444E+03  0.33265552101E+03  0.12500000000E+03 0.  0.
         25    1    1    2    0    0  0.73894274238E+02  0.11444978313E+03  0.68235779878E+02  0.19707926902E+03  0.12500000000E+03 0.  0.
         25    1    1    2    0    0 -0.81279590890E+02 -0.22273428804E+02  0.16378609476E+03  0.22260584531E+03  0.12500000000E+03 0.  0.
</event>
<event>
 5    0  0.5452999E-005  0.4017943E+03  0.7546771E-02  0.1043160E+00
         21   -1    0    0  502  501  0.00000000000E+00  0.00000000000E+00  0.32758702010E+03  0.32758702010E+03  0.00000000000E+00 0. -1.
         21   -1    0    0  501  502 -0.00000000000E+00 -0.00000000000E+00 -0.49281153111E+03  0.49281153111E+03  0.00000000000E+00 0. -1.
         25    1    1    2    0    0  0.23437289419E+03 -0.10848597171E+03  0.71224125802E+02  0.29563108037E+03  0.12500000000E+03 0.  0.
         25    1    1    2    0    0 -0.81332866844E+02  0.99228674453E+02 -0.27010831654E+03  0.32410625993E+03  0.12500000000E+03 0.  0.
         25    1    1    2    0    0 -0.15304002734E+03  0.92572972585E+01  0.33659679722E+02  0.20066121090E+03  0.12500000000E+03 0.  0.
</event>
<event>
 5    0  0.5452999E-005  0.4127937E+03  0.7546771E-02  0.1039438E+00
         21   -1    0    0  502  501  0.00000000000E+00  0.00000000000E+00  0.24515832060E+03  0.24515832060E+03  0.00000000000E+00 0.  1.
         21   -1    0    0  501  502 -0.00000000000E+00 -0.00000000000E+00 -0.69505554904E+03  0.69505554904E+03  0.00000000000E+00 0.  1.
         25    1    1    2    0    0 -0.27768754709E+03  0.16180943656E+02 -0.15210849192E+03  0.34078466817E+03  0.12500000000E+03 0.  0.
         25    1    1    2    0    0  0.18570269199E+03  0.70291226429E+01 -0.36538767819E+03  0.42856511029E+03  0.12500000000E+03 0.  0.
         25    1    1    2    0    0  0.91984855093E+02 -0.23210066299E+02  0.67598941670E+02  0.17086409119E+03  0.12500000000E+03 0.  0.
</event>
<event>
 5    0  0.5452999E-005  0.3783132E+03  0.7546771E-02  0.1051559E+00
         21   -1    0    0  502  501  0.00000000000E+00  0.00000000000E+00  0.25653470427E+03  0.25653470427E+03  0.00000000000E+00 0. -1.
         21   -1    0    0  501  502 -0.00000000000E+00 -0.00000000000E+00 -0.55790067851E+03  0.55790067851E+03  0.00000000000E+00 0. -1.
         25    1    1    2    0    0 -0.29001926549E+03 -0.11658664987E+03 -0.15118522037E+03  0.36903332118E+03  0.12500000000E+03 0.  0.
         25    1    1    2    0    0  0.19665292060E+03  0.90689705209E+02 -0.14081927171E+03  0.28697048820E+03  0.12500000000E+03 0.  0.
         25    1    1    2    0    0  0.93366344889E+02  0.25896944658E+02 -0.93614821573E+01  0.15843157340E+03  0.12500000000E+03 0.  0.
</event>
<event>
 5    0  0.5452999E-005  0.3441415E+03  0.7546771E-02  0.1065046E+00
         21   -1    0    0  502  501  0.00000000000E+00  0.00000000000E+00  0.10877031928E+03  0.10877031928E+03  0.00000000000E+00 0.  1.
         21   -1    0    0  501  502 -0.00000000000E+00 -0.00000000000E+00 -0.10888392001E+04  0.10888392001E+04  0.00000000000E+00 0.  1.
         25    1    1    2    0    0 -0.14518601486E+03  0.10543279646E+03 -0.31892353857E+03  0.38669403529E+03  0.12500000000E+03 0.  0.
         25    1    1    2    0    0  0.17537017606E+02  0.91042526311E+02 -0.43537472042E+03  0.46235531333E+03  0.12500000000E+03 0.  0.
         25    1    1    2    0    0  0.12764899726E+03 -0.19647532277E+03 -0.22577062186E+03  0.34856017077E+03  0.12500000000E+03 0.  0.
</event>
<event>
 5    0  0.5452999E-005  0.2726628E+03  0.7546771E-02  0.1099765E+00
         21   -1    0    0  502  501  0.00000000000E+00  0.00000000000E+00  0.41002477922E+02  0.41002477922E+02  0.00000000000E+00 0. -1.
         21   -1    0    0  501  502 -0.00000000000E+00 -0.00000000000E+00 -0.18131830004E+04  0.18131830004E+04  0.00000000000E+00 0. -1.
         25    1    1    2    0    0 -0.71641839256E+01  0.12721556568E+03 -0.44796851653E+03  0.48221978130E+03  0.12500000000E+03 0.  0.
         25    1    1    2    0    0  0.15092691346E+02  0.81388205112E+01 -0.23010581947E+03  0.26242659523E+03  0.12500000000E+03 0.  0.
         25    1    1    2    0    0 -0.79285074205E+01 -0.13535438619E+03 -0.10941061865E+04  0.11095391018E+04  0.12500000000E+03 0.  0.
</event>
<event>
 5    0  0.5452999E-005  0.3719710E+03  0.7546771E-02  0.1053942E+00
         21   -1    0    0  502  501  0.00000000000E+00  0.00000000000E+00  0.12148497241E+04  0.12148497241E+04  0.00000000000E+00 0.  1.
         21   -1    0    0  501  502 -0.00000000000E+00 -0.00000000000E+00 -0.11389260729E+03  0.11389260729E+03  0.00000000000E+00 0.  1.
         25    1    1    2    0    0  0.20074183602E+02 -0.17971918640E+03  0.10752805084E+03  0.24472278301E+03  0.12500000000E+03 0.  0.
         25    1    1    2    0    0  0.17943216918E+02 -0.45875017039E+02  0.57922655662E+03  0.59460481004E+03  0.12500000000E+03 0.  0.
         25    1    1    2    0    0 -0.38017400520E+02  0.22559420344E+03  0.41420250935E+03  0.48941473835E+03  0.12500000000E+03 0.  0.
</event>
<event>
 5    0  0.5452999E-005  0.3965832E+03  0.7546771E-02  0.1044969E+00
         21   -1    0    0  502  501  0.00000000000E+00  0.00000000000E+00  0.77615258289E+02  0.77615258289E+02  0.00000000000E+00 0.  1.
         21   -1    0    0  501  502 -0.00000000000E+00 -0.00000000000E+00 -0.20263830480E+04  0.20263830480E+04  0.00000000000E+00 0.  1.
         25    1    1    2    0    0 -0.38056365816E+02  0.38391834065E+02 -0.46994829894E+02  0.14406850433E+03  0.12500000000E+03 0.  0.
         25    1    1    2    0    0 -0.53737585265E+02  0.26295349497E+02 -0.16687556250E+03  0.21691386962E+03  0.12500000000E+03 0.  0.
         25    1    1    2    0    0  0.91793951081E+02 -0.64687183562E+02 -0.17348973973E+04  0.17430159323E+04  0.12500000000E+03 0.  0.
</event>
<event>
 5    0  0.5452999E-005  0.2564816E+03  0.7546771E-02  0.1109276E+00
         21   -1    0    0  502  501  0.00000000000E+00  0.00000000000E+00  0.17705984581E+03  0.17705984581E+03  0.00000000000E+00 0.  1.
         21   -1    0    0  501  502 -0.00000000000E+00 -0.00000000000E+00 -0.37152857800E+03  0.37152857800E+03  0.00000000000E+00 0.  1.
         25    1    1    2    0    0 -0.57752333831E+02 -0.72781829985E+02 -0.10042618159E+03  0.18531849554E+03  0.12500000000E+03 0.  0.
         25    1    1    2    0    0  0.14116311555E+03  0.29078928982E+02 -0.25725025298E+02  0.19250814588E+03  0.12500000000E+03 0.  0.
         25    1    1    2    0    0 -0.83410781720E+02  0.43702901003E+02 -0.68317525301E+02  0.17076178239E+03  0.12500000000E+03 0.  0.
</event>
<event>
 5    0  0.5452999E-005  0.2461302E+03  0.7546771E-02  0.1115775E+00
         21   -1    0    0  502  501  0.00000000000E+00  0.00000000000E+00  0.69858496929E+03  0.69858496929E+03  0.00000000000E+00 0. -1.
         21   -1    0    0  501  502 -0.00000000000E+00 -0.00000000000E+00 -0.86718282679E+02  0.86718282679E+02  0.00000000000E+00 0. -1.
         25    1    1    2    0    0  0.10371242217E+03  0.91830500897E+02  0.23557534825E+03  0.30051597646E+03  0.12500000000E+03 0.  0.
         25    1    1    2    0    0 -0.89666560572E+02 -0.85722000896E+02  0.25531236680E+03  0.31015763438E+03  0.12500000000E+03 0.  0.
         25    1    1    2    0    0 -0.14045861597E+02 -0.61085000009E+01  0.12097897157E+03  0.17462964113E+03  0.12500000000E+03 0.  0.
</event>
<event>
 5    0  0.5452999E-005  0.4701588E+03  0.7546771E-02  0.1021875E+00
         21   -1    0    0  502  501  0.00000000000E+00  0.00000000000E+00  0.24865751866E+03  0.24865751866E+03  0.00000000000E+00 0. -1.
         21   -1    0    0  501  502 -0.00000000000E+00 -0.00000000000E+00 -0.88897100332E+03  0.88897100332E+03  0.00000000000E+00 0. -1.
         25    1    1    2    0    0 -0.97372668953E+02 -0.19988216613E+03 -0.76867361726E+02  0.26639802607E+03  0.12500000000E+03 0.  0.
         25    1    1    2    0    0  0.17855970222E+03  0.15704499891E+03 -0.64304820599E+03  0.69690938734E+03  0.12500000000E+03 0.  0.
         25    1    1    2    0    0 -0.81187033268E+02  0.42837167220E+02  0.79602083060E+02  0.17432110857E+03  0.12500000000E+03 0.  0.
</event>
<event>
 5    0  0.6262377E-005  0.4367196E+03  0.7546771E-02  0.1031758E+00
         21   -1    0    0  502  501  0.00000000000E+00  0.00000000000E+00  0.80414407835E+03  0.80414407835E+03  0.00000000000E+00 0.  1.
         21   -1    0    0  501  502 -0.00000000000E+00 -0.00000000000E+00 -0.23717641478E+03  0.23717641478E+03  0.00000000000E+00 0.  1.
         25    1    1    2    0    0  0.60666261476E+02 -0.25920587733E+03  0.24177660358E+03  0.38072169384E+03  0.12500000000E+03 0.  0.
         25    1    1    2    0    0 -0.19346521616E+03  0.29814053046E+02  0.13308937562E+02  0.23263661673E+03  0.12500000000E+03 0.  0.
         25    1    1    2    0    0  0.13279895469E+03  0.22939182428E+03  0.31188212243E+03  0.42796218256E+03  0.12500000000E+03 0.  0.
</event>
<event>
 5    0  0.5452999E-005  0.2716208E+03  0.7546771E-02  0.1100356E+00
         21   -1    0    0  502  501  0.00000000000E+00  0.00000000000E+00  0.90687110284E+03  0.90687110284E+03  0.00000000000E+00 0.  1.
         21   -1    0    0  501  502 -0.00000000000E+00 -0.00000000000E+00 -0.81354320827E+02  0.81354320827E+02  0.00000000000E+00 0.  1.
         25    1    1    2    0    0  0.13153999925E+03 -0.10886312464E+02  0.45670184504E+03  0.49155148099E+03  0.12500000000E+03 0.  0.
         25    1    1    2    0    0 -0.15621893698E+03 -0.21256337244E+02  0.22741407925E+03  0.30364181462E+03  0.12500000000E+03 0.  0.
         25    1    1    2    0    0  0.24678937729E+02  0.32142649708E+02  0.14140085772E+03  0.19303212806E+03  0.12500000000E+03 0.  0.
</event>
<event>
 5    0  0.5452999E-005  0.2998331E+03  0.7546771E-02  0.1085324E+00
         21   -1    0    0  502  501  0.00000000000E+00  0.00000000000E+00  0.15774820511E+03  0.15774820511E+03  0.00000000000E+00 0.  1.
         21   -1    0    0  501  502 -0.00000000000E+00 -0.00000000000E+00 -0.56989483600E+03  0.56989483600E+03  0.00000000000E+00 0.  1.
         25    1    1    2    0    0 -0.15951023355E+03  0.52298555785E+02 -0.21651682755E+03  0.30113649755E+03  0.12500000000E+03 0.  0.
         25    1    1    2    0    0  0.67047870559E+02 -0.14042980011E+03 -0.11585859270E+03  0.23079029271E+03  0.12500000000E+03 0.  0.
         25    1    1    2    0    0  0.92462362996E+02  0.88131244328E+02 -0.79771210652E+02  0.19571625085E+03  0.12500000000E+03 0.  0.
</event>
<event>
 5    0  0.5452999E-005  0.2617857E+03  0.7546771E-02  0.1106075E+00
         21   -1    0    0  502  501  0.00000000000E+00  0.00000000000E+00  0.11140083377E+03  0.11140083377E+03  0.00000000000E+00 0. -1.
         21   -1    0    0  501  502 -0.00000000000E+00 -0.00000000000E+00 -0.61518184867E+03  0.61518184867E+03  0.00000000000E+00 0. -1.
         25    1    1    2    0    0  0.13915294090E+03  0.82376078184E+02 -0.27889044486E+03  0.34576616296E+03  0.12500000000E+03 0.  0.
         25    1    1    2    0    0 -0.43374048177E+02 -0.22954457230E+02 -0.13321924142E+03  0.18915755720E+03  0.12500000000E+03 0.  0.
         25    1    1    2    0    0 -0.95778892719E+02 -0.59421620955E+02 -0.91671328625E+02  0.19165896227E+03  0.12500000000E+03 0.  0.
</event>
<event>
 5    0  0.5676468E-005  0.3778184E+03  0.7546771E-02  0.1051743E+00
         21   -1    0    0  502  501  0.00000000000E+00  0.00000000000E+00  0.48831957462E+03  0.48831957462E+03  0.00000000000E+00 0. -1.
         21   -1    0    0  501  502 -0.00000000000E+00 -0.00000000000E+00 -0.29232234229E+03  0.29232234229E+03  0.00000000000E+00 0. -1.
         25    1    1    2    0    0 -0.13116899663E+03 -0.21058938327E+03 -0.23974666651E+02  0.27884221106E+03  0.12500000000E+03 0.  0.
         25    1    1    2    0    0 -0.66764191532E+01  0.81372036445E+02  0.23092741719E+03  0.27498809955E+03  0.12500000000E+03 0.  0.
         25    1    1    2    0    0  0.13784541579E+03  0.12921734683E+03 -0.10955518202E+02  0.22681160630E+03  0.12500000000E+03 0.  0.
</event>
<event>
 5    0  0.5452999E-005  0.3383740E+03  0.7546771E-02  0.1067491E+00
         21   -1    0    0  502  501  0.00000000000E+00  0.00000000000E+00  0.38474251235E+03  0.38474251235E+03  0.00000000000E+00 0. -1.
         21   -1    0    0  501  502 -0.00000000000E+00 -0.00000000000E+00 -0.29759377003E+03  0.29759377003E+03  0.00000000000E+00 0. -1.
         25    1    1    2    0    0 -0.94643248626E+02 -0.23643987980E+03  0.52902141592E+02  0.28859105644E+03  0.12500000000E+03 0.  0.
         25    1    1    2    0    0 -0.32674003601E+02  0.75236170333E+02  0.33807842245E+02  0.15328418717E+03  0.12500000000E+03 0.  0.
         25    1    1    2    0    0  0.12731725223E+03  0.16120370947E+03  0.43875847857E+00  0.24046103878E+03  0.12500000000E+03 0.  0.
</event>
<event>
 5    0  0.5452999E-005  0.3496458E+03  0.7546771E-02  0.1062761E+00
         21   -1    0    0  502  501  0.00000000000E+00  0.00000000000E+00  0.23695328449E+04  0.23695328449E+04  0.00000000000E+00 0.  1.
         21   -1    0    0  501  502 -0.00000000000E+00 -0.00000000000E+00 -0.51593376860E+02  0.51593376860E+02  0.00000000000E+00 0.  1.
         25    1    1    2    0    0 -0.52996825334E+02 -0.12094790170E+03  0.60706367133E+03  0.63370999634E+03  0.12500000000E+03 0.  0.
         25    1    1    2    0    0 -0.14120741454E+02  0.64222496355E+02  0.10936484955E+03  0.17863256896E+03  0.12500000000E+03 0.  0.
         25    1    1    2    0    0  0.67117566788E+02  0.56725405341E+02  0.16015109472E+04  0.16087836565E+04  0.12500000000E+03 0.  0.
</event>
<event>
 5    0  0.5452999E-005  0.3471851E+03  0.7546771E-02  0.1063776E+00
         21   -1    0    0  502  501  0.00000000000E+00  0.00000000000E+00  0.33704793076E+03  0.33704793076E+03  0.00000000000E+00 0. -1.
         21   -1    0    0  501  502 -0.00000000000E+00 -0.00000000000E+00 -0.35762715687E+03  0.35762715687E+03  0.00000000000E+00 0. -1.
         25    1    1    2    0    0 -0.59224319332E+02  0.57059483057E+02  0.82180439299E+01  0.14985273055E+03  0.12500000000E+03 0.  0.
         25    1    1    2    0    0  0.21144359820E+03  0.43062295110E+02  0.12169824461E+03  0.27748552975E+03  0.12500000000E+03 0.  0.
         25    1    1    2    0    0 -0.15221927886E+03 -0.10012177817E+03 -0.15049551465E+03  0.26733682734E+03  0.12500000000E+03 0.  0.
</event>
<event>
 5    0  0.5452999E-005  0.3619543E+03  0.7546771E-02  0.1057813E+00
         21   -1    0    0  502  501  0.00000000000E+00  0.00000000000E+00  0.90223863141E+03  0.90223863141E+03  0.00000000000E+00 0. -1.
         21   -1    0    0  501  502 -0.00000000000E+00 -0.00000000000E+00 -0.14520647563E+03  0.14520647563E+03  0.00000000000E+00 0. -1.
         25    1    1    2    0    0  0.79576373617E+02 -0.31232681961E+02  0.51353676811E+03  0.53539974959E+03  0.12500000000E+03 0.  0.
         25    1    1    2    0    0  0.94405944862E+02 -0.91481183021E+02  0.18338284084E+03  0.25794486928E+03  0.12500000000E+03 0.  0.
         25    1    1    2    0    0 -0.17398231848E+03  0.12271386498E+03  0.60112546829E+02  0.25410048817E+03  0.12500000000E+03 0.  0.
</event>
<event>
 5    0  0.5452999E-005  0.2830608E+03  0.7546771E-02  0.1094029E+00
         21   -1    0    0  502  501  0.00000000000E+00  0.00000000000E+00  0.73954328466E+03  0.73954328466E+03  0.00000000000E+00 0. -1.
         21   -1    0    0  501  502 -0.00000000000E+00 -0.00000000000E+00 -0.10834175481E+03  0.10834175481E+03  0.00000000000E+00 0. -1.
         25    1    1    2    0    0 -0.53804445468E+02  0.11082104556E+03  0.12473703313E+03  0.21531500163E+03  0.12500000000E+03 0.  0.
         25    1    1    2    0    0 -0.84394916881E+02  0.18820375040E+02  0.20316924995E+03  0.25373106361E+03  0.12500000000E+03 0.  0.
         25    1    1    2    0    0  0.13819936235E+03 -0.12964142060E+03  0.30329524677E+03  0.37883897424E+03  0.12500000000E+03 0.  0.
</event>
<event>
 5    0  0.5452999E-005  0.3832801E+03  0.7546771E-02  0.1049728E+00
         21   -1    0    0  502  501  0.00000000000E+00  0.00000000000E+00  0.45493516283E+03  0.45493516283E+03  0.00000000000E+00 0.  1.
         21   -1    0    0  501  502 -0.00000000000E+00 -0.00000000000E+00 -0.32291116486E+03  0.32291116486E+03  0.00000000000E+00 0.  1.
         25    1    1    2    0    0  0.13948659304E+02  0.34192588311E+02  0.76988366938E+02  0.15138000804E+03  0.12500000000E+03 0.  0.
         25    1    1    2    0    0 -0.86897783648E+02 -0.17146224027E+02 -0.24726200425E+03  0.29087577511E+03  0.12500000000E+03 0.  0.
         25    1    1    2    0    0  0.72949124344E+02 -0.17046364283E+02  0.30229763528E+03  0.33559054453E+03  0.12500000000E+03 0.  0.
</event>
<event>
 5    0  0.5452999E-005  0.3637534E+03  0.7546771E-02  0.1057108E+00
         21   -1    0    0  502  501  0.00000000000E+00  0.00000000000E+00  0.38501799802E+03  0.38501799802E+03  0.00000000000E+00 0.  1.
         21   -1    0    0  501  502 -0.00000000000E+00 -0.00000000000E+00 -0.34366317822E+03  0.34366317822E+03  0.00000000000E+00 0.  1.
         25    1    1    2    0    0  0.42999315888E+02 -0.17385980002E+02  0.30212146960E+03  0.33023263900E+03  0.12500000000E+03 0.  0.
         25    1    1    2    0    0  0.48259166691E+02  0.48615268919E+02 -0.13861565463E+03  0.19882578115E+03  0.12500000000E+03 0.  0.
         25    1    1    2    0    0 -0.91258482579E+02 -0.31229288918E+02 -0.12215099516E+03  0.19962275609E+03  0.12500000000E+03 0.  0.
</event>
<event>
 5    0  0.5452999E-005  0.2769378E+03  0.7546771E-02  0.1097373E+00
         21   -1    0    0  502  501  0.00000000000E+00  0.00000000000E+00  0.74642040829E+03  0.74642040829E+03  0.00000000000E+00 0. -1.
         21   -1    0    0  501  502 -0.00000000000E+00 -0.00000000000E+00 -0.10274980593E+03  0.10274980593E+03  0.00000000000E+00 0. -1.
         25    1    1    2    0    0  0.13290429617E+03 -0.46665622924E+02  0.15564028950E+03  0.24431564014E+03  0.12500000000E+03 0.  0.
         25    1    1    2    0    0 -0.84894071413E+01 -0.68215552476E+02  0.24353650086E+03  0.28224184467E+03  0.12500000000E+03 0.  0.
         25    1    1    2    0    0 -0.12441488902E+03  0.11488117540E+03  0.24449381200E+03  0.32261272941E+03  0.12500000000E+03 0.  0.
</event>
<event>
 5    0  0.5452999E-005  0.2721181E+03  0.7546771E-02  0.1100073E+00
         21   -1    0    0  502  501  0.00000000000E+00  0.00000000000E+00  0.63197389902E+02  0.63197389902E+02  0.00000000000E+00 0. -1.
         21   -1    0    0  501  502 -0.00000000000E+00 -0.00000000000E+00 -0.11716981196E+04  0.11716981196E+04  0.00000000000E+00 0. -1.
         25    1    1    2    0    0 -0.54323754810E+02 -0.16015363440E+02 -0.16057791255E+03  0.21122932610E+03  0.12500000000E+03 0.  0.
         25    1    1    2    0    0 -0.97902990326E+02 -0.38431670454E+02 -0.26963567461E+03  0.31526240789E+03  0.12500000000E+03 0.  0.
         25    1    1    2    0    0  0.15222674514E+03  0.54447033893E+02 -0.67828714256E+03  0.70840377554E+03  0.12500000000E+03 0.  0.
</event>
<event>
 5    0  0.5452999E-005  0.3172015E+03  0.7546771E-02  0.1076944E+00
         21   -1    0    0  502  501  0.00000000000E+00  0.00000000000E+00  0.40950482890E+03  0.40950482890E+03  0.00000000000E+00 0.  1.
         21   -1    0    0  501  502 -0.00000000000E+00 -0.00000000000E+00 -0.24570360217E+03  0.24570360217E+03  0.00000000000E+00 0.  1.
         25    1    1    2    0    0 -0.80294977487E+01 -0.10827070615E+03  0.93776352220E+02  0.19027880302E+03  0.12500000000E+03 0.  0.
         25    1    1    2    0    0  0.71955725326E+02  0.12847756506E+03 -0.12030531421E+03  0.22755764052E+03  0.12500000000E+03 0.  0.
         25    1    1    2    0    0 -0.63926227577E+02 -0.20206858913E+02  0.19033018872E+03  0.23737198752E+03  0.12500000000E+03 0.  0.
</event>
<event>
 5    0  0.6117218E-005  0.2773232E+03  0.7546771E-02  0.1097160E+00
         21   -1    0    0  502  501  0.00000000000E+00  0.00000000000E+00  0.12028303192E+03  0.12028303192E+03  0.00000000000E+00 0.  1.
         21   -1    0    0  501  502 -0.00000000000E+00 -0.00000000000E+00 -0.63939324675E+03  0.63939324675E+03  0.00000000000E+00 0.  1.
         25    1    1    2    0    0 -0.11346499339E+03  0.14752350973E+03 -0.26966072029E+03  0.35068418088E+03  0.12500000000E+03 0.  0.
         25    1    1    2    0    0  0.34917447241E+02 -0.76921318912E+02 -0.70586383750E+02  0.16656396668E+03  0.12500000000E+03 0.  0.
         25    1    1    2    0    0  0.78547546150E+02 -0.70602190822E+02 -0.17886311078E+03  0.24242813111E+03  0.12500000000E+03 0.  0.
</event>
<event>
 5    0  0.5452999E-005  0.6446554E+03  0.7546771E-02  0.9816860E-01
         21   -1    0    0  502  501  0.00000000000E+00  0.00000000000E+00  0.68500337592E+03  0.68500337592E+03  0.00000000000E+00 0.  1.
         21   -1    0    0  501  502 -0.00000000000E+00 -0.00000000000E+00 -0.60668403869E+03  0.60668403869E+03  0.00000000000E+00 0.  1.
         25    1    1    2    0    0  0.31363976515E+03  0.22366978864E+03 -0.79890219170E+02  0.41280203942E+03  0.12500000000E+03 0.  0.
         25    1    1    2    0    0 -0.50452338558E+03 -0.13239603036E+03 -0.73181594702E+02  0.54134379211E+03  0.12500000000E+03 0.  0.
         25    1    1    2    0    0  0.19088362043E+03 -0.91273758276E+02  0.23139115110E+03  0.33754158308E+03  0.12500000000E+03 0.  0.
</event>
<event>
 5    0  0.5452999E-005  0.2114615E+03  0.7546771E-02  0.1140414E+00
         21   -1    0    0  502  501  0.00000000000E+00  0.00000000000E+00  0.63469824345E+02  0.63469824345E+02  0.00000000000E+00 0.  1.
         21   -1    0    0  501  502 -0.00000000000E+00 -0.00000000000E+00 -0.70452318703E+03  0.70452318703E+03  0.00000000000E+00 0.  1.
         25    1    1    2    0    0 -0.32218789537E+01 -0.45402972072E+02 -0.11953417494E+03  0.17884414823E+03  0.12500000000E+03 0.  0.
         25    1    1    2    0    0 -0.50675925604E+01  0.16073179218E+02 -0.36703831849E+03  0.38810585518E+03  0.12500000000E+03 0.  0.
         25    1    1    2    0    0  0.82894715141E+01  0.29329792854E+02 -0.15448086927E+03  0.20104300798E+03  0.12500000000E+03 0.  0.
</event>
<event>
 5    0  0.5452999E-005  0.2285171E+03  0.7546771E-02  0.1127688E+00
         21   -1    0    0  502  501  0.00000000000E+00  0.00000000000E+00  0.10137725196E+04  0.10137725196E+04  0.00000000000E+00 0. -1.
         21   -1    0    0  501  502 -0.00000000000E+00 -0.00000000000E+00 -0.51510619429E+02  0.51510619429E+02  0.00000000000E+00 0. -1.
         25    1    1    2    0    0 -0.25889940894E+02 -0.42418757993E+02  0.24518398497E+03  0.27966019837E+03  0.12500000000E+03 0.  0.
         25    1    1    2    0    0 -0.58984628373E+02  0.21545350531E+02  0.50744552544E+03  0.52637377386E+03  0.12500000000E+03 0.  0.
         25    1    1    2    0    0  0.84874569267E+02  0.20873407462E+02  0.20963238974E+03  0.25924916678E+03  0.12500000000E+03 0.  0.
</event>
<event>
 5    0  0.5452999E-005  0.3728560E+03  0.7546771E-02  0.1053606E+00
         21   -1    0    0  502  501  0.00000000000E+00  0.00000000000E+00  0.18749475903E+04  0.18749475903E+04  0.00000000000E+00 0.  1.
         21   -1    0    0  501  502 -0.00000000000E+00 -0.00000000000E+00 -0.74146930972E+02  0.74146930972E+02  0.00000000000E+00 0.  1.
         25    1    1    2    0    0 -0.10093256324E+03 -0.12732145713E+03  0.78733388913E+03  0.81358330166E+03  0.12500000000E+03 0.  0.
         25    1    1    2    0    0  0.25188225661E+03  0.68353016685E+02  0.73505146706E+03  0.78996358480E+03  0.12500000000E+03 0.  0.
         25    1    1    2    0    0 -0.15094969337E+03  0.58968440447E+02  0.27841530310E+03  0.34554763477E+03  0.12500000000E+03 0.  0.
</event>
<event>
 5    0  0.5452999E-005  0.5947703E+03  0.7546771E-02  0.9916316E-01
         21   -1    0    0  502  501  0.00000000000E+00  0.00000000000E+00  0.12387955490E+04  0.12387955490E+04  0.00000000000E+00 0. -1.
         21   -1    0    0  501  502 -0.00000000000E+00 -0.00000000000E+00 -0.28556098835E+03  0.28556098835E+03  0.00000000000E+00 0. -1.
         25    1    1    2    0    0  0.61458492677E+02  0.39789017500E+02  0.55897329693E+03  0.57743957166E+03  0.12500000000E+03 0.  0.
         25    1    1    2    0    0 -0.13139964307E+03  0.37791371630E+03  0.20164534189E+03  0.46515641141E+03  0.12500000000E+03 0.  0.
         25    1    1    2    0    0  0.69941150392E+02 -0.41770273380E+03  0.19261592188E+03  0.48176055433E+03  0.12500000000E+03 0.  0.
</event>
<event>
 5    0  0.5452999E-005  0.3385394E+03  0.7546771E-02  0.1067420E+00
         21   -1    0    0  502  501  0.00000000000E+00  0.00000000000E+00  0.18810192935E+04  0.18810192935E+04  0.00000000000E+00 0.  1.
         21   -1    0    0  501  502 -0.00000000000E+00 -0.00000000000E+00 -0.60929161448E+02  0.60929161448E+02  0.00000000000E+00 0.  1.
         25    1    1    2    0    0 -0.10934177904E+03 -0.17516470259E+03  0.57504577684E+03  0.62365129932E+03  0.12500000000E+03 0.  0.
         25    1    1    2    0    0  0.96110311841E+02 -0.57825305649E+02  0.44862074431E+03  0.47902664878E+03  0.12500000000E+03 0.  0.
         25    1    1    2    0    0  0.13231467199E+02  0.23299000824E+03  0.79642361088E+03  0.83927050683E+03  0.12500000000E+03 0.  0.
</event>
<event>
 5    0  0.5452999E-005  0.2378626E+03  0.7546771E-02  0.1121225E+00
         21   -1    0    0  502  501  0.00000000000E+00  0.00000000000E+00  0.62476328064E+02  0.62476328064E+02  0.00000000000E+00 0.  1.
         21   -1    0    0  501  502 -0.00000000000E+00 -0.00000000000E+00 -0.90560101587E+03  0.90560101587E+03  0.00000000000E+00 0.  1.
         25    1    1    2    0    0 -0.33894533009E+02 -0.48349400055E+02 -0.14501891449E+03  0.20035465907E+03  0.12500000000E+03 0.  0.
         25    1    1    2    0    0 -0.47873186842E+02  0.90006904723E+02 -0.40893889251E+03  0.43960107225E+03  0.12500000000E+03 0.  0.
         25    1    1    2    0    0  0.81767719851E+02 -0.41657504667E+02 -0.28916688081E+03  0.32812161261E+03  0.12500000000E+03 0.  0.
</event>
<event>
 5    0  0.5452999E-005  0.3690249E+03  0.7546771E-02  0.1055066E+00
         21   -1    0    0  502  501  0.00000000000E+00  0.00000000000E+00  0.67687017938E+03  0.67687017938E+03  0.00000000000E+00 0. -1.
         21   -1    0    0  501  502 -0.00000000000E+00 -0.00000000000E+00 -0.20118979094E+03  0.20118979094E+03  0.00000000000E+00 0.  1.
         25    1    1    2    0    0 -0.14107168168E+02 -0.38594164035E+02  0.16490081931E+03  0.21096398247E+03  0.12500000000E+03 0.  0.
         25    1    1    2    0    0  0.15127828274E+03 -0.66209053297E+02 -0.79961509608E+02  0.22200810928E+03  0.12500000000E+03 0.  0.
         25    1    1    2    0    0 -0.13717111457E+03  0.10480321733E+03  0.39074107873E+03  0.44508787856E+03  0.12500000000E+03 0.  0.
</event>
<event>
 5    0  0.5452999E-005  0.3684294E+03  0.7546771E-02  0.1055295E+00
         21   -1    0    0  502  501  0.00000000000E+00  0.00000000000E+00  0.59629044065E+02  0.59629044065E+02  0.00000000000E+00 0. -1.
         21   -1    0    0  501  502 -0.00000000000E+00 -0.00000000000E+00 -0.22764112777E+04  0.22764112777E+04  0.00000000000E+00 0. -1.
         25    1    1    2    0    0  0.15296838362E+03  0.39921899195E+02 -0.11758698932E+04  0.11930163830E+04  0.12500000000E+03 0.  0.
         25    1    1    2    0    0  0.43967742211E+02 -0.11886171601E+03 -0.70123400578E+03  0.72347453359E+03  0.12500000000E+03 0.  0.
         25    1    1    2    0    0 -0.19693612583E+03  0.78939816810E+02 -0.33967833467E+03  0.41954940517E+03  0.12500000000E+03 0.  0.
</event>
<event>
 5    0  0.5452999E-005  0.2240782E+03  0.7546771E-02  0.1130879E+00
         21   -1    0    0  502  501  0.00000000000E+00  0.00000000000E+00  0.59291948929E+02  0.59291948929E+02  0.00000000000E+00 0. -1.
         21   -1    0    0  501  502 -0.00000000000E+00 -0.00000000000E+00 -0.84684413469E+03  0.84684413469E+03  0.00000000000E+00 0. -1.
         25    1    1    2    0    0 -0.66840516139E+01  0.61099066672E+02 -0.17455183611E+03  0.22331841837E+03  0.12500000000E+03 0.  0.
         25    1    1    2    0    0 -0.27465466339E+02  0.30391470924E+02 -0.19032963968E+03  0.23136197848E+03  0.12500000000E+03 0.  0.
         25    1    1    2    0    0  0.34149517953E+02 -0.91490537595E+02 -0.42267070998E+03  0.45145568677E+03  0.12500000000E+03 0.  0.
</event>
<event>
 5    0  0.5452999E-005  0.4270347E+03  0.7546771E-02  0.1034801E+00
         21   -1    0    0  502  501  0.00000000000E+00  0.00000000000E+00  0.21242798364E+04  0.21242798364E+04  0.00000000000E+00 0.  1.
         21   -1    0    0  501  502 -0.00000000000E+00 -0.00000000000E+00 -0.85844935541E+02  0.85844935541E+02  0.00000000000E+00 0.  1.
         25    1    1    2    0    0  0.75904690558E+02 -0.54322085137E+02  0.14513860907E+04  0.14597462092E+04  0.12500000000E+03 0.  0.
         25    1    1    2    0    0 -0.88945321257E+02 -0.15759457061E+03  0.30215785794E+03  0.37372675844E+03  0.12500000000E+03 0.  0.
         25    1    1    2    0    0  0.13040630698E+02  0.21191665574E+03  0.28489095221E+03  0.37665180430E+03  0.12500000000E+03 0.  0.
</event>
<event>
 5    0  0.5452999E-005  0.5197642E+03  0.7546771E-02  0.1008745E+00
         21   -1    0    0  502  501  0.00000000000E+00  0.00000000000E+00  0.11590950203E+03  0.11590950203E+03  0.00000000000E+00 0.  1.
         21   -1    0    0  501  502 -0.00000000000E+00 -0.00000000000E+00 -0.23307391174E+04  0.23307391174E+04  0.00000000000E+00 0.  1.
         25    1    1    2    0    0 -0.45303661270E+03 -0.79878551698E+02 -0.10927852390E+04  0.11922362744E+04  0.12500000000E+03 0.  0.
         25    1    1    2    0    0  0.92005340320E+02 -0.39347132389E+02 -0.34532851858E+03  0.38064414512E+03  0.12500000000E+03 0.  0.
         25    1    1    2    0    0  0.36103127238E+03  0.11922568409E+03 -0.77671585781E+03  0.87376819990E+03  0.12500000000E+03 0.  0.
</event>
<event>
 5    0  0.5452999E-005  0.2669610E+03  0.7546771E-02  0.1103032E+00
         21   -1    0    0  502  501  0.00000000000E+00  0.00000000000E+00  0.10311566731E+03  0.10311566731E+03  0.00000000000E+00 0.  1.
         21   -1    0    0  501  502 -0.00000000000E+00 -0.00000000000E+00 -0.69114769646E+03  0.69114769646E+03  0.00000000000E+00 0.  1.
         25    1    1    2    0    0  0.35295339438E+02 -0.38787457995E+02 -0.23092441848E+03  0.26777101212E+03  0.12500000000E+03 0.  0.
         25    1    1    2    0    0 -0.92563374531E+02 -0.10468953723E+03 -0.18871200138E+03  0.26601709903E+03  0.12500000000E+03 0.  0.
         25    1    1    2    0    0  0.57268035094E+02  0.14347699522E+03 -0.16839560928E+03  0.26047525262E+03  0.12500000000E+03 0.  0.
</event>
<event>
 5    0  0.5452999E-005  0.3037704E+03  0.7546771E-02  0.1083371E+00
         21   -1    0    0  502  501  0.00000000000E+00  0.00000000000E+00  0.55445622189E+03  0.55445622189E+03  0.00000000000E+00 0. -1.
         21   -1    0    0  501  502 -0.00000000000E+00 -0.00000000000E+00 -0.16642689954E+03  0.16642689954E+03  0.00000000000E+00 0. -1.
         25    1    1    2    0    0 -0.13399601194E+03  0.12146543199E+03  0.21363348502E+03  0.30655023782E+03  0.12500000000E+03 0.  0.
         25    1    1    2    0    0  0.10801910454E+03 -0.13193913829E+03  0.18028213142E+02  0.21219349572E+03  0.12500000000E+03 0.  0.
         25    1    1    2    0    0  0.25976907409E+02  0.10473706308E+02  0.15636762418E+03  0.20213938789E+03  0.12500000000E+03 0.  0.
</event>
<event>
 5    0  0.5452999E-005  0.2708453E+03  0.7546771E-02  0.1100797E+00
         21   -1    0    0  502  501  0.00000000000E+00  0.00000000000E+00  0.54763137490E+03  0.54763137490E+03  0.00000000000E+00 0. -1.
         21   -1    0    0  501  502 -0.00000000000E+00 -0.00000000000E+00 -0.13395354618E+03  0.13395354618E+03  0.00000000000E+00 0. -1.
         25    1    1    2    0    0 -0.10619716347E+03 -0.96195986597E+02  0.29575108967E+03  0.35160377189E+03  0.12500000000E+03 0.  0.
         25    1    1    2    0    0  0.89561042223E+02  0.48184910411E+02  0.10941372023E+03  0.19478020446E+03  0.12500000000E+03 0.  0.
         25    1    1    2    0    0  0.16636121244E+02  0.48011076186E+02  0.85130188305E+01  0.13520094473E+03  0.12500000000E+03 0.  0.
</event>
<event>
 5    0  0.5452999E-005  0.3527326E+03  0.7546771E-02  0.1061499E+00
         21   -1    0    0  502  501  0.00000000000E+00  0.00000000000E+00  0.23097129082E+03  0.23097129082E+03  0.00000000000E+00 0. -1.
         21   -1    0    0  501  502 -0.00000000000E+00 -0.00000000000E+00 -0.53868293130E+03  0.53868293130E+03  0.00000000000E+00 0. -1.
         25    1    1    2    0    0  0.13496834670E+03  0.16055832730E+03 -0.12663742291E+03  0.27505902632E+03  0.12500000000E+03 0.  0.
         25    1    1    2    0    0  0.52145515755E+02 -0.11978480280E+03 -0.19443705667E+03  0.26551520258E+03  0.12500000000E+03 0.  0.
         25    1    1    2    0    0 -0.18711386246E+03 -0.40773524498E+02  0.13362839098E+02  0.22907999322E+03  0.12500000000E+03 0.  0.
</event>
<event>
 5    0  0.5452999E-005  0.7395937E+03  0.7546771E-02  0.9651819E-01
         21   -1    0    0  502  501  0.00000000000E+00  0.00000000000E+00  0.12876064908E+04  0.12876064908E+04  0.00000000000E+00 0.  1.
         21   -1    0    0  501  502 -0.00000000000E+00 -0.00000000000E+00 -0.42481837872E+03  0.42481837872E+03  0.00000000000E+00 0.  1.
         25    1    1    2    0    0  0.12308957383E+03 -0.57051524832E+01 -0.42004987959E+02  0.18047994615E+03  0.12500000000E+03 0.  0.
         25    1    1    2    0    0  0.92740262142E+02 -0.50078073357E+03  0.77111055821E+02  0.53005019976E+03  0.12500000000E+03 0.  0.
         25    1    1    2    0    0 -0.21582983597E+03  0.50648588606E+03  0.82768204424E+03  0.10018947236E+04  0.12500000000E+03 0.  0.
</event>
<event>
 5    0  0.5452999E-005  0.6972057E+03  0.7546771E-02  0.9722023E-01
         21   -1    0    0  502  501  0.00000000000E+00  0.00000000000E+00  0.37615713795E+03  0.37615713795E+03  0.00000000000E+00 0.  1.
         21   -1    0    0  501  502 -0.00000000000E+00 -0.00000000000E+00 -0.12922677373E+04  0.12922677373E+04  0.00000000000E+00 0.  1.
         25    1    1    2    0    0  0.52734601886E+03 -0.31232650064E+02 -0.33848212020E+03  0.63973779607E+03  0.12500000000E+03 0.  0.
         25    1    1    2    0    0 -0.32024999268E+03 -0.13558215185E+03  0.12164908967E+02  0.36975067643E+03  0.12500000000E+03 0.  0.
         25    1    1    2    0    0 -0.20709602618E+03  0.16681480192E+03 -0.58979338810E+03  0.65893640273E+03  0.12500000000E+03 0.  0.
</event>
<event>
 5    0  0.5986739E-005  0.2877669E+03  0.7546771E-02  0.1091521E+00
         21   -1    0    0  502  501  0.00000000000E+00  0.00000000000E+00  0.42155926983E+03  0.42155926983E+03  0.00000000000E+00 0.  1.
         21   -1    0    0  501  502 -0.00000000000E+00 -0.00000000000E+00 -0.19643684860E+03  0.19643684860E+03  0.00000000000E+00 0.  1.
         25    1    1    2    0    0  0.41757138082E+02  0.48440881474E+02  0.15332284320E+03  0.20790159169E+03  0.12500000000E+03 0.  0.
         25    1    1    2    0    0 -0.62284876118E+02  0.54681807914E+01 -0.11294508410E+03  0.17969668560E+03  0.12500000000E+03 0.  0.
         25    1    1    2    0    0  0.20527738036E+02 -0.53909062265E+02  0.18474466212E+03  0.23039784115E+03  0.12500000000E+03 0.  0.
</event>
<event>
 5    0  0.5452999E-005  0.4425051E+03  0.7546771E-02  0.1029981E+00
         21   -1    0    0  502  501  0.00000000000E+00  0.00000000000E+00  0.16059711820E+03  0.16059711820E+03  0.00000000000E+00 0.  1.
         21   -1    0    0  501  502 -0.00000000000E+00 -0.00000000000E+00 -0.12192671561E+04  0.12192671561E+04  0.00000000000E+00 0.  1.
         25    1    1    2    0    0 -0.12775974897E+03 -0.24223111556E+03 -0.48555383852E+03  0.57130201899E+03  0.12500000000E+03 0.  0.
         25    1    1    2    0    0  0.23741961944E+03 -0.96627646799E+01 -0.27469978090E+03  0.38411770897E+03  0.12500000000E+03 0.  0.
         25    1    1    2    0    0 -0.10965987047E+03  0.25189388024E+03 -0.29841641843E+03  0.42444454630E+03  0.12500000000E+03 0.  0.
</event>
<event>
 5    0  0.5452999E-005  0.2697325E+03  0.7546771E-02  0.1101433E+00
         21   -1    0    0  502  501  0.00000000000E+00  0.00000000000E+00  0.22370556150E+03  0.22370556150E+03  0.00000000000E+00 0. -1.
         21   -1    0    0  501  502 -0.00000000000E+00 -0.00000000000E+00 -0.32522948372E+03  0.32522948372E+03  0.00000000000E+00 0. -1.
         25    1    1    2    0    0 -0.83867946197E+01 -0.13125890949E+03 -0.14162154336E+03  0.23017580496E+03  0.12500000000E+03 0.  0.
         25    1    1    2    0    0 -0.64893347318E+02  0.81213064099E+02  0.28164073386E+02  0.16499976769E+03  0.12500000000E+03 0.  0.
         25    1    1    2    0    0  0.73280141938E+02  0.50045845394E+02  0.11933547760E+02  0.15375947257E+03  0.12500000000E+03 0.  0.
</event>
<event>
 5    0  0.5452999E-005  0.2576578E+03  0.7546771E-02  0.1108559E+00
         21   -1    0    0  502  501  0.00000000000E+00  0.00000000000E+00  0.96827082772E+02  0.96827082772E+02  0.00000000000E+00 0. -1.
         21   -1    0    0  501  502 -0.00000000000E+00 -0.00000000000E+00 -0.68562970616E+03  0.68562970616E+03  0.00000000000E+00 0. -1.
         25    1    1    2    0    0  0.11808554083E+02 -0.11774322603E+03 -0.13246760758E+03  0.21719939292E+03  0.12500000000E+03 0.  0.
         25    1    1    2    0    0  0.53457851479E+02 -0.13731459951E+02 -0.23398650079E+03  0.27096305547E+03  0.12500000000E+03 0.  0.
         25    1    1    2    0    0 -0.65266405561E+02  0.13147468598E+03 -0.22234851502E+03  0.29429434055E+03  0.12500000000E+03 0.  0.
</event>
<event>
 5    0  0.5452999E-005  0.2765726E+03  0.7546771E-02  0.1097576E+00
         21   -1    0    0  502  501  0.00000000000E+00  0.00000000000E+00  0.29742926193E+02  0.29742926193E+02  0.00000000000E+00 0. -1.
         21   -1    0    0  501  502 -0.00000000000E+00 -0.00000000000E+00 -0.25717853249E+04  0.25717853249E+04  0.00000000000E+00 0. -1.
         25    1    1    2    0    0  0.22093050156E+02 -0.12483911599E+03 -0.55228140381E+03  0.58026946908E+03  0.12500000000E+03 0.  0.
         25    1    1    2    0    0 -0.44684543070E+02  0.84087424811E+02 -0.46830391386E+03  0.49396453226E+03  0.12500000000E+03 0.  0.
         25    1    1    2    0    0  0.22591492913E+02  0.40751691179E+02 -0.15214570810E+04  0.15272942497E+04  0.12500000000E+03 0.  0.
</event>
<event>
 5    0  0.5452999E-005  0.2945536E+03  0.7546771E-02  0.1087995E+00
         21   -1    0    0  502  501  0.00000000000E+00  0.00000000000E+00  0.54822349102E+03  0.54822349102E+03  0.00000000000E+00 0. -1.
         21   -1    0    0  501  502 -0.00000000000E+00 -0.00000000000E+00 -0.15825992391E+03  0.15825992391E+03  0.00000000000E+00 0. -1.
         25    1    1    2    0    0 -0.18753412614E+03 -0.31256414422E+02  0.10069887955E+03  0.24881976660E+03  0.12500000000E+03 0.  0.
         25    1    1    2    0    0  0.15525147228E+03  0.48455152417E+02  0.10074456814E+03  0.22852874972E+03  0.12500000000E+03 0.  0.
         25    1    1    2    0    0  0.32282653858E+02 -0.17198737995E+02  0.18852011942E+03  0.22913489860E+03  0.12500000000E+03 0.  0.
</event>
<event>
 5    0  0.5452999E-005  0.2432606E+03  0.7546771E-02  0.1117640E+00
         21   -1    0    0  502  501  0.00000000000E+00  0.00000000000E+00  0.73358679637E+03  0.73358679637E+03  0.00000000000E+00 0. -1.
         21   -1    0    0  501  502 -0.00000000000E+00 -0.00000000000E+00 -0.80666262265E+02  0.80666262265E+02  0.00000000000E+00 0. -1.
         25    1    1    2    0    0  0.76475041161E+01  0.86374973428E+02  0.80135944068E+02  0.17194734626E+03  0.12500000000E+03 0.  0.
         25    1    1    2    0    0 -0.23437307005E+02 -0.12934826380E+02  0.37763312374E+03  0.39868332450E+03  0.12500000000E+03 0.  0.
         25    1    1    2    0    0  0.15789802889E+02 -0.73440147048E+02  0.19515146629E+03  0.24362238787E+03  0.12500000000E+03 0.  0.
</event>
<event>
 5    0  0.5452999E-005  0.3896894E+03  0.7546771E-02  0.1047410E+00
         21   -1    0    0  502  501  0.00000000000E+00  0.00000000000E+00  0.58098769153E+03  0.58098769153E+03  0.00000000000E+00 0. -1.
         21   -1    0    0  501  502 -0.00000000000E+00 -0.00000000000E+00 -0.26137872536E+03  0.26137872536E+03  0.00000000000E+00 0. -1.
         25    1    1    2    0    0  0.85157623511E+02  0.12546900835E+03  0.17725180495E+03  0.26464598099E+03  0.12500000000E+03 0.  0.
         25    1    1    2    0    0 -0.16784456826E+03  0.10028052708E+02 -0.12395591498E+03  0.24343875984E+03  0.12500000000E+03 0.  0.
         25    1    1    2    0    0  0.82686944746E+02 -0.13549706106E+03  0.26631307621E+03  0.33428167605E+03  0.12500000000E+03 0.  0.
</event>
<event>
 5    0  0.5452999E-005  0.2372117E+03  0.7546771E-02  0.1121664E+00
         21   -1    0    0  502  501  0.00000000000E+00  0.00000000000E+00  0.78912614288E+02  0.78912614288E+02  0.00000000000E+00 0.  1.
         21   -1    0    0  501  502 -0.00000000000E+00 -0.00000000000E+00 -0.71305931331E+03  0.71305931331E+03  0.00000000000E+00 0.  1.
         25    1    1    2    0    0 -0.29985295467E+02 -0.36334231863E+02 -0.69447372582E+02  0.15055640773E+03  0.12500000000E+03 0.  0.
         25    1    1    2    0    0  0.74506895170E+02  0.21752335192E+02 -0.17041252199E+03  0.22514410755E+03  0.12500000000E+03 0.  0.
         25    1    1    2    0    0 -0.44521599703E+02  0.14581896671E+02 -0.39428680444E+03  0.41627141231E+03  0.12500000000E+03 0.  0.
</event>
<event>
 5    0  0.5452999E-005  0.3913048E+03  0.7546771E-02  0.1046833E+00
         21   -1    0    0  502  501  0.00000000000E+00  0.00000000000E+00  0.13087419796E+03  0.13087419796E+03  0.00000000000E+00 0. -1.
         21   -1    0    0  501  502 -0.00000000000E+00 -0.00000000000E+00 -0.11699742120E+04  0.11699742120E+04  0.00000000000E+00 0. -1.
         25    1    1    2    0    0  0.50270452642E+02  0.12213897184E+03 -0.77928194948E+03  0.80021897231E+03  0.12500000000E+03 0.  0.
         25    1    1    2    0    0 -0.79108883555E+02 -0.12390545531E+03 -0.30810781943E+03  0.36354670362E+03  0.12500000000E+03 0.  0.
         25    1    1    2    0    0  0.28838430913E+02  0.17664834698E+01  0.48289754838E+02  0.13708273408E+03  0.12500000000E+03 0.  0.
</event>
<event>
 5    0  0.5452999E-005  0.2922446E+03  0.7546771E-02  0.1089183E+00
         21   -1    0    0  502  501  0.00000000000E+00  0.00000000000E+00  0.28359233490E+03  0.28359233490E+03  0.00000000000E+00 0.  1.
         21   -1    0    0  501  502 -0.00000000000E+00 -0.00000000000E+00 -0.30116074444E+03  0.30116074444E+03  0.00000000000E+00 0.  1.
         25    1    1    2    0    0  0.49720134336E+02  0.68686746110E+02  0.13087327960E+03  0.19985688920E+03  0.12500000000E+03 0.  0.
         25    1    1    2    0    0  0.23064207694E+02 -0.12894778280E+03 -0.19773218293E+02  0.18214134217E+03  0.12500000000E+03 0.  0.
         25    1    1    2    0    0 -0.72784342030E+02  0.60261036691E+02 -0.12866847084E+03  0.20275484797E+03  0.12500000000E+03 0.  0.
</event>
<event>
 5    0  0.5452999E-005  0.3421104E+03  0.7546771E-02  0.1065901E+00
         21   -1    0    0  502  501  0.00000000000E+00  0.00000000000E+00  0.35532749850E+03  0.35532749850E+03  0.00000000000E+00 0.  1.
         21   -1    0    0  501  502 -0.00000000000E+00 -0.00000000000E+00 -0.32938501749E+03  0.32938501749E+03  0.00000000000E+00 0.  1.
         25    1    1    2    0    0  0.23516572721E+02 -0.13713138908E+03  0.13662514848E+03  0.23162357017E+03  0.12500000000E+03 0.  0.
         25    1    1    2    0    0 -0.12988321322E+03 -0.41146665550E+01 -0.14810695374E+03  0.23333934367E+03  0.12500000000E+03 0.  0.
         25    1    1    2    0    0  0.10636664050E+03  0.14124605563E+03  0.37424286287E+02  0.21974960215E+03  0.12500000000E+03 0.  0.
</event>
<event>
 5    0  0.5452999E-005  0.2450137E+03  0.7546771E-02  0.1116497E+00
         21   -1    0    0  502  501  0.00000000000E+00  0.00000000000E+00  0.17877979115E+04  0.17877979115E+04  0.00000000000E+00 0. -1.
         21   -1    0    0  501  502 -0.00000000000E+00 -0.00000000000E+00 -0.33578568170E+02  0.33578568170E+02  0.00000000000E+00 0. -1.
         25    1    1    2    0    0 -0.17269222684E+02  0.36178115935E+02  0.58776247517E+03  0.60224314802E+03  0.12500000000E+03 0.  0.
         25    1    1    2    0    0  0.99923890752E+02 -0.95851770412E+02  0.50674754159E+03  0.53999112654E+03  0.12500000000E+03 0.  0.
         25    1    1    2    0    0 -0.82654668068E+02  0.59673654477E+02  0.65970932655E+03  0.67914220508E+03  0.12500000000E+03 0.  0.
</event>
<event>
 5    0  0.5452999E-005  0.5136717E+03  0.7546771E-02  0.1010271E+00
         21   -1    0    0  502  501  0.00000000000E+00  0.00000000000E+00  0.37012053510E+03  0.37012053510E+03  0.00000000000E+00 0.  1.
         21   -1    0    0  501  502 -0.00000000000E+00 -0.00000000000E+00 -0.71289927999E+03  0.71289927999E+03  0.00000000000E+00 0.  1.
         25    1    1    2    0    0  0.16343080250E+02  0.29854414050E+03  0.10197338331E+03  0.33973411810E+03  0.12500000000E+03 0.  0.
         25    1    1    2    0    0 -0.93928034518E+02  0.89614507596E+02 -0.14397485698E+03  0.23066641516E+03  0.12500000000E+03 0.  0.
         25    1    1    2    0    0  0.77584954268E+02 -0.38815864809E+03 -0.30077727122E+03  0.51261928183E+03  0.12500000000E+03 0.  0.
</event>
<event>
 5    0  0.5452999E-005  0.4171548E+03  0.7546771E-02  0.1037996E+00
         21   -1    0    0  502  501  0.00000000000E+00  0.00000000000E+00  0.46591122820E+03  0.46591122820E+03  0.00000000000E+00 0.  1.
         21   -1    0    0  501  502 -0.00000000000E+00 -0.00000000000E+00 -0.37350067123E+03  0.37350067123E+03  0.00000000000E+00 0.  1.
         25    1    1    2    0    0  0.15980138939E+03  0.11754864484E+03  0.29772036813E+03  0.37896778960E+03  0.12500000000E+03 0.  0.
         25    1    1    2    0    0 -0.13890482198E+03 -0.13166017695E+03 -0.23676153015E+03  0.32910480689E+03  0.12500000000E+03 0.  0.
         25    1    1    2    0    0 -0.20896567414E+02  0.14111532107E+02  0.31451718993E+02  0.13133930294E+03  0.12500000000E+03 0.  0.
</event>
<event>
 5    0  0.5452999E-005  0.2685401E+03  0.7546771E-02  0.1102118E+00
         21   -1    0    0  502  501  0.00000000000E+00  0.00000000000E+00  0.71650474548E+02  0.71650474548E+02  0.00000000000E+00 0.  1.
         21   -1    0    0  501  502 -0.00000000000E+00 -0.00000000000E+00 -0.10064664852E+04  0.10064664852E+04  0.00000000000E+00 0.  1.
         25    1    1    2    0    0  0.12161789845E+02  0.50003992383E+02 -0.21667846232E+03  0.25538767476E+03  0.12500000000E+03 0.  0.
         25    1    1    2    0    0 -0.59109483691E+02 -0.86092554448E+02 -0.10410255393E+03  0.19330856352E+03  0.12500000000E+03 0.  0.
         25    1    1    2    0    0  0.46947693846E+02  0.36088562066E+02 -0.61403499443E+03  0.62942072150E+03  0.12500000000E+03 0.  0.
</event>
<event>
 5    0  0.5452999E-005  0.2553683E+03  0.7546771E-02  0.1109958E+00
         21   -1    0    0  502  501  0.00000000000E+00  0.00000000000E+00  0.72346135116E+02  0.72346135116E+02  0.00000000000E+00 0. -1.
         21   -1    0    0  501  502 -0.00000000000E+00 -0.00000000000E+00 -0.90140218170E+03  0.90140218170E+03  0.00000000000E+00 0. -1.
         25    1    1    2    0    0 -0.87655827493E+02 -0.14492059982E+02 -0.18855472649E+03  0.24304618651E+03  0.12500000000E+03 0.  0.
         25    1    1    2    0    0  0.76020951418E+02  0.40394646408E+02 -0.11672836269E+03  0.19147172943E+03  0.12500000000E+03 0.  0.
         25    1    1    2    0    0  0.11634876075E+02 -0.25902586426E+02 -0.52377295741E+03  0.53923040088E+03  0.12500000000E+03 0.  0.
</event>
<event>
 5    0  0.5452999E-005  0.3175369E+03  0.7546771E-02  0.1076789E+00
         21   -1    0    0  502  501  0.00000000000E+00  0.00000000000E+00  0.50186286599E+03  0.50186286599E+03  0.00000000000E+00 0.  1.
         21   -1    0    0  501  502 -0.00000000000E+00 -0.00000000000E+00 -0.20091078844E+03  0.20091078844E+03  0.00000000000E+00 0.  1.
         25    1    1    2    0    0  0.60018259708E+02 -0.68038955087E+02 -0.86001162608E+02  0.17678430608E+03  0.12500000000E+03 0.  0.
         25    1    1    2    0    0 -0.57667830174E+02  0.70994426722E+02  0.36830581274E+03  0.39954969523E+03  0.12500000000E+03 0.  0.
         25    1    1    2    0    0 -0.23504295343E+01 -0.29554716344E+01  0.18647427415E+02  0.12643965312E+03  0.12500000000E+03 0.  0.
</event>
<event>
 5    0  0.5452999E-005  0.2328456E+03  0.7546771E-02  0.1124653E+00
         21   -1    0    0  502  501  0.00000000000E+00  0.00000000000E+00  0.45939819749E+03  0.45939819749E+03  0.00000000000E+00 0. -1.
         21   -1    0    0  501  502 -0.00000000000E+00 -0.00000000000E+00 -0.11801763585E+03  0.11801763585E+03  0.00000000000E+00 0. -1.
         25    1    1    2    0    0 -0.24169398610E+02 -0.10635514565E+02 -0.75640885412E+01  0.12798237939E+03  0.12500000000E+03 0.  0.
         25    1    1    2    0    0 -0.67475020520E+01  0.67752989553E+02  0.17907836062E+03  0.22875763511E+03  0.12500000000E+03 0.  0.
         25    1    1    2    0    0  0.30916900662E+02 -0.57117474988E+02  0.16986628956E+03  0.22067581885E+03  0.12500000000E+03 0.  0.
</event>
<event>
 5    0  0.5452999E-005  0.2984830E+03  0.7546771E-02  0.1086001E+00
         21   -1    0    0  502  501  0.00000000000E+00  0.00000000000E+00  0.30176570908E+03  0.30176570908E+03  0.00000000000E+00 0. -1.
         21   -1    0    0  501  502 -0.00000000000E+00 -0.00000000000E+00 -0.29523609731E+03  0.29523609731E+03  0.00000000000E+00 0. -1.
         25    1    1    2    0    0 -0.44365144491E+02  0.37525316604E+01 -0.37798332135E+02  0.13797123415E+03  0.12500000000E+03 0.  0.
         25    1    1    2    0    0  0.11441143747E+03  0.79319199934E+02  0.16868463519E+03  0.25191470511E+03  0.12500000000E+03 0.  0.
         25    1    1    2    0    0 -0.70046292977E+02 -0.83071731595E+02 -0.12435669129E+03  0.20711586713E+03  0.12500000000E+03 0.  0.
</event>
<event>
 5    0  0.5452999E-005  0.5340291E+03  0.7546771E-02  0.1005260E+00
         21   -1    0    0  502  501  0.00000000000E+00  0.00000000000E+00  0.52102972089E+03  0.52102972089E+03  0.00000000000E+00 0.  1.
         21   -1    0    0  501  502 -0.00000000000E+00 -0.00000000000E+00 -0.54735271502E+03  0.54735271502E+03  0.00000000000E+00 0.  1.
         25    1    1    2    0    0  0.11302376715E+03  0.27304909971E+03 -0.36783101010E+03  0.48811354702E+03  0.12500000000E+03 0.  0.
         25    1    1    2    0    0 -0.97862405506E+02 -0.29273932620E+03  0.29410349867E+03  0.44429183139E+03  0.12500000000E+03 0.  0.
         25    1    1    2    0    0 -0.15161361647E+02  0.19690226483E+02  0.47404517299E+02  0.13597705750E+03  0.12500000000E+03 0.  0.
</event>
<event>
 5    0  0.5452999E-005  0.2343345E+03  0.7546771E-02  0.1123626E+00
         21   -1    0    0  502  501  0.00000000000E+00  0.00000000000E+00  0.22874510810E+03  0.22874510810E+03  0.00000000000E+00 0.  1.
         21   -1    0    0  501  502 -0.00000000000E+00 -0.00000000000E+00 -0.24006043346E+03  0.24006043346E+03  0.00000000000E+00 0.  1.
         25    1    1    2    0    0 -0.26674974628E+02 -0.89056575146E+02 -0.90727733376E+00  0.15578334635E+03  0.12500000000E+03 0.  0.
         25    1    1    2    0    0 -0.18512683929E+02 -0.29766651957E+02 -0.31226736614E+02  0.13352483707E+03  0.12500000000E+03 0.  0.
         25    1    1    2    0    0  0.45187658557E+02  0.11882322710E+03  0.20818688585E+02  0.17949735814E+03  0.12500000000E+03 0.  0.
</event>
<event>
 5    0  0.5452999E-005  0.3417140E+03  0.7546771E-02  0.1066068E+00
         21   -1    0    0  502  501  0.00000000000E+00  0.00000000000E+00  0.42875118044E+03  0.42875118044E+03  0.00000000000E+00 0.  1.
         21   -1    0    0  501  502 -0.00000000000E+00 -0.00000000000E+00 -0.27234549737E+03  0.27234549737E+03  0.00000000000E+00 0.  1.
         25    1    1    2    0    0  0.13237448432E+03  0.79837141598E+02  0.25535548537E+03  0.32361767131E+03  0.12500000000E+03 0.  0.
         25    1    1    2    0    0  0.34037977973E+02 -0.31632315795E+02  0.16943602719E+02  0.13442943510E+03  0.12500000000E+03 0.  0.
         25    1    1    2    0    0 -0.16641246229E+03 -0.48204825803E+02 -0.11589340501E+03  0.24304957141E+03  0.12500000000E+03 0.  0.
</event>
<event>
 5    0  0.5452999E-005  0.3338966E+03  0.7546771E-02  0.1069426E+00
         21   -1    0    0  502  501  0.00000000000E+00  0.00000000000E+00  0.64720223263E+03  0.64720223263E+03  0.00000000000E+00 0.  1.
         21   -1    0    0  501  502 -0.00000000000E+00 -0.00000000000E+00 -0.17225980253E+03  0.17225980253E+03  0.00000000000E+00 0.  1.
         25    1    1    2    0    0  0.10945697326E+03  0.11516092348E+03 -0.21540280533E+02  0.20330236344E+03  0.12500000000E+03 0.  0.
         25    1    1    2    0    0 -0.91768577017E+02 -0.10156110227E+03  0.43948437630E+03  0.47697761607E+03  0.12500000000E+03 0.  0.
         25    1    1    2    0    0 -0.17688396247E+02 -0.13599821206E+02  0.56998334338E+02  0.13918205565E+03  0.12500000000E+03 0.  0.
</event>
<event>
 5    0  0.5452999E-005  0.2592238E+03  0.7546771E-02  0.1107611E+00
         21   -1    0    0  502  501  0.00000000000E+00  0.00000000000E+00  0.41157456922E+03  0.41157456922E+03  0.00000000000E+00 0. -1.
         21   -1    0    0  501  502 -0.00000000000E+00 -0.00000000000E+00 -0.16326800530E+03  0.16326800530E+03  0.00000000000E+00 0. -1.
         25    1    1    2    0    0 -0.74288294690E+02  0.21404049991E+02  0.27442022263E+02  0.14951571379E+03  0.12500000000E+03 0.  0.
         25    1    1    2    0    0 -0.58839791212E+02 -0.50807035343E+02  0.18583592860E+03  0.23707270663E+03  0.12500000000E+03 0.  0.
         25    1    1    2    0    0  0.13312808590E+03  0.29402985352E+02  0.35028613058E+02  0.18825415410E+03  0.12500000000E+03 0.  0.
</event>
<event>
 5    0  0.5452999E-005  0.2443226E+03  0.7546771E-02  0.1116946E+00
         21   -1    0    0  502  501  0.00000000000E+00  0.00000000000E+00  0.18235933060E+04  0.18235933060E+04  0.00000000000E+00 0.  1.
         21   -1    0    0  501  502 -0.00000000000E+00 -0.00000000000E+00 -0.32734023677E+02  0.32734023677E+02  0.00000000000E+00 0.  1.
         25    1    1    2    0    0 -0.15754189755E+02  0.95613114004E+02  0.55710506971E+03  0.57912098974E+03  0.12500000000E+03 0.  0.
         25    1    1    2    0    0 -0.61298997027E+02 -0.96259301278E+02  0.84181964814E+03  0.85866683884E+03  0.12500000000E+03 0.  0.
         25    1    1    2    0    0  0.77053186783E+02  0.64618727388E+00  0.39193456445E+03  0.41853950107E+03  0.12500000000E+03 0.  0.
</event>
<event>
 5    0  0.5452999E-005  0.3938066E+03  0.7546771E-02  0.1045946E+00
         21   -1    0    0  502  501  0.00000000000E+00  0.00000000000E+00  0.55084382643E+03  0.55084382643E+03  0.00000000000E+00 0. -1.
         21   -1    0    0  501  502 -0.00000000000E+00 -0.00000000000E+00 -0.28153830328E+03  0.28153830328E+03  0.00000000000E+00 0. -1.
         25    1    1    2    0    0  0.85348288811E+00 -0.30277050682E+02 -0.94477399482E+02  0.15958824281E+03  0.12500000000E+03 0.  0.
         25    1    1    2    0    0 -0.27472282347E+02 -0.23362424343E+03  0.22359761665E+03  0.34778715846E+03  0.12500000000E+03 0.  0.
         25    1    1    2    0    0  0.26618799459E+02  0.26390129411E+03  0.14018530598E+03  0.32500672844E+03  0.12500000000E+03 0.  0.
</event>
<event>
 5    0  0.6305057E-005  0.2883824E+03  0.7546771E-02  0.1091197E+00
         21   -1    0    0  502  501  0.00000000000E+00  0.00000000000E+00  0.33046066259E+03  0.33046066259E+03  0.00000000000E+00 0.  1.
         21   -1    0    0  501  502 -0.00000000000E+00 -0.00000000000E+00 -0.25166206428E+03  0.25166206428E+03  0.00000000000E+00 0.  1.
         25    1    1    2    0    0  0.11918676562E+03 -0.53019247500E+02  0.50480172977E+02  0.18758937488E+03  0.12500000000E+03 0.  0.
         25    1    1    2    0    0 -0.13419510541E+03 -0.45876670536E+02 -0.75672858467E+02  0.20362803521E+03  0.12500000000E+03 0.  0.
         25    1    1    2    0    0  0.15008339787E+02  0.98895918036E+02  0.10399128380E+03  0.19090531678E+03  0.12500000000E+03 0.  0.
</event>
<event>
 5    0  0.5452999E-005  0.6301187E+03  0.7546771E-02  0.9844817E-01
         21   -1    0    0  502  501  0.00000000000E+00  0.00000000000E+00  0.24283831634E+03  0.24283831634E+03  0.00000000000E+00 0.  1.
         21   -1    0    0  501  502 -0.00000000000E+00 -0.00000000000E+00 -0.16350366318E+04  0.16350366318E+04  0.00000000000E+00 0.  1.
         25    1    1    2    0    0 -0.37085068004E+03  0.12503206391E+03 -0.70223540056E+03  0.81358638244E+03  0.12500000000E+03 0.  0.
         25    1    1    2    0    0  0.39163202570E+03  0.31898128637E+02 -0.74824426696E+03  0.85433460494E+03  0.12500000000E+03 0.  0.
         25    1    1    2    0    0 -0.20781345657E+02 -0.15693019255E+03  0.58281352019E+02  0.20995396080E+03  0.12500000000E+03 0.  0.
</event>
<event>
 5    0  0.5452999E-005  0.3957988E+03  0.7546771E-02  0.1045244E+00
         21   -1    0    0  502  501  0.00000000000E+00  0.00000000000E+00  0.12947413252E+03  0.12947413252E+03  0.00000000000E+00 0. -1.
         21   -1    0    0  501  502 -0.00000000000E+00 -0.00000000000E+00 -0.12099456489E+04  0.12099456489E+04  0.00000000000E+00 0. -1.
         25    1    1    2    0    0  0.80498102821E+02  0.16160925864E+03 -0.11062475322E+03  0.24588682978E+03  0.12500000000E+03 0.  0.
         25    1    1    2    0    0 -0.23114226766E+03 -0.12014054240E+03 -0.43246795068E+03  0.52010962901E+03  0.12500000000E+03 0.  0.
         25    1    1    2    0    0  0.15064416484E+03 -0.41468716235E+02 -0.53737881245E+03  0.57342332260E+03  0.12500000000E+03 0.  0.
</event>
<event>
 5    0  0.5452999E-005  0.2316687E+03  0.7546771E-02  0.1125471E+00
         21   -1    0    0  502  501  0.00000000000E+00  0.00000000000E+00  0.29501092366E+03  0.29501092366E+03  0.00000000000E+00 0. -1.
         21   -1    0    0  501  502 -0.00000000000E+00 -0.00000000000E+00 -0.18192681882E+03  0.18192681882E+03  0.00000000000E+00 0. -1.
         25    1    1    2    0    0  0.75438346990E+02 -0.21299151326E+02 -0.57149389262E+02  0.15822658037E+03  0.12500000000E+03 0.  0.
         25    1    1    2    0    0 -0.12010004940E+02  0.85589748661E+01  0.10343407053E+03  0.16291440457E+03  0.12500000000E+03 0.  0.
         25    1    1    2    0    0 -0.63428342051E+02  0.12740176460E+02  0.66799423577E+02  0.15579675755E+03  0.12500000000E+03 0.  0.
</event>
<event>
 5    0  0.5452999E-005  0.2841632E+03  0.7546771E-02  0.1093437E+00
         21   -1    0    0  502  501  0.00000000000E+00  0.00000000000E+00  0.37102162936E+03  0.37102162936E+03  0.00000000000E+00 0.  1.
         21   -1    0    0  501  502 -0.00000000000E+00 -0.00000000000E+00 -0.21763893156E+03  0.21763893156E+03  0.00000000000E+00 0.  1.
         25    1    1    2    0    0 -0.19462458663E+02 -0.13110086922E+03  0.64017602367E+02  0.19310483842E+03  0.12500000000E+03 0.  0.
         25    1    1    2    0    0  0.81791131921E+02  0.18254273666E+03  0.65551731006E+02  0.24481354008E+03  0.12500000000E+03 0.  0.
         25    1    1    2    0    0 -0.62328673258E+02 -0.51441867438E+02  0.23813364420E+02  0.15074218242E+03  0.12500000000E+03 0.  0.
</event>
<event>
 5    0  0.5452999E-005  0.2229020E+03  0.7546771E-02  0.1131738E+00
         21   -1    0    0  502  501  0.00000000000E+00  0.00000000000E+00  0.11646488522E+04  0.11646488522E+04  0.00000000000E+00 0. -1.
         21   -1    0    0  501  502 -0.00000000000E+00 -0.00000000000E+00 -0.42661181721E+02  0.42661181721E+02  0.00000000000E+00 0. -1.
         25    1    1    2    0    0  0.54582874135E+01  0.69585025628E+02  0.26369143190E+03  0.30005006241E+03  0.12500000000E+03 0.  0.
         25    1    1    2    0    0  0.42054182894E+02 -0.39020030015E+02  0.59133076282E+03  0.60711464164E+03  0.12500000000E+03 0.  0.
         25    1    1    2    0    0 -0.47512470308E+02 -0.30564995613E+02  0.26696547571E+03  0.30014532982E+03  0.12500000000E+03 0.  0.
</event>
<event>
 5    0  0.5749599E-005  0.3048423E+03  0.7546771E-02  0.1082845E+00
         21   -1    0    0  502  501  0.00000000000E+00  0.00000000000E+00  0.25514347197E+03  0.25514347197E+03  0.00000000000E+00 0. -1.
         21   -1    0    0  501  502 -0.00000000000E+00 -0.00000000000E+00 -0.36422179883E+03  0.36422179883E+03  0.00000000000E+00 0. -1.
         25    1    1    2    0    0  0.95975774999E+02  0.11727088610E+02  0.11148622745E+03  0.19339868900E+03  0.12500000000E+03 0.  0.
         25    1    1    2    0    0 -0.14769840928E+03 -0.33632736369E+02 -0.41929601425E+02  0.20082099625E+03  0.12500000000E+03 0.  0.
         25    1    1    2    0    0  0.51722634282E+02  0.21905647759E+02 -0.17863495289E+03  0.22514558555E+03  0.12500000000E+03 0.  0.
</event>
<event>
 5    0  0.5452999E-005  0.3266812E+03  0.7546771E-02  0.1072615E+00
         21   -1    0    0  502  501  0.00000000000E+00  0.00000000000E+00  0.79017035704E+02  0.79017035704E+02  0.00000000000E+00 0. -1.
         21   -1    0    0  501  502 -0.00000000000E+00 -0.00000000000E+00 -0.13506024224E+04  0.13506024224E+04  0.00000000000E+00 0. -1.
         25    1    1    2    0    0  0.37185578819E+01  0.10807771961E+03 -0.78563669330E+03  0.80283537230E+03  0.12500000000E+03 0.  0.
         25    1    1    2    0    0  0.19497935075E+02 -0.19542208547E+03 -0.35459125115E+03  0.42418146630E+03  0.12500000000E+03 0.  0.
         25    1    1    2    0    0 -0.23216492957E+02  0.87344365855E+02 -0.13135744220E+03  0.20260261946E+03  0.12500000000E+03 0.  0.
</event>
<event>
 5    0  0.5452999E-005  0.3576429E+03  0.7546771E-02  0.1059521E+00
         21   -1    0    0  502  501  0.00000000000E+00  0.00000000000E+00  0.11398015926E+03  0.11398015926E+03  0.00000000000E+00 0.  1.
         21   -1    0    0  501  502 -0.00000000000E+00 -0.00000000000E+00 -0.11221990355E+04  0.11221990355E+04  0.00000000000E+00 0.  1.
         25    1    1    2    0    0 -0.10212994237E+02  0.17041628022E+03 -0.34835174212E+03  0.40757815208E+03  0.12500000000E+03 0.  0.
         25    1    1    2    0    0  0.13474546098E+03 -0.61344172253E+02 -0.57090870167E+03  0.60289401420E+03  0.12500000000E+03 0.  0.
         25    1    1    2    0    0 -0.12453246675E+03 -0.10907210797E+03 -0.88958432489E+02  0.22570702851E+03  0.12500000000E+03 0.  0.
</event>
<event>
 5    0  0.5452999E-005  0.2435249E+03  0.7546771E-02  0.1117467E+00
         21   -1    0    0  502  501  0.00000000000E+00  0.00000000000E+00  0.19713897198E+03  0.19713897198E+03  0.00000000000E+00 0. -1.
         21   -1    0    0  501  502 -0.00000000000E+00 -0.00000000000E+00 -0.30082522062E+03  0.30082522062E+03  0.00000000000E+00 0. -1.
         25    1    1    2    0    0 -0.95470835931E+02  0.35379972431E+02 -0.11662300200E+03  0.19897825901E+03  0.12500000000E+03 0.  0.
         25    1    1    2    0    0  0.90955513639E+02 -0.68775989237E+02  0.47673394192E+01  0.16926538241E+03  0.12500000000E+03 0.  0.
         25    1    1    2    0    0  0.45153222923E+01  0.33396016805E+02  0.81694139477E+01  0.12972055118E+03  0.12500000000E+03 0.  0.
</event>
<event>
 5    0  0.5452999E-005  0.2572774E+03  0.7546771E-02  0.1108790E+00
         21   -1    0    0  502  501  0.00000000000E+00  0.00000000000E+00  0.50335065943E+03  0.50335065943E+03  0.00000000000E+00 0.  1.
         21   -1    0    0  501  502 -0.00000000000E+00 -0.00000000000E+00 -0.13150212428E+03  0.13150212428E+03  0.00000000000E+00 0.  1.
         25    1    1    2    0    0 -0.34056895050E+02  0.14795527961E+03  0.13991807473E+03  0.24135597051E+03  0.12500000000E+03 0.  0.
         25    1    1    2    0    0 -0.33833853419E+02 -0.82434321012E+02  0.15806544877E+03  0.22034026643E+03  0.12500000000E+03 0.  0.
         25    1    1    2    0    0  0.67890748469E+02 -0.65520958596E+02  0.73865011642E+02  0.17315654677E+03  0.12500000000E+03 0.  0.
</event>
<event>
 5    0  0.5714988E-005  0.3148042E+03  0.7546771E-02  0.1078066E+00
         21   -1    0    0  502  501  0.00000000000E+00  0.00000000000E+00  0.11104846072E+03  0.11104846072E+03  0.00000000000E+00 0. -1.
         21   -1    0    0  501  502 -0.00000000000E+00 -0.00000000000E+00 -0.89241849026E+03  0.89241849026E+03  0.00000000000E+00 0. -1.
         25    1    1    2    0    0  0.78350551091E+02 -0.30822777180E+02 -0.47439830448E+03  0.49776259777E+03  0.12500000000E+03 0.  0.
         25    1    1    2    0    0 -0.10699444687E+03 -0.30261765597E+02 -0.32199935295E+03  0.36286660003E+03  0.12500000000E+03 0.  0.
         25    1    1    2    0    0  0.28643895778E+02  0.61084542777E+02  0.15027627884E+02  0.14283775317E+03  0.12500000000E+03 0.  0.
</event>
<event>
 5    0  0.5452999E-005  0.5962277E+03  0.7546771E-02  0.9913263E-01
         21   -1    0    0  502  501  0.00000000000E+00  0.00000000000E+00  0.59846684710E+03  0.59846684710E+03  0.00000000000E+00 0. -1.
         21   -1    0    0  501  502 -0.00000000000E+00 -0.00000000000E+00 -0.59399698687E+03  0.59399698687E+03  0.00000000000E+00 0. -1.
         25    1    1    2    0    0 -0.43518737652E+03  0.60034781526E+02  0.23642406795E+03  0.51430882511E+03  0.12500000000E+03 0.  0.
         25    1    1    2    0    0  0.84466727785E+02  0.13956576651E+03 -0.13127119228E+03  0.24386544898E+03  0.12500000000E+03 0.  0.
         25    1    1    2    0    0  0.35072064874E+03 -0.19960054803E+03 -0.10068301545E+03  0.43428955989E+03  0.12500000000E+03 0.  0.
</event>
<event>
 5    0  0.5452999E-005  0.2245295E+03  0.7546771E-02  0.1130550E+00
         21   -1    0    0  502  501  0.00000000000E+00  0.00000000000E+00  0.26587914242E+03  0.26587914242E+03  0.00000000000E+00 0.  1.
         21   -1    0    0  501  502 -0.00000000000E+00 -0.00000000000E+00 -0.18961059655E+03  0.18961059655E+03  0.00000000000E+00 0.  1.
         25    1    1    2    0    0  0.60117063173E+02  0.73524980335E+02  0.42269330400E+02  0.16257822828E+03  0.12500000000E+03 0.  0.
         25    1    1    2    0    0 -0.20673865438E+02  0.19661849609E+02  0.31678591119E+02  0.13207017141E+03  0.12500000000E+03 0.  0.
         25    1    1    2    0    0 -0.39443197735E+02 -0.93186829944E+02  0.23206243532E+01  0.16084133928E+03  0.12500000000E+03 0.  0.
</event>
<event>
 5    0  0.5452999E-005  0.4105213E+03  0.7546771E-02  0.1040196E+00
         21   -1    0    0  502  501  0.00000000000E+00  0.00000000000E+00  0.66768830812E+03  0.66768830812E+03  0.00000000000E+00 0.  1.
         21   -1    0    0  501  502 -0.00000000000E+00 -0.00000000000E+00 -0.25240475693E+03  0.25240475693E+03  0.00000000000E+00 0.  1.
         25    1    1    2    0    0 -0.17163743509E+03  0.44509731583E+02 -0.14839820023E+03  0.26284510869E+03  0.12500000000E+03 0.  0.
         25    1    1    2    0    0  0.75984029374E+02  0.18062630767E+02  0.15030277572E+03  0.21051307736E+03  0.12500000000E+03 0.  0.
         25    1    1    2    0    0  0.95653405718E+02 -0.62572362349E+02  0.41337897570E+03  0.44673487899E+03  0.12500000000E+03 0.  0.
</event>
<event>
 5    0  0.5452999E-005  0.3178393E+03  0.7546771E-02  0.1076648E+00
         21   -1    0    0  502  501  0.00000000000E+00  0.00000000000E+00  0.62487215873E+03  0.62487215873E+03  0.00000000000E+00 0. -1.
         21   -1    0    0  501  502 -0.00000000000E+00 -0.00000000000E+00 -0.16166799790E+03  0.16166799790E+03  0.00000000000E+00 0. -1.
         25    1    1    2    0    0  0.12370773560E+03 -0.20131840112E+02  0.76888561627E+02  0.19299156910E+03  0.12500000000E+03 0.  0.
         25    1    1    2    0    0 -0.22607484638E+03  0.84305679380E+02  0.27784286140E+03  0.38863728510E+03  0.12500000000E+03 0.  0.
         25    1    1    2    0    0  0.10236711077E+03 -0.64173839267E+02  0.10847273780E+03  0.20491130242E+03  0.12500000000E+03 0.  0.
</event>
<event>
 5    0  0.5452999E-005  0.3185544E+03  0.7546771E-02  0.1076317E+00
         21   -1    0    0  502  501  0.00000000000E+00  0.00000000000E+00  0.59825196987E+03  0.59825196987E+03  0.00000000000E+00 0. -1.
         21   -1    0    0  501  502 -0.00000000000E+00 -0.00000000000E+00 -0.16962236290E+03  0.16962236290E+03  0.00000000000E+00 0.  1.
         25    1    1    2    0    0 -0.16045564791E+03 -0.17583883441E+03  0.13533200960E+03  0.30100674985E+03  0.12500000000E+03 0.  0.
         25    1    1    2    0    0  0.11047249111E+03  0.49052559535E+02  0.17856427358E+03  0.24923989386E+03  0.12500000000E+03 0.  0.
         25    1    1    2    0    0  0.49983156801E+02  0.12678627487E+03  0.11473332379E+03  0.21762768906E+03  0.12500000000E+03 0.  0.
</event>
<event>
 5    0  0.5452999E-005  0.2747557E+03  0.7546771E-02  0.1098588E+00
         21   -1    0    0  502  501  0.00000000000E+00  0.00000000000E+00  0.13112876497E+04  0.13112876497E+04  0.00000000000E+00 0. -1.
         21   -1    0    0  501  502 -0.00000000000E+00 -0.00000000000E+00 -0.57569904333E+02  0.57569904333E+02  0.00000000000E+00 0. -1.
         25    1    1    2    0    0 -0.79682665305E+02 -0.15967844310E+03  0.41184874946E+03  0.46593017156E+03  0.12500000000E+03 0.  0.
         25    1    1    2    0    0  0.81900856077E+02  0.11982600465E+03  0.56385528711E+03  0.59550298607E+03  0.12500000000E+03 0.  0.
         25    1    1    2    0    0 -0.22181907711E+01  0.39852438447E+02  0.27801370877E+03  0.30742439637E+03  0.12500000000E+03 0.  0.
</event>
<event>
 5    0  0.5452999E-005  0.2724454E+03  0.7546771E-02  0.1099888E+00
         21   -1    0    0  502  501  0.00000000000E+00  0.00000000000E+00  0.10560219581E+04  0.10560219581E+04  0.00000000000E+00 0.  1.
         21   -1    0    0  501  502 -0.00000000000E+00 -0.00000000000E+00 -0.70288804583E+02  0.70288804583E+02  0.00000000000E+00 0.  1.
         25    1    1    2    0    0  0.83783119131E+02  0.77278046413E+02  0.33239860100E+03  0.37296827942E+03  0.12500000000E+03 0.  0.
         25    1    1    2    0    0 -0.14470026413E+03 -0.96020769569E+02  0.50852249409E+03  0.55170488635E+03  0.12500000000E+03 0.  0.
         25    1    1    2    0    0  0.60917145003E+02  0.18742723155E+02  0.14481205848E+03  0.20163759696E+03  0.12500000000E+03 0.  0.
</event>
<event>
 5    0  0.5452999E-005  0.4589784E+03  0.7546771E-02  0.1025078E+00
         21   -1    0    0  502  501  0.00000000000E+00  0.00000000000E+00  0.28579346317E+03  0.28579346317E+03  0.00000000000E+00 0. -1.
         21   -1    0    0  501  502 -0.00000000000E+00 -0.00000000000E+00 -0.73710967524E+03  0.73710967524E+03  0.00000000000E+00 0. -1.
         25    1    1    2    0    0  0.14864536666E+03 -0.11350759274E+03 -0.46639400650E+03  0.51781057148E+03  0.12500000000E+03 0.  0.
         25    1    1    2    0    0  0.51909687260E+02  0.44752667442E+02 -0.15140339799E+03  0.20795529759E+03  0.12500000000E+03 0.  0.
         25    1    1    2    0    0 -0.20055505392E+03  0.68754925302E+02  0.16648119241E+03  0.29713726934E+03  0.12500000000E+03 0.  0.
</event>
<event>
 5    0  0.5452999E-005  0.2623209E+03  0.7546771E-02  0.1105757E+00
         21   -1    0    0  502  501  0.00000000000E+00  0.00000000000E+00  0.30427046259E+03  0.30427046259E+03  0.00000000000E+00 0.  1.
         21   -1    0    0  501  502 -0.00000000000E+00 -0.00000000000E+00 -0.22615485412E+03  0.22615485412E+03  0.00000000000E+00 0.  1.
         25    1    1    2    0    0  0.68338617718E+02  0.94569996921E+02 -0.10925719113E+02  0.17134182889E+03  0.12500000000E+03 0.  0.
         25    1    1    2    0    0  0.23821909845E+02 -0.12664797984E+03  0.89271825307E+02  0.20050349867E+03  0.12500000000E+03 0.  0.
         25    1    1    2    0    0 -0.92160527563E+02  0.32077982921E+02 -0.23049772115E+00  0.15857998915E+03  0.12500000000E+03 0.  0.
</event>
<event>
 5    0  0.5452999E-005  0.3104725E+03  0.7546771E-02  0.1080120E+00
         21   -1    0    0  502  501  0.00000000000E+00  0.00000000000E+00  0.33598658078E+03  0.33598658078E+03  0.00000000000E+00 0.  1.
         21   -1    0    0  501  502 -0.00000000000E+00 -0.00000000000E+00 -0.28689586002E+03  0.28689586002E+03  0.00000000000E+00 0.  1.
         25    1    1    2    0    0  0.33014289839E+02 -0.22403057919E+03 -0.34832066892E+01  0.25868277189E+03  0.12500000000E+03 0.  0.
         25    1    1    2    0    0 -0.55402785705E+02  0.14434900011E+03 -0.15748986677E+02  0.19944706836E+03  0.12500000000E+03 0.  0.
         25    1    1    2    0    0  0.22388495866E+02  0.79681579076E+02  0.68322914128E+02  0.16475260054E+03  0.12500000000E+03 0.  0.
</event>
<event>
 5    0  0.5452999E-005  0.2996455E+03  0.7546771E-02  0.1085418E+00
         21   -1    0    0  502  501  0.00000000000E+00  0.00000000000E+00  0.84909814319E+03  0.84909814319E+03  0.00000000000E+00 0.  1.
         21   -1    0    0  501  502 -0.00000000000E+00 -0.00000000000E+00 -0.10574443076E+03  0.10574443076E+03  0.00000000000E+00 0.  1.
         25    1    1    2    0    0  0.28715392307E+02 -0.33988276961E+02  0.80976753458E+02  0.15544134369E+03  0.12500000000E+03 0.  0.
         25    1    1    2    0    0 -0.16197897372E+02  0.66460532697E+02  0.65403695030E+03  0.66937934435E+03  0.12500000000E+03 0.  0.
         25    1    1    2    0    0 -0.12517494935E+02 -0.32472255736E+02  0.83400086747E+01  0.13002188591E+03  0.12500000000E+03 0.  0.
</event>
<event>
 5    0  0.5452999E-005  0.2963016E+03  0.7546771E-02  0.1087104E+00
         21   -1    0    0  502  501  0.00000000000E+00  0.00000000000E+00  0.22079977862E+03  0.22079977862E+03  0.00000000000E+00 0.  1.
         21   -1    0    0  501  502 -0.00000000000E+00 -0.00000000000E+00 -0.39762112407E+03  0.39762112407E+03  0.00000000000E+00 0.  1.
         25    1    1    2    0    0  0.25353104198E+02  0.15190825224E+03  0.56062980126E+02  0.20612363943E+03  0.12500000000E+03 0.  0.
         25    1    1    2    0    0  0.16159385116E+01 -0.26424208452E+02 -0.12656649005E+02  0.12839797823E+03  0.12500000000E+03 0.  0.
         25    1    1    2    0    0 -0.26969042709E+02 -0.12548404379E+03 -0.22022767658E+03  0.28389928503E+03  0.12500000000E+03 0.  0.
</event>
<event>
 5    0  0.5452999E-005  0.2740896E+03  0.7546771E-02  0.1098962E+00
         21   -1    0    0  502  501  0.00000000000E+00  0.00000000000E+00  0.11573120337E+03  0.11573120337E+03  0.00000000000E+00 0. -1.
         21   -1    0    0  501  502 -0.00000000000E+00 -0.00000000000E+00 -0.64913438971E+03  0.64913438971E+03  0.00000000000E+00 0. -1.
         25    1    1    2    0    0  0.14522135821E+03 -0.65024804061E+02 -0.15519770376E+03  0.25500744161E+03  0.12500000000E+03 0.  0.
         25    1    1    2    0    0 -0.74384395471E+01  0.72527173744E+02 -0.23067091417E+03  0.27230422684E+03  0.12500000000E+03 0.  0.
         25    1    1    2    0    0 -0.13778291866E+03 -0.75023696832E+01 -0.14753456841E+03  0.23755392462E+03  0.12500000000E+03 0.  0.
</event>
<event>
 5    0  0.5452999E-005  0.2720538E+03  0.7546771E-02  0.1100110E+00
         21   -1    0    0  502  501  0.00000000000E+00  0.00000000000E+00  0.22500181523E+02  0.22500181523E+02  0.00000000000E+00 0. -1.
         21   -1    0    0  501  502 -0.00000000000E+00 -0.00000000000E+00 -0.32894526557E+04  0.32894526557E+04  0.00000000000E+00 0. -1.
         25    1    1    2    0    0 -0.92233588138E+00 -0.73651417940E+02 -0.42319760217E+03  0.44737746094E+03  0.12500000000E+03 0.  0.
         25    1    1    2    0    0  0.79951193871E+02  0.45444020962E+02 -0.77707440346E+03  0.79241843805E+03  0.12500000000E+03 0.  0.
         25    1    1    2    0    0 -0.79028857990E+02  0.28207396979E+02 -0.20666804686E+04  0.20721569383E+04  0.12500000000E+03 0.  0.
</event>
<event>
 5    0  0.5452999E-005  0.3077411E+03  0.7546771E-02  0.1081434E+00
         21   -1    0    0  502  501  0.00000000000E+00  0.00000000000E+00  0.41679151897E+04  0.41679151897E+04  0.00000000000E+00 0. -1.
         21   -1    0    0  501  502 -0.00000000000E+00 -0.00000000000E+00 -0.22722296781E+02  0.22722296781E+02  0.00000000000E+00 0. -1.
         25    1    1    2    0    0  0.35621529673E+01 -0.66569598571E+01  0.39314370783E+03  0.41260632454E+03  0.12500000000E+03 0.  0.
         25    1    1    2    0    0  0.11490410771E+03  0.48884896186E+02  0.30064227157E+04  0.30116100732E+04  0.12500000000E+03 0.  0.
         25    1    1    2    0    0 -0.11846626068E+03 -0.42227936329E+02  0.74562646934E+03  0.76642108877E+03  0.12500000000E+03 0.  0.
</event>
<event>
 5    0  0.5452999E-005  0.3460608E+03  0.7546771E-02  0.1064244E+00
         21   -1    0    0  502  501  0.00000000000E+00  0.00000000000E+00  0.11798185684E+04  0.11798185684E+04  0.00000000000E+00 0. -1.
         21   -1    0    0  501  502 -0.00000000000E+00 -0.00000000000E+00 -0.10150548382E+03  0.10150548382E+03  0.00000000000E+00 0. -1.
         25    1    1    2    0    0  0.21750405597E+03 -0.50158014378E+02  0.25650255326E+03  0.36227393033E+03  0.12500000000E+03 0.  0.
         25    1    1    2    0    0 -0.15888891703E+03 -0.21706086339E+02  0.67548617154E+03  0.70542427664E+03  0.12500000000E+03 0.  0.
         25    1    1    2    0    0 -0.58615138939E+02  0.71864100717E+02  0.14632435975E+03  0.21362584521E+03  0.12500000000E+03 0.  0.
</event>
<event>
 5    0  0.5452999E-005  0.2524803E+03  0.7546771E-02  0.1111747E+00
         21   -1    0    0  502  501  0.00000000000E+00  0.00000000000E+00  0.66982161832E+03  0.66982161832E+03  0.00000000000E+00 0. -1.
         21   -1    0    0  501  502 -0.00000000000E+00 -0.00000000000E+00 -0.95169040670E+02  0.95169040670E+02  0.00000000000E+00 0. -1.
         25    1    1    2    0    0 -0.11141625847E+03 -0.22538976041E+02  0.22585630756E+03  0.28205967411E+03  0.12500000000E+03 0.  0.
         25    1    1    2    0    0 -0.32462849752E+02  0.50949415145E+02  0.17545403767E+03  0.22373823735E+03  0.12500000000E+03 0.  0.
         25    1    1    2    0    0  0.14387910822E+03 -0.28410439105E+02  0.17334223242E+03  0.25919274753E+03  0.12500000000E+03 0.  0.
</event>
<event>
 5    0  0.5452999E-005  0.2330930E+03  0.7546771E-02  0.1124482E+00
         21   -1    0    0  502  501  0.00000000000E+00  0.00000000000E+00  0.18398590007E+04  0.18398590007E+04  0.00000000000E+00 0. -1.
         21   -1    0    0  501  502 -0.00000000000E+00 -0.00000000000E+00 -0.29530713858E+02  0.29530713858E+02  0.00000000000E+00 0. -1.
         25    1    1    2    0    0  0.25885465738E+02  0.11412419093E+03  0.87829723060E+03  0.89483261762E+03  0.12500000000E+03 0.  0.
         25    1    1    2    0    0 -0.17968490169E+02 -0.94019765803E+02  0.54323389365E+03  0.56558876068E+03  0.12500000000E+03 0.  0.
         25    1    1    2    0    0 -0.79169755689E+01 -0.20104425129E+02  0.38879716258E+03  0.40896833623E+03  0.12500000000E+03 0.  0.
</event>
<event>
 5    0  0.5452999E-005  0.5228473E+03  0.7546771E-02  0.1007982E+00
         21   -1    0    0  502  501  0.00000000000E+00  0.00000000000E+00  0.11281283560E+04  0.11281283560E+04  0.00000000000E+00 0.  1.
         21   -1    0    0  501  502 -0.00000000000E+00 -0.00000000000E+00 -0.24232111113E+03  0.24232111113E+03  0.00000000000E+00 0.  1.
         25    1    1    2    0    0 -0.24861232650E+02  0.22114558371E+03  0.16599035475E+03  0.30446879635E+03  0.12500000000E+03 0.  0.
         25    1    1    2    0    0  0.39471623232E+02 -0.22845118198E+03  0.84693976207E+03  0.88694977996E+03  0.12500000000E+03 0.  0.
         25    1    1    2    0    0 -0.14610390582E+02  0.73055982783E+01 -0.12712287198E+03  0.17903089080E+03  0.12500000000E+03 0.  0.
</event>
<event>
 5    0  0.5452999E-005  0.2373173E+03  0.7546771E-02  0.1121593E+00
         21   -1    0    0  502  501  0.00000000000E+00  0.00000000000E+00  0.40460777349E+03  0.40460777349E+03  0.00000000000E+00 0. -1.
         21   -1    0    0  501  502 -0.00000000000E+00 -0.00000000000E+00 -0.13919533888E+03  0.13919533888E+03  0.00000000000E+00 0. -1.
         25    1    1    2    0    0  0.21254935425E+02 -0.72784746671E+01  0.51971737826E+02  0.13722539855E+03  0.12500000000E+03 0.  0.
         25    1    1    2    0    0  0.22725490201E+02  0.67842437699E+02 -0.48751570538E+01  0.14411041397E+03  0.12500000000E+03 0.  0.
         25    1    1    2    0    0 -0.43980425625E+02 -0.60563963032E+02  0.21831585383E+03  0.26246729985E+03  0.12500000000E+03 0.  0.
</event>
<event>
 5    0  0.5452999E-005  0.3470990E+03  0.7546771E-02  0.1063812E+00
         21   -1    0    0  502  501  0.00000000000E+00  0.00000000000E+00  0.23370441823E+03  0.23370441823E+03  0.00000000000E+00 0.  1.
         21   -1    0    0  501  502 -0.00000000000E+00 -0.00000000000E+00 -0.51551312684E+03  0.51551312684E+03  0.00000000000E+00 0.  1.
         25    1    1    2    0    0 -0.25048257581E+03  0.23703502952E+02 -0.90590338308E+02  0.29518635848E+03  0.12500000000E+03 0.  0.
         25    1    1    2    0    0  0.20948569557E+03  0.61394036201E+02 -0.14648189242E+03  0.29109350583E+03  0.12500000000E+03 0.  0.
         25    1    1    2    0    0  0.40996880249E+02 -0.85097539153E+02 -0.44736477885E+02  0.16293768077E+03  0.12500000000E+03 0.  0.
</event>
<event>
 5    0  0.5452999E-005  0.2648124E+03  0.7546771E-02  0.1104286E+00
         21   -1    0    0  502  501  0.00000000000E+00  0.00000000000E+00  0.44577600702E+03  0.44577600702E+03  0.00000000000E+00 0.  1.
         21   -1    0    0  501  502 -0.00000000000E+00 -0.00000000000E+00 -0.15731135463E+03  0.15731135463E+03  0.00000000000E+00 0.  1.
         25    1    1    2    0    0 -0.67174255510E+01  0.10182817322E+03  0.23640236210E+03  0.28622574565E+03  0.12500000000E+03 0.  0.
         25    1    1    2    0    0  0.74670982192E+02 -0.85911370496E+02  0.35441538630E+02  0.17273569933E+03  0.12500000000E+03 0.  0.
         25    1    1    2    0    0 -0.67953556641E+02 -0.15916802726E+02  0.16620751662E+02  0.14412591667E+03  0.12500000000E+03 0.  0.
</event>
<event>
 5    0  0.5452999E-005  0.3325440E+03  0.7546771E-02  0.1070017E+00
         21   -1    0    0  502  501  0.00000000000E+00  0.00000000000E+00  0.18988374382E+03  0.18988374382E+03  0.00000000000E+00 0.  1.
         21   -1    0    0  501  502 -0.00000000000E+00 -0.00000000000E+00 -0.58238520815E+03  0.58238520815E+03  0.00000000000E+00 0.  1.
         25    1    1    2    0    0  0.27241960056E+02  0.25920612825E+02 -0.97515531094E+02  0.16293643350E+03  0.12500000000E+03 0.  0.
         25    1    1    2    0    0 -0.27695156770E+02  0.12010756146E+03 -0.36478625305E+03  0.40482941894E+03  0.12500000000E+03 0.  0.
         25    1    1    2    0    0  0.45319671361E+00 -0.14602817428E+03  0.69800319810E+02  0.20450309953E+03  0.12500000000E+03 0.  0.
</event>
<event>
 5    0  0.5452999E-005  0.2413202E+03  0.7546771E-02  0.1118916E+00
         21   -1    0    0  502  501  0.00000000000E+00  0.00000000000E+00  0.23070942389E+03  0.23070942389E+03  0.00000000000E+00 0. -1.
         21   -1    0    0  501  502 -0.00000000000E+00 -0.00000000000E+00 -0.25241898977E+03  0.25241898977E+03  0.00000000000E+00 0. -1.
         25    1    1    2    0    0 -0.69815752670E+01 -0.12246112826E+02 -0.78366119165E+02  0.14820579714E+03  0.12500000000E+03 0.  0.
         25    1    1    2    0    0 -0.44198481310E+01  0.25567069562E+02 -0.78597826798E+02  0.14991940662E+03  0.12500000000E+03 0.  0.
         25    1    1    2    0    0  0.11401423398E+02 -0.13320956736E+02  0.13525438008E+03  0.18500320990E+03  0.12500000000E+03 0.  0.
</event>
<event>
 5    0  0.5452999E-005  0.3321872E+03  0.7546771E-02  0.1070173E+00
         21   -1    0    0  502  501  0.00000000000E+00  0.00000000000E+00  0.16134875038E+03  0.16134875038E+03  0.00000000000E+00 0. -1.
         21   -1    0    0  501  502 -0.00000000000E+00 -0.00000000000E+00 -0.68391174114E+03  0.68391174114E+03  0.00000000000E+00 0. -1.
         25    1    1    2    0    0  0.97447668654E+01  0.23770829473E+02 -0.11393985909E+03  0.17107689588E+03  0.12500000000E+03 0.  0.
         25    1    1    2    0    0 -0.59452475114E+02 -0.20737130572E+03 -0.36563728405E+03  0.44255291064E+03  0.12500000000E+03 0.  0.
         25    1    1    2    0    0  0.49707708248E+02  0.18360047624E+03 -0.42985847627E+02  0.23163068500E+03  0.12500000000E+03 0.  0.
</event>
<event>
 5    0  0.5452999E-005  0.3698885E+03  0.7546771E-02  0.1054736E+00
         21   -1    0    0  502  501  0.00000000000E+00  0.00000000000E+00  0.17338645507E+04  0.17338645507E+04  0.00000000000E+00 0.  1.
         21   -1    0    0  501  502 -0.00000000000E+00 -0.00000000000E+00 -0.78908986561E+02  0.78908986561E+02  0.00000000000E+00 0.  1.
         25    1    1    2    0    0 -0.25360333335E+03 -0.83309331443E+02  0.63806476570E+03  0.70285613081E+03  0.12500000000E+03 0.  0.
         25    1    1    2    0    0  0.12766069303E+03 -0.62988396507E+02  0.64876755519E+03  0.67586176938E+03  0.12500000000E+03 0.  0.
         25    1    1    2    0    0  0.12594264032E+03  0.14629772795E+03  0.36812324324E+03  0.43405563707E+03  0.12500000000E+03 0.  0.
</event>
<event>
 5    0  0.5452999E-005  0.2938456E+03  0.7546771E-02  0.1088358E+00
         21   -1    0    0  502  501  0.00000000000E+00  0.00000000000E+00  0.36238443648E+03  0.36238443648E+03  0.00000000000E+00 0.  1.
         21   -1    0    0  501  502 -0.00000000000E+00 -0.00000000000E+00 -0.23826978025E+03  0.23826978025E+03  0.00000000000E+00 0.  1.
         25    1    1    2    0    0 -0.18952146730E+03 -0.21347957415E+02  0.41247223360E+02  0.23173358688E+03  0.12500000000E+03 0.  0.
         25    1    1    2    0    0  0.46352695085E+02  0.48959283680E+02  0.10353813771E+03  0.17575758806E+03  0.12500000000E+03 0.  0.
         25    1    1    2    0    0  0.14316877222E+03 -0.27611326265E+02 -0.20670704835E+02  0.19316304179E+03  0.12500000000E+03 0.  0.
</event>
<event>
 5    0  0.5452999E-005  0.2719167E+03  0.7546771E-02  0.1100188E+00
         21   -1    0    0  502  501  0.00000000000E+00  0.00000000000E+00  0.22255670726E+03  0.22255670726E+03  0.00000000000E+00 0.  1.
         21   -1    0    0  501  502 -0.00000000000E+00 -0.00000000000E+00 -0.33222402284E+03  0.33222402284E+03  0.00000000000E+00 0.  1.
         25    1    1    2    0    0 -0.79020877282E+02  0.67169103017E+02  0.31650685335E+02  0.16547734990E+03  0.12500000000E+03 0.  0.
         25    1    1    2    0    0 -0.36585275185E+02 -0.36347511956E+02  0.37652746762E+02  0.14036507160E+03  0.12500000000E+03 0.  0.
         25    1    1    2    0    0  0.11560615247E+03 -0.30821591061E+02 -0.17897074768E+03  0.24893830860E+03  0.12500000000E+03 0.  0.
</event>
<event>
 5    0  0.5452999E-005  0.4877335E+03  0.7546771E-02  0.1017031E+00
         21   -1    0    0  502  501  0.00000000000E+00  0.00000000000E+00  0.17446542131E+04  0.17446542131E+04  0.00000000000E+00 0. -1.
         21   -1    0    0  501  502 -0.00000000000E+00 -0.00000000000E+00 -0.13635020958E+03  0.13635020958E+03  0.00000000000E+00 0. -1.
         25    1    1    2    0    0  0.13447733794E+03  0.12908496224E+03  0.12637933200E+04  0.12835675430E+04  0.12500000000E+03 0.  0.
         25    1    1    2    0    0  0.12217434068E+03 -0.64493585678E+02  0.19145559624E+03  0.26714460026E+03  0.12500000000E+03 0.  0.
         25    1    1    2    0    0 -0.25665167862E+03 -0.64591376563E+02  0.15305508728E+03  0.33029227936E+03  0.12500000000E+03 0.  0.
</event>
<event>
 5    0  0.5452999E-005  0.2647611E+03  0.7546771E-02  0.1104316E+00
         21   -1    0    0  502  501  0.00000000000E+00  0.00000000000E+00  0.26956824094E+03  0.26956824094E+03  0.00000000000E+00 0.  1.
         21   -1    0    0  501  502 -0.00000000000E+00 -0.00000000000E+00 -0.26003967072E+03  0.26003967072E+03  0.00000000000E+00 0.  1.
         25    1    1    2    0    0 -0.13144281593E+03  0.16586984081E+02  0.10639330938E+03  0.21094283154E+03  0.12500000000E+03 0.  0.
         25    1    1    2    0    0  0.10733020532E+03 -0.23574448321E+02 -0.14911713561E+02  0.16710142665E+03  0.12500000000E+03 0.  0.
         25    1    1    2    0    0  0.24112610604E+02  0.69874642398E+01 -0.81953025596E+02  0.15156365346E+03  0.12500000000E+03 0.  0.
</event>
<event>
 5    0  0.5452999E-005  0.3669189E+03  0.7546771E-02  0.1055877E+00
         21   -1    0    0  502  501  0.00000000000E+00  0.00000000000E+00  0.92868677968E+03  0.92868677968E+03  0.00000000000E+00 0.  1.
         21   -1    0    0  501  502 -0.00000000000E+00 -0.00000000000E+00 -0.14496760874E+03  0.14496760874E+03  0.00000000000E+00 0.  1.
         25    1    1    2    0    0 -0.16105177659E+03 -0.90122804063E+02  0.58027938920E+03  0.62161802105E+03  0.12500000000E+03 0.  0.
         25    1    1    2    0    0  0.53572979125E+02  0.17144487645E+02 -0.45716365849E+02  0.14449561812E+03  0.12500000000E+03 0.  0.
         25    1    1    2    0    0  0.10747879747E+03  0.72978316418E+02  0.24915614758E+03  0.30754074925E+03  0.12500000000E+03 0.  0.
</event>
<event>
 5    0  0.5452999E-005  0.3206657E+03  0.7546771E-02  0.1075343E+00
         21   -1    0    0  502  501  0.00000000000E+00  0.00000000000E+00  0.35242452837E+03  0.35242452837E+03  0.00000000000E+00 0. -1.
         21   -1    0    0  501  502 -0.00000000000E+00 -0.00000000000E+00 -0.29176885664E+03  0.29176885664E+03  0.00000000000E+00 0. -1.
         25    1    1    2    0    0 -0.83059612081E+02  0.88852748783E+01 -0.23075853032E+02  0.15210306460E+03  0.12500000000E+03 0.  0.
         25    1    1    2    0    0  0.71596084884E+02  0.11707416536E+03 -0.12048562940E+03  0.22130103131E+03  0.12500000000E+03 0.  0.
         25    1    1    2    0    0  0.11463527197E+02 -0.12595944023E+03  0.20421715416E+03  0.27078928911E+03  0.12500000000E+03 0.  0.
</event>
<event>
 5    0  0.5452999E-005  0.3307023E+03  0.7546771E-02  0.1070827E+00
         21   -1    0    0  502  501  0.00000000000E+00  0.00000000000E+00  0.23023115091E+03  0.23023115091E+03  0.00000000000E+00 0. -1.
         21   -1    0    0  501  502 -0.00000000000E+00 -0.00000000000E+00 -0.47501837596E+03  0.47501837596E+03  0.00000000000E+00 0. -1.
         25    1    1    2    0    0  0.31577975844E+02 -0.11660918859E+03  0.53309831464E+02  0.18182906685E+03  0.12500000000E+03 0.  0.
         25    1    1    2    0    0  0.14257481545E+03  0.73817153833E+02 -0.93184678529E+02  0.22379663651E+03  0.12500000000E+03 0.  0.
         25    1    1    2    0    0 -0.17415279130E+03  0.42792034758E+02 -0.20491237799E+03  0.29962382350E+03  0.12500000000E+03 0.  0.
</event>
<event>
 5    0  0.5452999E-005  0.3278046E+03  0.7546771E-02  0.1072112E+00
         21   -1    0    0  502  501  0.00000000000E+00  0.00000000000E+00  0.38748576676E+03  0.38748576676E+03  0.00000000000E+00 0. -1.
         21   -1    0    0  501  502 -0.00000000000E+00 -0.00000000000E+00 -0.27731564760E+03  0.27731564760E+03  0.00000000000E+00 0. -1.
         25    1    1    2    0    0  0.14575574674E+03  0.18376561222E+03  0.10335021519E+03  0.28516802928E+03  0.12500000000E+03 0.  0.
         25    1    1    2    0    0 -0.87566295222E+02 -0.18495914876E+03 -0.13899449280E+02  0.24019978656E+03  0.12500000000E+03 0.  0.
         25    1    1    2    0    0 -0.58189451520E+02  0.11935365443E+01  0.20719353245E+02  0.13943359852E+03  0.12500000000E+03 0.  0.
</event>
<event>
 5    0  0.5452999E-005  0.2848086E+03  0.7546771E-02  0.1093091E+00
         21   -1    0    0  502  501  0.00000000000E+00  0.00000000000E+00  0.93179611976E+02  0.93179611976E+02  0.00000000000E+00 0.  1.
         21   -1    0    0  501  502 -0.00000000000E+00 -0.00000000000E+00 -0.87053294908E+03  0.87053294908E+03  0.00000000000E+00 0.  1.
         25    1    1    2    0    0  0.69787515061E+01  0.67655566762E+01 -0.23418580882E+03  0.26563597042E+03  0.12500000000E+03 0.  0.
         25    1    1    2    0    0  0.11311052592E+02 -0.14041611095E+03 -0.45838577610E+03  0.49556749677E+03  0.12500000000E+03 0.  0.
         25    1    1    2    0    0 -0.18289804098E+02  0.13365055428E+03 -0.84781752184E+02  0.20250909386E+03  0.12500000000E+03 0.  0.
</event>
<event>
 5    0  0.5452999E-005  0.2709270E+03  0.7546771E-02  0.1100750E+00
         21   -1    0    0  502  501  0.00000000000E+00  0.00000000000E+00  0.84437405995E+02  0.84437405995E+02  0.00000000000E+00 0. -1.
         21   -1    0    0  501  502 -0.00000000000E+00 -0.00000000000E+00 -0.86930015947E+03  0.86930015947E+03  0.00000000000E+00 0. -1.
         25    1    1    2    0    0 -0.75290531966E+02  0.13487222785E+03 -0.39315098087E+03  0.44051319595E+03  0.12500000000E+03 0.  0.
         25    1    1    2    0    0 -0.11775301780E+02 -0.12696345185E+03 -0.22533055712E+03  0.28750171445E+03  0.12500000000E+03 0.  0.
         25    1    1    2    0    0  0.87065833745E+02 -0.79087760005E+01 -0.16638121548E+03  0.22572265506E+03  0.12500000000E+03 0.  0.
</event>
<event>
 5    0  0.5452999E-005  0.3749962E+03  0.7546771E-02  0.1052799E+00
         21   -1    0    0  502  501  0.00000000000E+00  0.00000000000E+00  0.22329142141E+04  0.22329142141E+04  0.00000000000E+00 0.  1.
         21   -1    0    0  501  502 -0.00000000000E+00 -0.00000000000E+00 -0.62976953649E+02  0.62976953649E+02  0.00000000000E+00 0.  1.
         25    1    1    2    0    0 -0.17279031436E+03  0.20237210845E+03  0.49375994832E+03  0.57466063862E+03  0.12500000000E+03 0.  0.
         25    1    1    2    0    0  0.16401984878E+03 -0.10293994326E+03  0.93533422853E+03  0.96331420719E+03  0.12500000000E+03 0.  0.
         25    1    1    2    0    0  0.87704655846E+01 -0.99432165195E+02  0.74084308363E+03  0.75791632197E+03  0.12500000000E+03 0.  0.
</event>
<event>
 5    0  0.5452999E-005  0.2174860E+03  0.7546771E-02  0.1135771E+00
         21   -1    0    0  502  501  0.00000000000E+00  0.00000000000E+00  0.80852826313E+02  0.80852826313E+02  0.00000000000E+00 0. -1.
         21   -1    0    0  501  502 -0.00000000000E+00 -0.00000000000E+00 -0.58501530361E+03  0.58501530361E+03  0.00000000000E+00 0. -1.
         25    1    1    2    0    0 -0.76199000482E+02  0.13861961799E+02 -0.13921715314E+03  0.20249656142E+03  0.12500000000E+03 0.  0.
         25    1    1    2    0    0  0.13886999424E+02  0.30965122256E+01 -0.25664098873E+03  0.28581818388E+03  0.12500000000E+03 0.  0.
         25    1    1    2    0    0  0.62312001058E+02 -0.16958474025E+02 -0.10830433542E+03  0.17755338462E+03  0.12500000000E+03 0.  0.
</event>
<event>
 5    0  0.5452999E-005  0.2758371E+03  0.7546771E-02  0.1097985E+00
         21   -1    0    0  502  501  0.00000000000E+00  0.00000000000E+00  0.56409769815E+03  0.56409769815E+03  0.00000000000E+00 0.  1.
         21   -1    0    0  501  502 -0.00000000000E+00 -0.00000000000E+00 -0.13488106044E+03  0.13488106044E+03  0.00000000000E+00 0.  1.
         25    1    1    2    0    0 -0.64188442201E+02 -0.52426480584E+02  0.30738175309E+03  0.34201934757E+03  0.12500000000E+03 0.  0.
         25    1    1    2    0    0  0.30220620885E+02 -0.20589264031E+02 -0.40911219556E+02  0.13651348507E+03  0.12500000000E+03 0.  0.
         25    1    1    2    0    0  0.33967821316E+02  0.73015744615E+02  0.16274610417E+03  0.22044592595E+03  0.12500000000E+03 0.  0.
</event>
<event>
 5    0  0.5452999E-005  0.4203158E+03  0.7546771E-02  0.1036964E+00
         21   -1    0    0  502  501  0.00000000000E+00  0.00000000000E+00  0.26448592804E+03  0.26448592804E+03  0.00000000000E+00 0. -1.
         21   -1    0    0  501  502 -0.00000000000E+00 -0.00000000000E+00 -0.66795756391E+03  0.66795756391E+03  0.00000000000E+00 0. -1.
         25    1    1    2    0    0 -0.17242848963E+02  0.21664896779E+03  0.11114123466E+03  0.27424708773E+03  0.12500000000E+03 0.  0.
         25    1    1    2    0    0 -0.87625153469E+02 -0.19744179651E+02 -0.21238075829E+03  0.26229484677E+03  0.12500000000E+03 0.  0.
         25    1    1    2    0    0  0.10486800243E+03 -0.19690478814E+03 -0.30223211224E+03  0.39590155745E+03  0.12500000000E+03 0.  0.
</event>
<event>
 5    0  0.5452999E-005  0.2506178E+03  0.7546771E-02  0.1112915E+00
         21   -1    0    0  502  501  0.00000000000E+00  0.00000000000E+00  0.61005732214E+03  0.61005732214E+03  0.00000000000E+00 0.  1.
         21   -1    0    0  501  502 -0.00000000000E+00 -0.00000000000E+00 -0.10295632666E+03  0.10295632666E+03  0.00000000000E+00 0.  1.
         25    1    1    2    0    0 -0.29395681354E+01 -0.92321987588E+02  0.76771239068E+02  0.17335170493E+03  0.12500000000E+03 0.  0.
         25    1    1    2    0    0 -0.88903318341E+02  0.23957220210E+02  0.18580832190E+03  0.24213112336E+03  0.12500000000E+03 0.  0.
         25    1    1    2    0    0  0.91842886476E+02  0.68364767378E+02  0.24452143452E+03  0.29753082052E+03  0.12500000000E+03 0.  0.
</event>
<event>
 5    0  0.5452999E-005  0.2716447E+03  0.7546771E-02  0.1100342E+00
         21   -1    0    0  502  501  0.00000000000E+00  0.00000000000E+00  0.27475707042E+03  0.27475707042E+03  0.00000000000E+00 0.  1.
         21   -1    0    0  501  502 -0.00000000000E+00 -0.00000000000E+00 -0.26856750372E+03  0.26856750372E+03  0.00000000000E+00 0.  1.
         25    1    1    2    0    0 -0.29678122881E+01  0.90839290679E+02  0.84849755817E+02  0.17630957349E+03  0.12500000000E+03 0.  0.
         25    1    1    2    0    0 -0.11148628393E+03 -0.79147427661E+02 -0.16004088164E+02  0.18594256546E+03  0.12500000000E+03 0.  0.
         25    1    1    2    0    0  0.11445409622E+03 -0.11691863018E+02 -0.62656100952E+02  0.18107243520E+03  0.12500000000E+03 0.  0.
</event>
<event>
 5    0  0.5452999E-005  0.3220156E+03  0.7546771E-02  0.1074725E+00
         21   -1    0    0  502  501  0.00000000000E+00  0.00000000000E+00  0.17153032940E+03  0.17153032940E+03  0.00000000000E+00 0.  1.
         21   -1    0    0  501  502 -0.00000000000E+00 -0.00000000000E+00 -0.60452301762E+03  0.60452301762E+03  0.00000000000E+00 0.  1.
         25    1    1    2    0    0  0.16643308919E+03  0.70329504063E+02 -0.95866907950E+01  0.21991615894E+03  0.12500000000E+03 0.  0.
         25    1    1    2    0    0 -0.14106585361E+03 -0.11688356843E+03 -0.22690299928E+03  0.31728743232E+03  0.12500000000E+03 0.  0.
         25    1    1    2    0    0 -0.25367235587E+02  0.46554064370E+02 -0.19650299814E+03  0.23884975577E+03  0.12500000000E+03 0.  0.
</event>
<event>
 5    0  0.5452999E-005  0.4804834E+03  0.7546771E-02  0.1019002E+00
         21   -1    0    0  502  501  0.00000000000E+00  0.00000000000E+00  0.97419215289E+03  0.97419215289E+03  0.00000000000E+00 0.  1.
         21   -1    0    0  501  502 -0.00000000000E+00 -0.00000000000E+00 -0.23698027019E+03  0.23698027019E+03  0.00000000000E+00 0.  1.
         25    1    1    2    0    0  0.13061073148E+02 -0.48215906414E+02 -0.13939801380E+02  0.13533175284E+03  0.12500000000E+03 0.  0.
         25    1    1    2    0    0 -0.32968270310E+03 -0.14106102601E+03  0.39762253776E+03  0.54983413892E+03  0.12500000000E+03 0.  0.
         25    1    1    2    0    0  0.31662162996E+03  0.18927693242E+03  0.35352914631E+03  0.52600653132E+03  0.12500000000E+03 0.  0.
</event>
<event>
 5    0  0.5452999E-005  0.2847470E+03  0.7546771E-02  0.1093124E+00
         21   -1    0    0  502  501  0.00000000000E+00  0.00000000000E+00  0.36002567125E+03  0.36002567125E+03  0.00000000000E+00 0. -1.
         21   -1    0    0  501  502 -0.00000000000E+00 -0.00000000000E+00 -0.22520858347E+03  0.22520858347E+03  0.00000000000E+00 0. -1.
         25    1    1    2    0    0 -0.10115608400E+03  0.87073374425E+02  0.69407024575E+02  0.19559310040E+03  0.12500000000E+03 0.  0.
         25    1    1    2    0    0  0.17771293797E+02 -0.66061569848E+02 -0.93106522990E+02  0.17021684557E+03  0.12500000000E+03 0.  0.
         25    1    1    2    0    0  0.83384790199E+02 -0.21011804577E+02  0.15851658620E+03  0.21942430875E+03  0.12500000000E+03 0.  0.
</event>
<event>
 5    0  0.5452999E-005  0.3922146E+03  0.7546771E-02  0.1046509E+00
         21   -1    0    0  502  501  0.00000000000E+00  0.00000000000E+00  0.60888673929E+02  0.60888673929E+02  0.00000000000E+00 0. -1.
         21   -1    0    0  501  502 -0.00000000000E+00 -0.00000000000E+00 -0.25264517460E+04  0.25264517460E+04  0.00000000000E+00 0. -1.
         25    1    1    2    0    0 -0.45308140611E+02 -0.20354033231E+03 -0.11289418369E+04  0.11548230018E+04  0.12500000000E+03 0.  0.
         25    1    1    2    0    0 -0.12277018299E+01  0.30939732078E+03 -0.73388092661E+03  0.80618510517E+03  0.12500000000E+03 0.  0.
         25    1    1    2    0    0  0.46535842441E+02 -0.10585698847E+03 -0.60274030863E+03  0.62633231298E+03  0.12500000000E+03 0.  0.
</event>
<event>
 5    0  0.5452999E-005  0.3191226E+03  0.7546771E-02  0.1076054E+00
         21   -1    0    0  502  501  0.00000000000E+00  0.00000000000E+00  0.14925254285E+03  0.14925254285E+03  0.00000000000E+00 0. -1.
         21   -1    0    0  501  502 -0.00000000000E+00 -0.00000000000E+00 -0.68232845285E+03  0.68232845285E+03  0.00000000000E+00 0. -1.
         25    1    1    2    0    0 -0.13278533325E+03 -0.65560095409E+02 -0.37188274065E+03  0.41934692515E+03  0.12500000000E+03 0.  0.
         25    1    1    2    0    0  0.14646317160E+03 -0.35145423274E+02 -0.15726364938E+03  0.25108468059E+03  0.12500000000E+03 0.  0.
         25    1    1    2    0    0 -0.13677838344E+02  0.10070551868E+03 -0.39295199657E+01  0.16114938995E+03  0.12500000000E+03 0.  0.
</event>
<event>
 5    0  0.5452999E-005  0.2267969E+03  0.7546771E-02  0.1128915E+00
         21   -1    0    0  502  501  0.00000000000E+00  0.00000000000E+00  0.23180640013E+03  0.23180640013E+03  0.00000000000E+00 0. -1.
         21   -1    0    0  501  502 -0.00000000000E+00 -0.00000000000E+00 -0.22189572362E+03  0.22189572362E+03  0.00000000000E+00 0. -1.
         25    1    1    2    0    0 -0.39607434201E+02  0.97079358098E+02 -0.53150487724E+01  0.16323725174E+03  0.12500000000E+03 0.  0.
         25    1    1    2    0    0 -0.91870992774E+01 -0.38285834050E+01 -0.68051945555E+01  0.12558013982E+03  0.12500000000E+03 0.  0.
         25    1    1    2    0    0  0.48794533478E+02 -0.93250774693E+02  0.22030919841E+02  0.16488473218E+03  0.12500000000E+03 0.  0.
</event>
<event>
 5    0  0.5452999E-005  0.3620906E+03  0.7546771E-02  0.1057759E+00
         21   -1    0    0  502  501  0.00000000000E+00  0.00000000000E+00  0.10362950342E+04  0.10362950342E+04  0.00000000000E+00 0. -1.
         21   -1    0    0  501  502 -0.00000000000E+00 -0.00000000000E+00 -0.12651764782E+03  0.12651764782E+03  0.00000000000E+00 0. -1.
         25    1    1    2    0    0 -0.17524145955E+03 -0.13853213944E+03  0.18850451433E+03  0.31789884354E+03  0.12500000000E+03 0.  0.
         25    1    1    2    0    0  0.23453717108E+03  0.14014606345E+03  0.52250970599E+03  0.60273542834E+03  0.12500000000E+03 0.  0.
         25    1    1    2    0    0 -0.59295711529E+02 -0.16139240165E+01  0.19876316601E+03  0.24217841010E+03  0.12500000000E+03 0.  0.
</event>
<event>
 5    0  0.5452999E-005  0.4803459E+03  0.7546771E-02  0.1019040E+00
         21   -1    0    0  502  501  0.00000000000E+00  0.00000000000E+00  0.78468096787E+03  0.78468096787E+03  0.00000000000E+00 0. -1.
         21   -1    0    0  501  502 -0.00000000000E+00 -0.00000000000E+00 -0.29404581482E+03  0.29404581482E+03  0.00000000000E+00 0. -1.
         25    1    1    2    0    0 -0.19980594047E+03 -0.44659000620E+02  0.38505937721E+03  0.45366569648E+03  0.12500000000E+03 0.  0.
         25    1    1    2    0    0  0.23063495981E+03 -0.61444887310E+02 -0.15857809511E+03  0.31263392508E+03  0.12500000000E+03 0.  0.
         25    1    1    2    0    0 -0.30829019337E+02  0.10610388793E+03  0.26415387095E+03  0.31242716112E+03  0.12500000000E+03 0.  0.
</event>
<event>
 5    0  0.5452999E-005  0.2654072E+03  0.7546771E-02  0.1103937E+00
         21   -1    0    0  502  501  0.00000000000E+00  0.00000000000E+00  0.19983706967E+03  0.19983706967E+03  0.00000000000E+00 0. -1.
         21   -1    0    0  501  502 -0.00000000000E+00 -0.00000000000E+00 -0.35249212692E+03  0.35249212692E+03  0.00000000000E+00 0. -1.
         25    1    1    2    0    0 -0.10679216173E+03 -0.79598925416E+02 -0.78796738027E+02  0.19893335733E+03  0.12500000000E+03 0.  0.
         25    1    1    2    0    0 -0.24356497575E+02  0.26220504162E+02  0.35974101176E+02  0.13490696708E+03  0.12500000000E+03 0.  0.
         25    1    1    2    0    0  0.13114865931E+03  0.53378421254E+02 -0.10983242040E+03  0.21848887218E+03  0.12500000000E+03 0.  0.
</event>
<event>
 5    0  0.5452999E-005  0.4340434E+03  0.7546771E-02  0.1032590E+00
         21   -1    0    0  502  501  0.00000000000E+00  0.00000000000E+00  0.84023630433E+03  0.84023630433E+03  0.00000000000E+00 0. -1.
         21   -1    0    0  501  502 -0.00000000000E+00 -0.00000000000E+00 -0.22421507914E+03  0.22421507914E+03  0.00000000000E+00 0. -1.
         25    1    1    2    0    0  0.51415187715E+01  0.63065256359E+02  0.40684229763E+01  0.14016138498E+03  0.12500000000E+03 0.  0.
         25    1    1    2    0    0  0.32093835323E+02  0.28690467593E+02  0.71975842077E+03  0.73179938608E+03  0.12500000000E+03 0.  0.
         25    1    1    2    0    0 -0.37235354094E+02 -0.91755723952E+02 -0.10780561856E+03  0.19249061241E+03  0.12500000000E+03 0.  0.
</event>
<event>
 5    0  0.5452999E-005  0.2332087E+03  0.7546771E-02  0.1124402E+00
         21   -1    0    0  502  501  0.00000000000E+00  0.00000000000E+00  0.40895097657E+02  0.40895097657E+02  0.00000000000E+00 0. -1.
         21   -1    0    0  501  502 -0.00000000000E+00 -0.00000000000E+00 -0.13298971932E+04  0.13298971932E+04  0.00000000000E+00 0. -1.
         25    1    1    2    0    0 -0.46722986759E+02 -0.97974379497E+02 -0.31168191755E+03  0.35292015281E+03  0.12500000000E+03 0.  0.
         25    1    1    2    0    0  0.49433723708E+02  0.22919379330E+02 -0.40856154824E+03  0.43071629838E+03  0.12500000000E+03 0.  0.
         25    1    1    2    0    0 -0.27107369494E+01  0.75055000167E+02 -0.56875862978E+03  0.58715583970E+03  0.12500000000E+03 0.  0.
</event>
<event>
 5    0  0.5452999E-005  0.2494869E+03  0.7546771E-02  0.1113630E+00
         21   -1    0    0  502  501  0.00000000000E+00  0.00000000000E+00  0.85225564741E+03  0.85225564741E+03  0.00000000000E+00 0. -1.
         21   -1    0    0  501  502 -0.00000000000E+00 -0.00000000000E+00 -0.73034079856E+02  0.73034079856E+02  0.00000000000E+00 0. -1.
         25    1    1    2    0    0 -0.52932012808E+02 -0.71603450365E+02  0.16530587782E+03  0.22556570069E+03  0.12500000000E+03 0.  0.
         25    1    1    2    0    0 -0.41499645197E+02  0.84279429550E+02  0.43138338110E+03  0.45884841101E+03  0.12500000000E+03 0.  0.
         25    1    1    2    0    0  0.94431658005E+02 -0.12675979185E+02  0.18253230863E+03  0.24087561557E+03  0.12500000000E+03 0.  0.
</event>
<event>
 5    0  0.5452999E-005  0.2823105E+03  0.7546771E-02  0.1094434E+00
         21   -1    0    0  502  501  0.00000000000E+00  0.00000000000E+00  0.10226620313E+03  0.10226620313E+03  0.00000000000E+00 0.  1.
         21   -1    0    0  501  502 -0.00000000000E+00 -0.00000000000E+00 -0.77933099608E+03  0.77933099608E+03  0.00000000000E+00 0.  1.
         25    1    1    2    0    0 -0.31825842420E+02 -0.20963204088E+02 -0.50473358188E+03  0.52137637926E+03  0.12500000000E+03 0.  0.
         25    1    1    2    0    0  0.95014350037E+02 -0.50118310422E+01 -0.14776339465E+03  0.21566609831E+03  0.12500000000E+03 0.  0.
         25    1    1    2    0    0 -0.63188507616E+02  0.25975035130E+02 -0.24567816424E+02  0.14455472164E+03  0.12500000000E+03 0.  0.
</event>
<event>
 5    0  0.5452999E-005  0.4037895E+03  0.7546771E-02  0.1042475E+00
         21   -1    0    0  502  501  0.00000000000E+00  0.00000000000E+00  0.29298131465E+03  0.29298131465E+03  0.00000000000E+00 0.  1.
         21   -1    0    0  501  502 -0.00000000000E+00 -0.00000000000E+00 -0.55650632225E+03  0.55650632225E+03  0.00000000000E+00 0.  1.
         25    1    1    2    0    0 -0.27812559616E+02 -0.19658725286E+03 -0.85676107956E+02  0.24977085886E+03  0.12500000000E+03 0.  0.
         25    1    1    2    0    0  0.14777776819E+03 -0.60060453735E+02  0.57636018435E+02  0.21069512927E+03  0.12500000000E+03 0.  0.
         25    1    1    2    0    0 -0.11996520858E+03  0.25664770660E+03 -0.23548491808E+03  0.38902164877E+03  0.12500000000E+03 0.  0.
</event>
<event>
 5    0  0.5452999E-005  0.3266124E+03  0.7546771E-02  0.1072646E+00
         21   -1    0    0  502  501  0.00000000000E+00  0.00000000000E+00  0.55348288825E+02  0.55348288825E+02  0.00000000000E+00 0. -1.
         21   -1    0    0  501  502 -0.00000000000E+00 -0.00000000000E+00 -0.19273528814E+04  0.19273528814E+04  0.00000000000E+00 0. -1.
         25    1    1    2    0    0  0.16296332620E+03  0.80091949736E+02 -0.83455102546E+03  0.86317563693E+03  0.12500000000E+03 0.  0.
         25    1    1    2    0    0 -0.15646557799E+03 -0.12013160851E+03 -0.35770226997E+03  0.42718730600E+03  0.12500000000E+03 0.  0.
         25    1    1    2    0    0 -0.64977482033E+01  0.40039658778E+02 -0.67975129712E+03  0.69233822727E+03  0.12500000000E+03 0.  0.
</event>
<event>
 5    0  0.5452999E-005  0.4283282E+03  0.7546771E-02  0.1034389E+00
         21   -1    0    0  502  501  0.00000000000E+00  0.00000000000E+00  0.15930194365E+03  0.15930194365E+03  0.00000000000E+00 0.  1.
         21   -1    0    0  501  502 -0.00000000000E+00 -0.00000000000E+00 -0.11516814231E+04  0.11516814231E+04  0.00000000000E+00 0.  1.
         25    1    1    2    0    0 -0.95088618699E+02 -0.27044276620E+02  0.16403731451E+02  0.16021023909E+03  0.12500000000E+03 0.  0.
         25    1    1    2    0    0  0.27984610926E+03  0.56071685647E+02 -0.44024866296E+03  0.53935309774E+03  0.12500000000E+03 0.  0.
         25    1    1    2    0    0 -0.18475749056E+03 -0.29027409027E+02 -0.56853454796E+03  0.61142002995E+03  0.12500000000E+03 0.  0.
</event>
<event>
 5    0  0.5452999E-005  0.3206591E+03  0.7546771E-02  0.1075346E+00
         21   -1    0    0  502  501  0.00000000000E+00  0.00000000000E+00  0.40621213168E+03  0.40621213168E+03  0.00000000000E+00 0.  1.
         21   -1    0    0  501  502 -0.00000000000E+00 -0.00000000000E+00 -0.25312452033E+03  0.25312452033E+03  0.00000000000E+00 0.  1.
         25    1    1    2    0    0 -0.12180908264E+02  0.10594587696E+03  0.40662345471E+01  0.16436069370E+03  0.12500000000E+03 0.  0.
         25    1    1    2    0    0  0.25309187214E+02  0.82474938753E+02 -0.81026242723E+02  0.17214215779E+03  0.12500000000E+03 0.  0.
         25    1    1    2    0    0 -0.13128278950E+02 -0.18842081571E+03  0.23004761953E+03  0.32283380051E+03  0.12500000000E+03 0.  0.
</event>
<event>
 5    0  0.5452999E-005  0.2713848E+03  0.7546771E-02  0.1100490E+00
         21   -1    0    0  502  501  0.00000000000E+00  0.00000000000E+00  0.95816608002E+02  0.95816608002E+02  0.00000000000E+00 0.  1.
         21   -1    0    0  501  502 -0.00000000000E+00 -0.00000000000E+00 -0.76865258105E+03  0.76865258105E+03  0.00000000000E+00 0.  1.
         25    1    1    2    0    0 -0.10681073866E+02 -0.35216103348E+02 -0.15000068927E+03  0.19869440368E+03  0.12500000000E+03 0.  0.
         25    1    1    2    0    0  0.47927091785E+02  0.10725834261E+03 -0.63567827935E+02  0.18294050108E+03  0.12500000000E+03 0.  0.
         25    1    1    2    0    0 -0.37246017919E+02 -0.72042239260E+02 -0.45926745585E+03  0.48283428430E+03  0.12500000000E+03 0.  0.
</event>
<event>
 5    0  0.5452999E-005  0.3451677E+03  0.7546771E-02  0.1064616E+00
         21   -1    0    0  502  501  0.00000000000E+00  0.00000000000E+00  0.71551027242E+03  0.71551027242E+03  0.00000000000E+00 0.  1.
         21   -1    0    0  501  502 -0.00000000000E+00 -0.00000000000E+00 -0.16651158687E+03  0.16651158687E+03  0.00000000000E+00 0.  1.
         25    1    1    2    0    0 -0.15865715487E+03  0.10752579738E+03  0.34611987259E+03  0.41491909584E+03  0.12500000000E+03 0.  0.
         25    1    1    2    0    0  0.13547599293E+03 -0.37865262239E+02  0.25158170151E+03  0.31417491192E+03  0.12500000000E+03 0.  0.
         25    1    1    2    0    0  0.23181161931E+02 -0.69660535137E+02 -0.48702888539E+02  0.15292785154E+03  0.12500000000E+03 0.  0.
</event>
<event>
 5    0  0.5452999E-005  0.2806033E+03  0.7546771E-02  0.1095360E+00
         21   -1    0    0  502  501  0.00000000000E+00  0.00000000000E+00  0.57305985346E+03  0.57305985346E+03  0.00000000000E+00 0.  1.
         21   -1    0    0  501  502 -0.00000000000E+00 -0.00000000000E+00 -0.13739964240E+03  0.13739964240E+03  0.00000000000E+00 0.  1.
         25    1    1    2    0    0 -0.67677332418E+02  0.73989670066E+02  0.34720067665E+03  0.38239770196E+03  0.12500000000E+03 0.  0.
         25    1    1    2    0    0 -0.24046310367E+02 -0.82882154195E+02  0.55038426115E+01  0.15199660789E+03  0.12500000000E+03 0.  0.
         25    1    1    2    0    0  0.91723642785E+02  0.88924841282E+01  0.82955691800E+02  0.17606518600E+03  0.12500000000E+03 0.  0.
</event>
<event>
 5    0  0.5452999E-005  0.3718277E+03  0.7546771E-02  0.1053996E+00
         21   -1    0    0  502  501  0.00000000000E+00  0.00000000000E+00  0.13785100413E+03  0.13785100413E+03  0.00000000000E+00 0.  1.
         21   -1    0    0  501  502 -0.00000000000E+00 -0.00000000000E+00 -0.10029368965E+04  0.10029368965E+04  0.00000000000E+00 0.  1.
         25    1    1    2    0    0 -0.10047174953E+03  0.40850560533E+02 -0.85532784641E+02  0.18629062778E+03  0.12500000000E+03 0.  0.
         25    1    1    2    0    0 -0.49412285952E+02 -0.14046770736E+03 -0.61739669336E+02  0.20398416013E+03  0.12500000000E+03 0.  0.
         25    1    1    2    0    0  0.14988403548E+03  0.99617146830E+02 -0.71781343841E+03  0.75051311275E+03  0.12500000000E+03 0.  0.
</event>
<event>
 5    0  0.5452999E-005  0.5203953E+03  0.7546771E-02  0.1008588E+00
         21   -1    0    0  502  501  0.00000000000E+00  0.00000000000E+00  0.37599202192E+03  0.37599202192E+03  0.00000000000E+00 0.  1.
         21   -1    0    0  501  502 -0.00000000000E+00 -0.00000000000E+00 -0.72025807784E+03  0.72025807784E+03  0.00000000000E+00 0.  1.
         25    1    1    2    0    0  0.18233030450E+03 -0.18089737255E+03  0.22820676175E+03  0.36561116701E+03  0.12500000000E+03 0.  0.
         25    1    1    2    0    0 -0.19615512048E+02 -0.19428953986E+02 -0.33394860327E+03  0.35764356865E+03  0.12500000000E+03 0.  0.
         25    1    1    2    0    0 -0.16271479245E+03  0.20032632653E+03 -0.23852421441E+03  0.37299536410E+03  0.12500000000E+03 0.  0.
</event>
<event>
 5    0  0.5982834E-005  0.3279418E+03  0.7546771E-02  0.1072051E+00
         21   -1    0    0  502  501  0.00000000000E+00  0.00000000000E+00  0.44638057478E+03  0.44638057478E+03  0.00000000000E+00 0.  1.
         21   -1    0    0  501  502 -0.00000000000E+00 -0.00000000000E+00 -0.24092859884E+03  0.24092859884E+03  0.00000000000E+00 0.  1.
         25    1    1    2    0    0 -0.16440532527E+03  0.40495320669E+02  0.14160783080E+03  0.25366663107E+03  0.12500000000E+03 0.  0.
         25    1    1    2    0    0  0.36382204671E+02 -0.14894489053E+03  0.99440586354E+02  0.22140839064E+03  0.12500000000E+03 0.  0.
         25    1    1    2    0    0  0.12802312060E+03  0.10844956987E+03 -0.35596441221E+02  0.21223415191E+03  0.12500000000E+03 0.  0.
</event>
<event>
 5    0  0.5452999E-005  0.4039936E+03  0.7546771E-02  0.1042406E+00
         21   -1    0    0  502  501  0.00000000000E+00  0.00000000000E+00  0.58995125320E+03  0.58995125320E+03  0.00000000000E+00 0. -1.
         21   -1    0    0  501  502 -0.00000000000E+00 -0.00000000000E+00 -0.27665141648E+03  0.27665141648E+03  0.00000000000E+00 0. -1.
         25    1    1    2    0    0  0.26334095390E+02  0.23736818192E+03  0.15068484762E+03  0.30881719782E+03  0.12500000000E+03 0.  0.
         25    1    1    2    0    0  0.14714220480E+03 -0.11395437253E+02  0.15288356423E+03  0.24653411252E+03  0.12500000000E+03 0.  0.
         25    1    1    2    0    0 -0.17347630019E+03 -0.22597274467E+03  0.97314248644E+01  0.31125135934E+03  0.12500000000E+03 0.  0.
</event>
<event>
 5    0  0.5720076E-005  0.2821696E+03  0.7546771E-02  0.1094510E+00
         21   -1    0    0  502  501  0.00000000000E+00  0.00000000000E+00  0.77658087095E+02  0.77658087095E+02  0.00000000000E+00 0. -1.
         21   -1    0    0  501  502 -0.00000000000E+00 -0.00000000000E+00 -0.10252595496E+04  0.10252595496E+04  0.00000000000E+00 0. -1.
         25    1    1    2    0    0  0.26022877106E+02  0.82018409470E+02 -0.36747533234E+03  0.39757682214E+03  0.12500000000E+03 0.  0.
         25    1    1    2    0    0 -0.15062755158E+03 -0.10377863015E+03 -0.28821370366E+03  0.36352551815E+03  0.12500000000E+03 0.  0.
         25    1    1    2    0    0  0.12460467447E+03  0.21760220677E+02 -0.29191242646E+03  0.34181529636E+03  0.12500000000E+03 0.  0.
</event>
<event>
 5    0  0.5452999E-005  0.3886410E+03  0.7546771E-02  0.1047785E+00
         21   -1    0    0  502  501  0.00000000000E+00  0.00000000000E+00  0.33392245406E+03  0.33392245406E+03  0.00000000000E+00 0. -1.
         21   -1    0    0  501  502 -0.00000000000E+00 -0.00000000000E+00 -0.45232602230E+03  0.45232602230E+03  0.00000000000E+00 0. -1.
         25    1    1    2    0    0 -0.30344467268E+03 -0.52363421132E+02 -0.10567051335E+03  0.34872891282E+03  0.12500000000E+03 0.  0.
         25    1    1    2    0    0  0.15105725152E+03  0.60141835339E+02 -0.92207394335E+02  0.22486115086E+03  0.12500000000E+03 0.  0.
         25    1    1    2    0    0  0.15238742115E+03 -0.77784142069E+01  0.79474339439E+02  0.21265841268E+03  0.12500000000E+03 0.  0.
</event>
<event>
 5    0  0.5452999E-005  0.2812702E+03  0.7546771E-02  0.1094997E+00
         21   -1    0    0  502  501  0.00000000000E+00  0.00000000000E+00  0.48063565118E+03  0.48063565118E+03  0.00000000000E+00 0.  1.
         21   -1    0    0  501  502 -0.00000000000E+00 -0.00000000000E+00 -0.16460056914E+03  0.16460056914E+03  0.00000000000E+00 0.  1.
         25    1    1    2    0    0 -0.18388409404E+03  0.51356943374E+02  0.11476348818E+03  0.25543404998E+03  0.12500000000E+03 0.  0.
         25    1    1    2    0    0  0.26203734663E+02 -0.21326736214E+02  0.92260374410E+02  0.15899195600E+03  0.12500000000E+03 0.  0.
         25    1    1    2    0    0  0.15768035937E+03 -0.30030207160E+02  0.10901121945E+03  0.23081021433E+03  0.12500000000E+03 0.  0.
</event>
<event>
 5    0  0.5452999E-005  0.3095673E+03  0.7546771E-02  0.1080553E+00
         21   -1    0    0  502  501  0.00000000000E+00  0.00000000000E+00  0.37717175834E+03  0.37717175834E+03  0.00000000000E+00 0. -1.
         21   -1    0    0  501  502 -0.00000000000E+00 -0.00000000000E+00 -0.25408027942E+03  0.25408027942E+03  0.00000000000E+00 0. -1.
         25    1    1    2    0    0  0.16577361635E+03  0.70079536749E+02  0.39914102673E+02  0.22273340329E+03  0.12500000000E+03 0.  0.
         25    1    1    2    0    0 -0.21307488259E+03 -0.80148353094E+02  0.88523246013E+02  0.27438299724E+03  0.12500000000E+03 0.  0.
         25    1    1    2    0    0  0.47301266238E+02  0.10068816345E+02 -0.53458697630E+01  0.13413563723E+03  0.12500000000E+03 0.  0.
</event>
<event>
 5    0  0.5452999E-005  0.2118857E+03  0.7546771E-02  0.1140081E+00
         21   -1    0    0  502  501  0.00000000000E+00  0.00000000000E+00  0.68091094959E+02  0.68091094959E+02  0.00000000000E+00 0. -1.
         21   -1    0    0  501  502 -0.00000000000E+00 -0.00000000000E+00 -0.65934519810E+03  0.65934519810E+03  0.00000000000E+00 0. -1.
         25    1    1    2    0    0  0.55829079244E+02  0.17702747810E+02 -0.14888298468E+03  0.20303058020E+03  0.12500000000E+03 0.  0.
         25    1    1    2    0    0  0.17240563918E+02  0.22520063106E+02 -0.24312610768E+03  0.27484485537E+03  0.12500000000E+03 0.  0.
         25    1    1    2    0    0 -0.73069643162E+02 -0.40222810916E+02 -0.19924501077E+03  0.24956085748E+03  0.12500000000E+03 0.  0.
</event>
<event>
 5    0  0.6662054E-005  0.3093465E+03  0.7546771E-02  0.1080660E+00
         21   -1    0    0  502  501  0.00000000000E+00  0.00000000000E+00  0.32266357794E+03  0.32266357794E+03  0.00000000000E+00 0. -1.
         21   -1    0    0  501  502 -0.00000000000E+00 -0.00000000000E+00 -0.29657902799E+03  0.29657902799E+03  0.00000000000E+00 0. -1.
         25    1    1    2    0    0 -0.90459160627E+02  0.84942032940E+02  0.11462022668E+03  0.21014472410E+03  0.12500000000E+03 0.  0.
         25    1    1    2    0    0  0.91539291594E+02 -0.15882935079E+03 -0.13117831011E+03  0.25775754814E+03  0.12500000000E+03 0.  0.
         25    1    1    2    0    0 -0.10801309674E+01  0.73887317849E+02  0.42642633369E+02  0.15134033369E+03  0.12500000000E+03 0.  0.
</event>
<event>
 5    0  0.5838090E-005  0.3450006E+03  0.7546771E-02  0.1064686E+00
         21   -1    0    0  502  501  0.00000000000E+00  0.00000000000E+00  0.81807505420E+02  0.81807505420E+02  0.00000000000E+00 0.  1.
         21   -1    0    0  501  502 -0.00000000000E+00 -0.00000000000E+00 -0.14549445332E+04  0.14549445332E+04  0.00000000000E+00 0.  1.
         25    1    1    2    0    0 -0.75492186148E+02  0.14538076295E+03 -0.49787263892E+03  0.53882910184E+03  0.12500000000E+03 0.  0.
         25    1    1    2    0    0  0.11272851092E+02  0.13136588778E+02 -0.34419103684E+02  0.13080260638E+03  0.12500000000E+03 0.  0.
         25    1    1    2    0    0  0.64219335056E+02 -0.15851735173E+03 -0.84084528514E+03  0.86712033036E+03  0.12500000000E+03 0.  0.
</event>
<event>
 5    0  0.5452999E-005  0.4207677E+03  0.7546771E-02  0.1036817E+00
         21   -1    0    0  502  501  0.00000000000E+00  0.00000000000E+00  0.15623119210E+04  0.15623119210E+04  0.00000000000E+00 0.  1.
         21   -1    0    0  501  502 -0.00000000000E+00 -0.00000000000E+00 -0.11332271174E+03  0.11332271174E+03  0.00000000000E+00 0.  1.
         25    1    1    2    0    0  0.13813326852E+03 -0.26761773402E+03  0.34357775301E+03  0.47367786923E+03  0.12500000000E+03 0.  0.
         25    1    1    2    0    0 -0.15221957545E+03  0.24639016806E+03  0.56903611337E+03  0.65061971411E+03  0.12500000000E+03 0.  0.
         25    1    1    2    0    0  0.14086306927E+02  0.21227565955E+02  0.53637534288E+03  0.55133704940E+03  0.12500000000E+03 0.  0.
</event>
<event>
 5    0  0.5452999E-005  0.3871948E+03  0.7546771E-02  0.1048306E+00
         21   -1    0    0  502  501  0.00000000000E+00  0.00000000000E+00  0.45049847515E+03  0.45049847515E+03  0.00000000000E+00 0. -1.
         21   -1    0    0  501  502 -0.00000000000E+00 -0.00000000000E+00 -0.33278652903E+03  0.33278652903E+03  0.00000000000E+00 0.  1.
         25    1    1    2    0    0 -0.60053669763E+02 -0.25304584595E+03 -0.34607898649E+02  0.29062234954E+03  0.12500000000E+03 0.  0.
         25    1    1    2    0    0  0.10503111954E+03  0.28797815555E+03  0.11275371983E+03  0.34971610698E+03  0.12500000000E+03 0.  0.
         25    1    1    2    0    0 -0.44977449778E+02 -0.34932309599E+02  0.39566124940E+02  0.14294654765E+03  0.12500000000E+03 0.  0.
</event>
<event>
 5    0  0.6224958E-005  0.3156082E+03  0.7546771E-02  0.1077688E+00
         21   -1    0    0  502  501  0.00000000000E+00  0.00000000000E+00  0.33597957745E+03  0.33597957745E+03  0.00000000000E+00 0. -1.
         21   -1    0    0  501  502 -0.00000000000E+00 -0.00000000000E+00 -0.29647201224E+03  0.29647201224E+03  0.00000000000E+00 0. -1.
         25    1    1    2    0    0  0.75265400441E+02 -0.56696764544E+02 -0.90639784149E+02  0.18088663324E+03  0.12500000000E+03 0.  0.
         25    1    1    2    0    0 -0.27235363092E+02  0.90663118139E+02  0.23193544283E+03  0.27996538292E+03  0.12500000000E+03 0.  0.
         25    1    1    2    0    0 -0.48030037349E+02 -0.33966353595E+02 -0.10178809347E+03  0.17159957353E+03  0.12500000000E+03 0.  0.
</event>
<event>
 5    0  0.6545605E-005  0.2735909E+03  0.7546771E-02  0.1099242E+00
         21   -1    0    0  502  501  0.00000000000E+00  0.00000000000E+00  0.48552138454E+03  0.48552138454E+03  0.00000000000E+00 0.  1.
         21   -1    0    0  501  502 -0.00000000000E+00 -0.00000000000E+00 -0.15416825166E+03  0.15416825166E+03  0.00000000000E+00 0.  1.
         25    1    1    2    0    0 -0.89958089406E+02  0.93788782906E+01  0.94059143345E+02  0.18070014846E+03  0.12500000000E+03 0.  0.
         25    1    1    2    0    0  0.94934882825E+02 -0.12501016030E+03  0.20257338788E+03  0.28513356455E+03  0.12500000000E+03 0.  0.
         25    1    1    2    0    0 -0.49767934197E+01  0.11563128201E+03  0.34720601656E+02  0.17385592320E+03  0.12500000000E+03 0.  0.
</event>
<event>
 5    0  0.5452999E-005  0.2563762E+03  0.7546771E-02  0.1109340E+00
         21   -1    0    0  502  501  0.00000000000E+00  0.00000000000E+00  0.25490865681E+02  0.25490865681E+02  0.00000000000E+00 0.  1.
         21   -1    0    0  501  502 -0.00000000000E+00 -0.00000000000E+00 -0.25785222852E+04  0.25785222852E+04  0.00000000000E+00 0.  1.
         25    1    1    2    0    0 -0.11763536711E+02 -0.39236040107E+02 -0.82442174180E+03  0.83484972060E+03  0.12500000000E+03 0.  0.
         25    1    1    2    0    0 -0.10959251559E+03  0.97739160992E+02 -0.88932721401E+03  0.90999525089E+03  0.12500000000E+03 0.  0.
         25    1    1    2    0    0  0.12135605230E+03 -0.58503120885E+02 -0.83928246371E+03  0.85916817939E+03  0.12500000000E+03 0.  0.
</event>
<event>
 5    0  0.5452999E-005  0.3602106E+03  0.7546771E-02  0.1058501E+00
         21   -1    0    0  502  501  0.00000000000E+00  0.00000000000E+00  0.95467469029E+03  0.95467469029E+03  0.00000000000E+00 0.  1.
         21   -1    0    0  501  502 -0.00000000000E+00 -0.00000000000E+00 -0.13591189102E+03  0.13591189102E+03  0.00000000000E+00 0.  1.
         25    1    1    2    0    0  0.20889100145E+03 -0.10902453171E+02  0.50190143130E+03  0.55792863407E+03  0.12500000000E+03 0.  0.
         25    1    1    2    0    0 -0.51547532302E+02 -0.10911453178E+02  0.30069807086E+03  0.32987958063E+03  0.12500000000E+03 0.  0.
         25    1    1    2    0    0 -0.15734346915E+03  0.21813906349E+02  0.16163297108E+02  0.20277836662E+03  0.12500000000E+03 0.  0.
</event>
<event>
 5    0  0.5452999E-005  0.3153535E+03  0.7546771E-02  0.1077808E+00
         21   -1    0    0  502  501  0.00000000000E+00  0.00000000000E+00  0.28960995604E+04  0.28960995604E+04  0.00000000000E+00 0.  1.
         21   -1    0    0  501  502 -0.00000000000E+00 -0.00000000000E+00 -0.34338549203E+02  0.34338549203E+02  0.00000000000E+00 0.  1.
         25    1    1    2    0    0  0.97733297756E+01 -0.90731265767E+02  0.58724733662E+03  0.60729903254E+03  0.12500000000E+03 0.  0.
         25    1    1    2    0    0 -0.15933646033E+03 -0.39514493932E+02  0.65458593736E+03  0.68633610731E+03  0.12500000000E+03 0.  0.
         25    1    1    2    0    0  0.14956313055E+03  0.13024575970E+03  0.16199277372E+04  0.16368029697E+04  0.12500000000E+03 0.  0.
</event>
<event>
 5    0  0.5452999E-005  0.2895645E+03  0.7546771E-02  0.1090577E+00
         21   -1    0    0  502  501  0.00000000000E+00  0.00000000000E+00  0.79642474177E+02  0.79642474177E+02  0.00000000000E+00 0.  1.
         21   -1    0    0  501  502 -0.00000000000E+00 -0.00000000000E+00 -0.10527997113E+04  0.10527997113E+04  0.00000000000E+00 0.  1.
         25    1    1    2    0    0 -0.62056480968E+02  0.17906988630E+03 -0.25432711131E+03  0.34091686752E+03  0.12500000000E+03 0.  0.
         25    1    1    2    0    0  0.78777398118E+02 -0.73561063938E+02 -0.31805709443E+03  0.35833283955E+03  0.12500000000E+03 0.  0.
         25    1    1    2    0    0 -0.16720917150E+02 -0.10550882236E+03 -0.40077303135E+03  0.43319247838E+03  0.12500000000E+03 0.  0.
</event>
<event>
 5    0  0.5826317E-005  0.3309061E+03  0.7546771E-02  0.1070737E+00
         21   -1    0    0  502  501  0.00000000000E+00  0.00000000000E+00  0.46225481977E+03  0.46225481977E+03  0.00000000000E+00 0.  1.
         21   -1    0    0  501  502 -0.00000000000E+00 -0.00000000000E+00 -0.23687981093E+03  0.23687981093E+03  0.00000000000E+00 0.  1.
         25    1    1    2    0    0  0.79552826046E+02 -0.29459447541E+02  0.22424693099E+03  0.27038527556E+03  0.12500000000E+03 0.  0.
         25    1    1    2    0    0 -0.19597240719E+03  0.95381420638E+01 -0.69555645136E+02  0.24281504959E+03  0.12500000000E+03 0.  0.
         25    1    1    2    0    0  0.11641958115E+03  0.19921305477E+02  0.70683722989E+02  0.18593430555E+03  0.12500000000E+03 0.  0.
</event>
<event>
 5    0  0.5452999E-005  0.3041511E+03  0.7546771E-02  0.1083184E+00
         21   -1    0    0  502  501  0.00000000000E+00  0.00000000000E+00  0.60174964621E+03  0.60174964621E+03  0.00000000000E+00 0. -1.
         21   -1    0    0  501  502 -0.00000000000E+00 -0.00000000000E+00 -0.15373153644E+03  0.15373153644E+03  0.00000000000E+00 0. -1.
         25    1    1    2    0    0  0.65450952316E+01 -0.18243779738E+03  0.96165986479E+02  0.24124528004E+03  0.12500000000E+03 0.  0.
         25    1    1    2    0    0 -0.58583842904E+02  0.11357140702E+03  0.30801546148E+03  0.35613067216E+03  0.12500000000E+03 0.  0.
         25    1    1    2    0    0  0.52038747673E+02  0.68866390355E+02  0.43836661816E+02  0.15810523046E+03  0.12500000000E+03 0.  0.
</event>
<event>
 5    0  0.5452999E-005  0.2633787E+03  0.7546771E-02  0.1105130E+00
         21   -1    0    0  502  501  0.00000000000E+00  0.00000000000E+00  0.51291395489E+03  0.51291395489E+03  0.00000000000E+00 0. -1.
         21   -1    0    0  501  502 -0.00000000000E+00 -0.00000000000E+00 -0.13524365222E+03  0.13524365222E+03  0.00000000000E+00 0. -1.
         25    1    1    2    0    0 -0.13521927898E+03 -0.38863942074E+02  0.12565019127E+03  0.22629102936E+03  0.12500000000E+03 0.  0.
         25    1    1    2    0    0  0.14065055539E+03  0.39999465686E+02  0.22091507294E+03  0.29293515569E+03  0.12500000000E+03 0.  0.
         25    1    1    2    0    0 -0.54312764119E+01 -0.11355236120E+01  0.31105038449E+02  0.12893142206E+03  0.12500000000E+03 0.  0.
</event>
<event>
 5    0  0.5452999E-005  0.2484218E+03  0.7546771E-02  0.1114306E+00
         21   -1    0    0  502  501  0.00000000000E+00  0.00000000000E+00  0.63363313162E+03  0.63363313162E+03  0.00000000000E+00 0. -1.
         21   -1    0    0  501  502 -0.00000000000E+00 -0.00000000000E+00 -0.97396110281E+02  0.97396110281E+02  0.00000000000E+00 0. -1.
         25    1    1    2    0    0 -0.67686738174E+02  0.31259824460E+02  0.72965735443E+02  0.16281176155E+03  0.12500000000E+03 0.  0.
         25    1    1    2    0    0 -0.36845546566E+02  0.23660988825E+02  0.31294117582E+03  0.33981556206E+03  0.12500000000E+03 0.  0.
         25    1    1    2    0    0  0.10453228474E+03 -0.54920813285E+02  0.15033011008E+03  0.22840191830E+03  0.12500000000E+03 0.  0.
</event>
<event>
 5    0  0.5452999E-005  0.3511155E+03  0.7546771E-02  0.1062158E+00
         21   -1    0    0  502  501  0.00000000000E+00  0.00000000000E+00  0.30378353421E+03  0.30378353421E+03  0.00000000000E+00 0.  1.
         21   -1    0    0  501  502 -0.00000000000E+00 -0.00000000000E+00 -0.40582226327E+03  0.40582226327E+03  0.00000000000E+00 0.  1.
         25    1    1    2    0    0  0.82542957202E+01  0.14974968285E+03  0.18826965012E+03  0.27122603501E+03  0.12500000000E+03 0.  0.
         25    1    1    2    0    0  0.28911301607E+02 -0.82103374565E+00 -0.89715799090E+02  0.15655817469E+03  0.12500000000E+03 0.  0.
         25    1    1    2    0    0 -0.37165597327E+02 -0.14892864911E+03 -0.20059258009E+03  0.28182158778E+03  0.12500000000E+03 0.  0.
</event>
<event>
 5    0  0.5452999E-005  0.2161728E+03  0.7546771E-02  0.1136769E+00
         21   -1    0    0  502  501  0.00000000000E+00  0.00000000000E+00  0.22804540684E+02  0.22804540684E+02  0.00000000000E+00 0.  1.
         21   -1    0    0  501  502 -0.00000000000E+00 -0.00000000000E+00 -0.20491822679E+04  0.20491822679E+04  0.00000000000E+00 0.  1.
         25    1    1    2    0    0 -0.49651994189E+02  0.38257513104E+02 -0.40504325956E+03  0.42850204195E+03  0.12500000000E+03 0.  0.
         25    1    1    2    0    0  0.14069324029E+02  0.11499644200E+02 -0.64157717654E+03  0.65389331022E+03  0.12500000000E+03 0.  0.
         25    1    1    2    0    0  0.35582670160E+02 -0.49757157304E+02 -0.97975729109E+03  0.98959145639E+03  0.12500000000E+03 0.  0.
</event>
<event>
 5    0  0.5452999E-005  0.2451975E+03  0.7546771E-02  0.1116378E+00
         21   -1    0    0  502  501  0.00000000000E+00  0.00000000000E+00  0.21914038241E+03  0.21914038241E+03  0.00000000000E+00 0.  1.
         21   -1    0    0  501  502 -0.00000000000E+00 -0.00000000000E+00 -0.27435297349E+03  0.27435297349E+03  0.00000000000E+00 0.  1.
         25    1    1    2    0    0 -0.19592390299E+02  0.23693260876E+02 -0.16840254072E+02  0.12982228825E+03  0.12500000000E+03 0.  0.
         25    1    1    2    0    0  0.34766361281E+02  0.10562470900E+03  0.31282134763E+02  0.17020238242E+03  0.12500000000E+03 0.  0.
         25    1    1    2    0    0 -0.15173970982E+02 -0.12931796987E+03 -0.69654471768E+02  0.19346868523E+03  0.12500000000E+03 0.  0.
</event>
<event>
 5    0  0.5452999E-005  0.2552825E+03  0.7546771E-02  0.1110011E+00
         21   -1    0    0  502  501  0.00000000000E+00  0.00000000000E+00  0.25911898736E+03  0.25911898736E+03  0.00000000000E+00 0.  1.
         21   -1    0    0  501  502 -0.00000000000E+00 -0.00000000000E+00 -0.25150278771E+03  0.25150278771E+03  0.00000000000E+00 0.  1.
         25    1    1    2    0    0  0.50967566834E+02  0.10782643189E+03  0.46388864179E+02  0.17888867768E+03  0.12500000000E+03 0.  0.
         25    1    1    2    0    0 -0.90669460617E+02 -0.89101356521E+01 -0.60379089651E+02  0.16604510253E+03  0.12500000000E+03 0.  0.
         25    1    1    2    0    0  0.39701893782E+02 -0.98916296242E+02  0.21606425121E+02  0.16568799485E+03  0.12500000000E+03 0.  0.
</event>
<event>
 5    0  0.5452999E-005  0.4655730E+03  0.7546771E-02  0.1023177E+00
         21   -1    0    0  502  501  0.00000000000E+00  0.00000000000E+00  0.79518906876E+03  0.79518906876E+03  0.00000000000E+00 0. -1.
         21   -1    0    0  501  502 -0.00000000000E+00 -0.00000000000E+00 -0.27258697326E+03  0.27258697326E+03  0.00000000000E+00 0. -1.
         25    1    1    2    0    0  0.11719223590E+03 -0.69972738612E+02  0.43216132383E+03  0.47012616829E+03  0.12500000000E+03 0.  0.
         25    1    1    2    0    0  0.19600519600E+03 -0.35939565685E+02  0.11700380010E+02  0.23552407124E+03  0.12500000000E+03 0.  0.
         25    1    1    2    0    0 -0.31319743190E+03  0.10591230430E+03  0.78740391661E+02  0.36212580249E+03  0.12500000000E+03 0.  0.
</event>
<event>
 5    0  0.5452999E-005  0.2779052E+03  0.7546771E-02  0.1096839E+00
         21   -1    0    0  502  501  0.00000000000E+00  0.00000000000E+00  0.97738679647E+03  0.97738679647E+03  0.00000000000E+00 0.  1.
         21   -1    0    0  501  502 -0.00000000000E+00 -0.00000000000E+00 -0.79018174359E+02  0.79018174359E+02  0.00000000000E+00 0.  1.
         25    1    1    2    0    0 -0.10362912598E+03  0.78117602772E+02  0.16480637428E+03  0.24418742109E+03  0.12500000000E+03 0.  0.
         25    1    1    2    0    0  0.14482373856E+03 -0.79448153901E+02  0.53786290916E+03  0.57637438654E+03  0.12500000000E+03 0.  0.
         25    1    1    2    0    0 -0.41194612578E+02  0.13305511298E+01  0.19569933868E+03  0.23584316321E+03  0.12500000000E+03 0.  0.
</event>
<event>
 5    0  0.5452999E-005  0.3764335E+03  0.7546771E-02  0.1052260E+00
         21   -1    0    0  502  501  0.00000000000E+00  0.00000000000E+00  0.99498042650E+02  0.99498042650E+02  0.00000000000E+00 0.  1.
         21   -1    0    0  501  502 -0.00000000000E+00 -0.00000000000E+00 -0.14241707507E+04  0.14241707507E+04  0.00000000000E+00 0.  1.
         25    1    1    2    0    0  0.22564681381E+02 -0.31342175998E+02 -0.39959350875E+03  0.42046577634E+03  0.12500000000E+03 0.  0.
         25    1    1    2    0    0 -0.26072222289E+03  0.12497547621E+03 -0.52162799975E+03  0.60935680622E+03  0.12500000000E+03 0.  0.
         25    1    1    2    0    0  0.23815754151E+03 -0.93633300212E+02 -0.40345119953E+03  0.49384621076E+03  0.12500000000E+03 0.  0.
</event>
<event>
 5    0  0.5452999E-005  0.2668018E+03  0.7546771E-02  0.1103124E+00
         21   -1    0    0  502  501  0.00000000000E+00  0.00000000000E+00  0.16678197903E+03  0.16678197903E+03  0.00000000000E+00 0.  1.
         21   -1    0    0  501  502 -0.00000000000E+00 -0.00000000000E+00 -0.42680399860E+03  0.42680399860E+03  0.00000000000E+00 0.  1.
         25    1    1    2    0    0 -0.61669270373E+02 -0.42297417638E+02 -0.76686890781E+02  0.16461485250E+03  0.12500000000E+03 0.  0.
         25    1    1    2    0    0  0.13109710477E+03  0.42182148698E+02  0.12597581172E+02  0.18641213372E+03  0.12500000000E+03 0.  0.
         25    1    1    2    0    0 -0.69427834398E+02  0.11526894014E+00 -0.19593270996E+03  0.24255899140E+03  0.12500000000E+03 0.  0.
</event>
<event>
 5    0  0.5452999E-005  0.5082534E+03  0.7546771E-02  0.1011647E+00
         21   -1    0    0  502  501  0.00000000000E+00  0.00000000000E+00  0.38416333478E+03  0.38416333478E+03  0.00000000000E+00 0. -1.
         21   -1    0    0  501  502 -0.00000000000E+00 -0.00000000000E+00 -0.67242615135E+03  0.67242615135E+03  0.00000000000E+00 0. -1.
         25    1    1    2    0    0 -0.18466826948E+03 -0.24893706320E+03  0.27544599320E+00  0.33421117135E+03  0.12500000000E+03 0.  0.
         25    1    1    2    0    0  0.25984322592E+02  0.14373981960E+03 -0.41821933014E+03  0.46029200391E+03  0.12500000000E+03 0.  0.
         25    1    1    2    0    0  0.15868394689E+03  0.10519724360E+03  0.12968106757E+03  0.26208631088E+03  0.12500000000E+03 0.  0.
</event>
<event>
 5    0  0.5452999E-005  0.3065750E+03  0.7546771E-02  0.1081999E+00
         21   -1    0    0  502  501  0.00000000000E+00  0.00000000000E+00  0.34045769926E+03  0.34045769926E+03  0.00000000000E+00 0. -1.
         21   -1    0    0  501  502 -0.00000000000E+00 -0.00000000000E+00 -0.27606435435E+03  0.27606435435E+03  0.00000000000E+00 0. -1.
         25    1    1    2    0    0 -0.13994874071E+03 -0.34324799274E+02  0.16892720967E+03  0.25480432500E+03  0.12500000000E+03 0.  0.
         25    1    1    2    0    0  0.51354069629E+02  0.94832201436E+02  0.27846316758E+01  0.16511553855E+03  0.12500000000E+03 0.  0.
         25    1    1    2    0    0  0.88594671077E+02 -0.60507402162E+02 -0.10731849643E+03  0.19660219006E+03  0.12500000000E+03 0.  0.
</event>
<event>
 5    0  0.5452999E-005  0.2535110E+03  0.7546771E-02  0.1111106E+00
         21   -1    0    0  502  501  0.00000000000E+00  0.00000000000E+00  0.53601607458E+02  0.53601607458E+02  0.00000000000E+00 0.  1.
         21   -1    0    0  501  502 -0.00000000000E+00 -0.00000000000E+00 -0.11989903028E+04  0.11989903028E+04  0.00000000000E+00 0. -1.
         25    1    1    2    0    0 -0.10591863024E+03  0.46833742500E+01 -0.71704398761E+03  0.73553910188E+03  0.12500000000E+03 0.  0.
         25    1    1    2    0    0  0.72872690166E+02 -0.25907033988E+01 -0.30845638889E+03  0.34071613487E+03  0.12500000000E+03 0.  0.
         25    1    1    2    0    0  0.33045940076E+02 -0.20926708511E+01 -0.11988831883E+03  0.17633667349E+03  0.12500000000E+03 0.  0.
</event>
<event>
 5    0  0.5452999E-005  0.4241963E+03  0.7546771E-02  0.1035709E+00
         21   -1    0    0  502  501  0.00000000000E+00  0.00000000000E+00  0.43021558264E+03  0.43021558264E+03  0.00000000000E+00 0. -1.
         21   -1    0    0  501  502 -0.00000000000E+00 -0.00000000000E+00 -0.41826130911E+03  0.41826130911E+03  0.00000000000E+00 0. -1.
         25    1    1    2    0    0 -0.42250798285E+02 -0.50259049445E+01 -0.14834134643E+02  0.13287377931E+03  0.12500000000E+03 0.  0.
         25    1    1    2    0    0  0.18155345021E+03  0.24319865240E+03 -0.15430208930E+03  0.36268633083E+03  0.12500000000E+03 0.  0.
         25    1    1    2    0    0 -0.13930265192E+03 -0.23817274745E+03  0.18109049747E+03  0.35291678160E+03  0.12500000000E+03 0.  0.
</event>
<event>
 5    0  0.5452999E-005  0.2741206E+03  0.7546771E-02  0.1098944E+00
         21   -1    0    0  502  501  0.00000000000E+00  0.00000000000E+00  0.41568581079E+03  0.41568581079E+03  0.00000000000E+00 0. -1.
         21   -1    0    0  501  502 -0.00000000000E+00 -0.00000000000E+00 -0.18076655830E+03  0.18076655830E+03  0.00000000000E+00 0. -1.
         25    1    1    2    0    0 -0.28953212624E+02  0.59378641930E+02  0.49789391511E+02  0.14989361276E+03  0.12500000000E+03 0.  0.
         25    1    1    2    0    0 -0.15129078832E+02  0.10498863444E+03 -0.26885192429E+01  0.16396258879E+03  0.12500000000E+03 0.  0.
         25    1    1    2    0    0  0.44082291456E+02 -0.16436727637E+03  0.18781838023E+03  0.28259616754E+03  0.12500000000E+03 0.  0.
</event>
<event>
 5    0  0.5452999E-005  0.3546732E+03  0.7546771E-02  0.1060713E+00
         21   -1    0    0  502  501  0.00000000000E+00  0.00000000000E+00  0.73501555714E+03  0.73501555714E+03  0.00000000000E+00 0. -1.
         21   -1    0    0  501  502 -0.00000000000E+00 -0.00000000000E+00 -0.17114341308E+03  0.17114341308E+03  0.00000000000E+00 0. -1.
         25    1    1    2    0    0 -0.15280143359E+03  0.65182820252E+02  0.45461951895E+03  0.49990097537E+03  0.12500000000E+03 0.  0.
         25    1    1    2    0    0  0.15404681105E+03  0.12493174977E+02 -0.33090105608E+02  0.20151043274E+03  0.12500000000E+03 0.  0.
         25    1    1    2    0    0 -0.12453774522E+01 -0.77675995229E+02  0.14234273073E+03  0.20474756211E+03  0.12500000000E+03 0.  0.
</event>
<event>
 5    0  0.5625701E-005  0.3186142E+03  0.7546771E-02  0.1076289E+00
         21   -1    0    0  502  501  0.00000000000E+00  0.00000000000E+00  0.34673837334E+03  0.34673837334E+03  0.00000000000E+00 0.  1.
         21   -1    0    0  501  502 -0.00000000000E+00 -0.00000000000E+00 -0.29277119884E+03  0.29277119884E+03  0.00000000000E+00 0.  1.
         25    1    1    2    0    0  0.10863345366E+03 -0.51707667513E+02  0.12562438823E+03  0.21419943289E+03  0.12500000000E+03 0.  0.
         25    1    1    2    0    0 -0.19209006550E+03 -0.53999463569E+02 -0.37973227573E+02  0.23849843048E+03  0.12500000000E+03 0.  0.
         25    1    1    2    0    0  0.83456611845E+02  0.10570713108E+03 -0.33683986159E+02  0.18681170880E+03  0.12500000000E+03 0.  0.
</event>
<event>
 5    0  0.5452999E-005  0.3968132E+03  0.7546771E-02  0.1044889E+00
         21   -1    0    0  502  501  0.00000000000E+00  0.00000000000E+00  0.10011206504E+03  0.10011206504E+03  0.00000000000E+00 0.  1.
         21   -1    0    0  501  502 -0.00000000000E+00 -0.00000000000E+00 -0.15728449326E+04  0.15728449326E+04  0.00000000000E+00 0.  1.
         25    1    1    2    0    0 -0.10891457112E+03 -0.41685493953E+02 -0.56856031519E+03  0.59370522671E+03  0.12500000000E+03 0.  0.
         25    1    1    2    0    0  0.46926663388E+02 -0.97209830012E+02 -0.11974540328E+02  0.16559061690E+03  0.12500000000E+03 0.  0.
         25    1    1    2    0    0  0.61987907732E+02  0.13889532396E+03 -0.89219801202E+03  0.91366115402E+03  0.12500000000E+03 0.  0.
</event>
<event>
 5    0  0.5452999E-005  0.2600212E+03  0.7546771E-02  0.1107131E+00
         21   -1    0    0  502  501  0.00000000000E+00  0.00000000000E+00  0.34641950428E+03  0.34641950428E+03  0.00000000000E+00 0.  1.
         21   -1    0    0  501  502 -0.00000000000E+00 -0.00000000000E+00 -0.19517091983E+03  0.19517091983E+03  0.00000000000E+00 0.  1.
         25    1    1    2    0    0  0.11246265220E+03 -0.39684377838E+02  0.13756657831E+03  0.22084442817E+03  0.12500000000E+03 0.  0.
         25    1    1    2    0    0 -0.86637285506E+02  0.22074073970E+02 -0.68141729112E+02  0.16811180574E+03  0.12500000000E+03 0.  0.
         25    1    1    2    0    0 -0.25825366697E+02  0.17610303868E+02  0.81823735256E+02  0.15263419020E+03  0.12500000000E+03 0.  0.
</event>
<event>
 5    0  0.5452999E-005  0.5145386E+03  0.7546771E-02  0.1010052E+00
         21   -1    0    0  502  501  0.00000000000E+00  0.00000000000E+00  0.95172115324E+03  0.95172115324E+03  0.00000000000E+00 0. -1.
         21   -1    0    0  501  502 -0.00000000000E+00 -0.00000000000E+00 -0.27818017922E+03  0.27818017922E+03  0.00000000000E+00 0. -1.
         25    1    1    2    0    0 -0.10333653650E+03  0.14186312637E+02  0.15135474957E+03  0.22229024149E+03  0.12500000000E+03 0.  0.
         25    1    1    2    0    0  0.18192112434E+02 -0.23967036676E+03 -0.13049400212E+03  0.30071003017E+03  0.12500000000E+03 0.  0.
         25    1    1    2    0    0  0.85144424070E+02  0.22548405412E+03  0.65268022657E+03  0.70690106081E+03  0.12500000000E+03 0.  0.
</event>
<event>
 5    0  0.5452999E-005  0.3370547E+03  0.7546771E-02  0.1068057E+00
         21   -1    0    0  502  501  0.00000000000E+00  0.00000000000E+00  0.82990499162E+03  0.82990499162E+03  0.00000000000E+00 0. -1.
         21   -1    0    0  501  502 -0.00000000000E+00 -0.00000000000E+00 -0.13689018235E+03  0.13689018235E+03  0.00000000000E+00 0. -1.
         25    1    1    2    0    0  0.18348212491E+03  0.27800219476E+02  0.13617641896E+03  0.26193044773E+03  0.12500000000E+03 0.  0.
         25    1    1    2    0    0 -0.22161230585E+03 -0.10463332345E+03  0.41047856620E+03  0.49414350121E+03  0.12500000000E+03 0.  0.
         25    1    1    2    0    0  0.38130180934E+02  0.76833103977E+02  0.14635982411E+03  0.21072122503E+03  0.12500000000E+03 0.  0.
</event>
<event>
 5    0  0.5452999E-005  0.2697827E+03  0.7546771E-02  0.1101404E+00
         21   -1    0    0  502  501  0.00000000000E+00  0.00000000000E+00  0.15183685185E+04  0.15183685185E+04  0.00000000000E+00 0.  1.
         21   -1    0    0  501  502 -0.00000000000E+00 -0.00000000000E+00 -0.47934796759E+02  0.47934796759E+02  0.00000000000E+00 0.  1.
         25    1    1    2    0    0  0.13135820989E+03 -0.85571119484E+02  0.49976267095E+03  0.53848409732E+03  0.12500000000E+03 0.  0.
         25    1    1    2    0    0  0.83351694886E+01 -0.12702401136E+02  0.33887599799E+03  0.36151454751E+03  0.12500000000E+03 0.  0.
         25    1    1    2    0    0 -0.13969337937E+03  0.98273520620E+02  0.63179505285E+03  0.66630467048E+03  0.12500000000E+03 0.  0.
</event>
<event>
 5    0  0.5452999E-005  0.3249926E+03  0.7546771E-02  0.1073374E+00
         21   -1    0    0  502  501  0.00000000000E+00  0.00000000000E+00  0.11995883043E+04  0.11995883043E+04  0.00000000000E+00 0.  1.
         21   -1    0    0  501  502 -0.00000000000E+00 -0.00000000000E+00 -0.88047018945E+02  0.88047018945E+02  0.00000000000E+00 0.  1.
         25    1    1    2    0    0  0.32954506269E+02 -0.37283420191E+01  0.58696614065E+03  0.60104421658E+03  0.12500000000E+03 0.  0.
         25    1    1    2    0    0  0.12031734393E+03 -0.11869059103E+03  0.25835042178E+03  0.33306705043E+03  0.12500000000E+03 0.  0.
         25    1    1    2    0    0 -0.15327185020E+03  0.12241893304E+03  0.26622472288E+03  0.35352405619E+03  0.12500000000E+03 0.  0.
</event>
<event>
 5    0  0.5452999E-005  0.3817725E+03  0.7546771E-02  0.1050281E+00
         21   -1    0    0  502  501  0.00000000000E+00  0.00000000000E+00  0.10285838828E+03  0.10285838828E+03  0.00000000000E+00 0. -1.
         21   -1    0    0  501  502 -0.00000000000E+00 -0.00000000000E+00 -0.14169992000E+04  0.14169992000E+04  0.00000000000E+00 0. -1.
         25    1    1    2    0    0  0.15630466784E+02 -0.83838562585E+02 -0.23441468380E+03  0.27901336895E+03  0.12500000000E+03 0.  0.
         25    1    1    2    0    0  0.25535502861E+03 -0.36304454174E+02 -0.44632599233E+03  0.53043010422E+03  0.12500000000E+03 0.  0.
         25    1    1    2    0    0 -0.27098549540E+03  0.12014301676E+03 -0.63340013563E+03  0.71041411516E+03  0.12500000000E+03 0.  0.
</event>
<event>
 5    0  0.5452999E-005  0.2527679E+03  0.7546771E-02  0.1111568E+00
         21   -1    0    0  502  501  0.00000000000E+00  0.00000000000E+00  0.67118441138E+02  0.67118441138E+02  0.00000000000E+00 0.  1.
         21   -1    0    0  501  502 -0.00000000000E+00 -0.00000000000E+00 -0.95192312730E+03  0.95192312730E+03  0.00000000000E+00 0.  1.
         25    1    1    2    0    0 -0.12316810700E+03  0.57843809530E+02 -0.30176578825E+03  0.35384160275E+03  0.12500000000E+03 0.  0.
         25    1    1    2    0    0  0.13502977471E+03 -0.62969872055E+02 -0.34616866183E+03  0.39705917353E+03  0.12500000000E+03 0.  0.
         25    1    1    2    0    0 -0.11861667717E+02  0.51260625252E+01 -0.23687023608E+03  0.26814079216E+03  0.12500000000E+03 0.  0.
</event>
<event>
 5    0  0.5452999E-005  0.4428776E+03  0.7546771E-02  0.1029868E+00
         21   -1    0    0  502  501  0.00000000000E+00  0.00000000000E+00  0.60627899754E+03  0.60627899754E+03  0.00000000000E+00 0.  1.
         21   -1    0    0  501  502 -0.00000000000E+00 -0.00000000000E+00 -0.32351533483E+03  0.32351533483E+03  0.00000000000E+00 0.  1.
         25    1    1    2    0    0 -0.16157485784E+03 -0.25001728488E+03  0.31450523618E+03  0.45072566047E+03  0.12500000000E+03 0.  0.
         25    1    1    2    0    0  0.75611303814E+01  0.20824893571E+03 -0.10337705352E+03  0.26407689242E+03  0.12500000000E+03 0.  0.
         25    1    1    2    0    0  0.15401372746E+03  0.41768349172E+02  0.71635480046E+02  0.21499177947E+03  0.12500000000E+03 0.  0.
</event>
<event>
 5    0  0.5452999E-005  0.2079170E+03  0.7546771E-02  0.1143226E+00
         21   -1    0    0  502  501  0.00000000000E+00  0.00000000000E+00  0.14322283837E+03  0.14322283837E+03  0.00000000000E+00 0.  1.
         21   -1    0    0  501  502 -0.00000000000E+00 -0.00000000000E+00 -0.30183355776E+03  0.30183355776E+03  0.00000000000E+00 0.  1.
         25    1    1    2    0    0  0.35033446869E+01 -0.24426263233E+02 -0.86788259833E+02  0.15416263427E+03  0.12500000000E+03 0.  0.
         25    1    1    2    0    0 -0.71690941610E+01  0.52664167803E+02 -0.87744545361E+02  0.16170657291E+03  0.12500000000E+03 0.  0.
         25    1    1    2    0    0  0.36657494740E+01 -0.28237904571E+02  0.15922085796E+02  0.12918718895E+03  0.12500000000E+03 0.  0.
</event>
<event>
 5    0  0.5452999E-005  0.3820547E+03  0.7546771E-02  0.1050177E+00
         21   -1    0    0  502  501  0.00000000000E+00  0.00000000000E+00  0.18489656774E+03  0.18489656774E+03  0.00000000000E+00 0. -1.
         21   -1    0    0  501  502 -0.00000000000E+00 -0.00000000000E+00 -0.78944562551E+03  0.78944562551E+03  0.00000000000E+00 0. -1.
         25    1    1    2    0    0 -0.13403942475E+03 -0.10706360799E+03 -0.15661521037E+03  0.26378496481E+03  0.12500000000E+03 0.  0.
         25    1    1    2    0    0 -0.15458573558E+03 -0.39463398826E+02 -0.13699459833E+03  0.24463570766E+03  0.12500000000E+03 0.  0.
         25    1    1    2    0    0  0.28862516033E+03  0.14652700682E+03 -0.31093924908E+03  0.46592152078E+03  0.12500000000E+03 0.  0.
</event>
<event>
 5    0  0.5452999E-005  0.5110046E+03  0.7546771E-02  0.1010946E+00
         21   -1    0    0  502  501  0.00000000000E+00  0.00000000000E+00  0.52875862051E+03  0.52875862051E+03  0.00000000000E+00 0. -1.
         21   -1    0    0  501  502 -0.00000000000E+00 -0.00000000000E+00 -0.49384670003E+03  0.49384670003E+03  0.00000000000E+00 0. -1.
         25    1    1    2    0    0 -0.32470005017E+03 -0.20547993131E+03 -0.52843781363E+02  0.40751636774E+03  0.12500000000E+03 0.  0.
         25    1    1    2    0    0 -0.28594879318E+02 -0.65089350717E+02  0.46012654458E+02  0.15098494981E+03  0.12500000000E+03 0.  0.
         25    1    1    2    0    0  0.35329492949E+03  0.27056928203E+03  0.41743047385E+02  0.46410400298E+03  0.12500000000E+03 0.  0.
</event>
<event>
 5    0  0.6285018E-005  0.2579067E+03  0.7546771E-02  0.1108407E+00
         21   -1    0    0  502  501  0.00000000000E+00  0.00000000000E+00  0.55170113964E+03  0.55170113964E+03  0.00000000000E+00 0. -1.
         21   -1    0    0  501  502 -0.00000000000E+00 -0.00000000000E+00 -0.12056504916E+03  0.12056504916E+03  0.00000000000E+00 0. -1.
         25    1    1    2    0    0 -0.11405397090E+02 -0.57513875579E+02  0.10209344512E+03  0.17171488143E+03  0.12500000000E+03 0.  0.
         25    1    1    2    0    0  0.58098330295E+02 -0.35645804991E+02  0.30427564656E+03  0.33593854868E+03  0.12500000000E+03 0.  0.
         25    1    1    2    0    0 -0.46692933206E+02  0.93159680570E+02  0.24766998795E+02  0.16461275869E+03  0.12500000000E+03 0.  0.
</event>
<event>
 5    0  0.5452999E-005  0.2229326E+03  0.7546771E-02  0.1131715E+00
         21   -1    0    0  502  501  0.00000000000E+00  0.00000000000E+00  0.59700971260E+02  0.59700971260E+02  0.00000000000E+00 0.  1.
         21   -1    0    0  501  502 -0.00000000000E+00 -0.00000000000E+00 -0.83246442852E+03  0.83246442852E+03  0.00000000000E+00 0.  1.
         25    1    1    2    0    0 -0.10903089373E+02 -0.87044785220E+01 -0.27831052662E+03  0.30541184413E+03  0.12500000000E+03 0.  0.
         25    1    1    2    0    0  0.60708774753E+02 -0.53062808927E+02 -0.14727217699E+03  0.20932107190E+03  0.12500000000E+03 0.  0.
         25    1    1    2    0    0 -0.49805685380E+02  0.61767287449E+02 -0.34718075364E+03  0.37743248376E+03  0.12500000000E+03 0.  0.
</event>
<event>
 5    0  0.5452999E-005  0.3069811E+03  0.7546771E-02  0.1081802E+00
         21   -1    0    0  502  501  0.00000000000E+00  0.00000000000E+00  0.33783575850E+03  0.33783575850E+03  0.00000000000E+00 0.  1.
         21   -1    0    0  501  502 -0.00000000000E+00 -0.00000000000E+00 -0.27894440756E+03  0.27894440756E+03  0.00000000000E+00 0.  1.
         25    1    1    2    0    0 -0.13898898544E+03  0.11232782557E+03 -0.75923800519E+02  0.23092185249E+03  0.12500000000E+03 0.  0.
         25    1    1    2    0    0  0.31319740762E+01  0.25905667958E+01  0.11078212114E+03  0.16707542806E+03  0.12500000000E+03 0.  0.
         25    1    1    2    0    0  0.13585701137E+03 -0.11491839237E+03  0.24033030318E+02  0.21878288550E+03  0.12500000000E+03 0.  0.
</event>
<event>
 5    0  0.5452999E-005  0.2417561E+03  0.7546771E-02  0.1118628E+00
         21   -1    0    0  502  501  0.00000000000E+00  0.00000000000E+00  0.12442509807E+03  0.12442509807E+03  0.00000000000E+00 0.  1.
         21   -1    0    0  501  502 -0.00000000000E+00 -0.00000000000E+00 -0.46972865314E+03  0.46972865314E+03  0.00000000000E+00 0.  1.
         25    1    1    2    0    0 -0.12611541102E+03  0.12370829727E+02 -0.11976155671E+03  0.21453662809E+03  0.12500000000E+03 0.  0.
         25    1    1    2    0    0  0.54102232264E+02 -0.65668531551E+02 -0.10271058296E+03  0.18279461541E+03  0.12500000000E+03 0.  0.
         25    1    1    2    0    0  0.72013178757E+02  0.53297701823E+02 -0.12283141540E+03  0.19682250771E+03  0.12500000000E+03 0.  0.
</event>
<event>
 5    0  0.5452999E-005  0.2492095E+03  0.7546771E-02  0.1113805E+00
         21   -1    0    0  502  501  0.00000000000E+00  0.00000000000E+00  0.33462934245E+03  0.33462934245E+03  0.00000000000E+00 0.  1.
         21   -1    0    0  501  502 -0.00000000000E+00 -0.00000000000E+00 -0.18559459091E+03  0.18559459091E+03  0.00000000000E+00 0.  1.
         25    1    1    2    0    0  0.11519418460E+01  0.77019942823E+02  0.39724165605E+02  0.15210656756E+03  0.12500000000E+03 0.  0.
         25    1    1    2    0    0  0.90117276513E+02 -0.64036984912E+02  0.12985665980E+03  0.21144647327E+03  0.12500000000E+03 0.  0.
         25    1    1    2    0    0 -0.91269218359E+02 -0.12982957911E+02 -0.20546073860E+02  0.15667089253E+03  0.12500000000E+03 0.  0.
</event>
<event>
 5    0  0.5452999E-005  0.2987756E+03  0.7546771E-02  0.1085854E+00
         21   -1    0    0  502  501  0.00000000000E+00  0.00000000000E+00  0.32787606378E+03  0.32787606378E+03  0.00000000000E+00 0.  1.
         21   -1    0    0  501  502 -0.00000000000E+00 -0.00000000000E+00 -0.27225785271E+03  0.27225785271E+03  0.00000000000E+00 0.  1.
         25    1    1    2    0    0 -0.90871545337E+02  0.11391701412E+03 -0.73745925627E+02  0.20566522653E+03  0.12500000000E+03 0.  0.
         25    1    1    2    0    0 -0.65760307027E+02 -0.77453806853E+02  0.97529598468E+02  0.18830967249E+03  0.12500000000E+03 0.  0.
         25    1    1    2    0    0  0.15663185236E+03 -0.36463207270E+02  0.31834538225E+02  0.20615901747E+03  0.12500000000E+03 0.  0.
</event>
<event>
 5    0  0.5452999E-005  0.2682393E+03  0.7546771E-02  0.1102292E+00
         21   -1    0    0  502  501  0.00000000000E+00  0.00000000000E+00  0.51838008446E+03  0.51838008446E+03  0.00000000000E+00 0. -1.
         21   -1    0    0  501  502 -0.00000000000E+00 -0.00000000000E+00 -0.13880226698E+03  0.13880226698E+03  0.00000000000E+00 0. -1.
         25    1    1    2    0    0 -0.22999021795E+02 -0.27397261423E+00 -0.12325300626E+02  0.12769472620E+03  0.12500000000E+03 0.  0.
         25    1    1    2    0    0 -0.16584820823E+02  0.11457029667E+03  0.12664866630E+03  0.21228823292E+03  0.12500000000E+03 0.  0.
         25    1    1    2    0    0  0.39583842618E+02 -0.11429632406E+03  0.26525445180E+03  0.31719939232E+03  0.12500000000E+03 0.  0.
</event>
<event>
 5    0  0.5452999E-005  0.2119308E+03  0.7546771E-02  0.1140046E+00
         21   -1    0    0  502  501  0.00000000000E+00  0.00000000000E+00  0.12549392493E+04  0.12549392493E+04  0.00000000000E+00 0.  1.
         21   -1    0    0  501  502 -0.00000000000E+00 -0.00000000000E+00 -0.35790322624E+02  0.35790322624E+02  0.00000000000E+00 0.  1.
         25    1    1    2    0    0 -0.22571959259E+01  0.29448453685E+02  0.33399262245E+03  0.35783848061E+03  0.12500000000E+03 0.  0.
         25    1    1    2    0    0 -0.36233380229E+02 -0.44406911247E+02  0.64019223227E+03  0.65479456768E+03  0.12500000000E+03 0.  0.
         25    1    1    2    0    0  0.38490576155E+02  0.14958457563E+02  0.24496407199E+03  0.27809652366E+03  0.12500000000E+03 0.  0.
</event>
<event>
 5    0  0.5452999E-005  0.2651148E+03  0.7546771E-02  0.1104109E+00
         21   -1    0    0  502  501  0.00000000000E+00  0.00000000000E+00  0.49000303982E+02  0.49000303982E+02  0.00000000000E+00 0. -1.
         21   -1    0    0  501  502 -0.00000000000E+00 -0.00000000000E+00 -0.14343962992E+04  0.14343962992E+04  0.00000000000E+00 0. -1.
         25    1    1    2    0    0  0.56819604822E+02 -0.98784438742E+02 -0.32050469014E+03  0.36240183392E+03  0.12500000000E+03 0.  0.
         25    1    1    2    0    0 -0.98461757169E+01 -0.30920048320E+02 -0.69503821119E+03  0.70693430500E+03  0.12500000000E+03 0.  0.
         25    1    1    2    0    0 -0.46973429105E+02  0.12970448706E+03 -0.36985309388E+03  0.41406046426E+03  0.12500000000E+03 0.  0.
</event>
<event>
 5    0  0.5452999E-005  0.2331579E+03  0.7546771E-02  0.1124437E+00
         21   -1    0    0  502  501  0.00000000000E+00  0.00000000000E+00  0.12040262245E+03  0.12040262245E+03  0.00000000000E+00 0. -1.
         21   -1    0    0  501  502 -0.00000000000E+00 -0.00000000000E+00 -0.45150678671E+03  0.45150678671E+03  0.00000000000E+00 0. -1.
         25    1    1    2    0    0  0.28130219963E+02 -0.76781161057E+01 -0.12034609269E+02  0.12891894571E+03  0.12500000000E+03 0.  0.
         25    1    1    2    0    0  0.19562243638E+02  0.85105102105E+02 -0.14963630733E+03  0.21363891091E+03  0.12500000000E+03 0.  0.
         25    1    1    2    0    0 -0.47692463601E+02 -0.77426985999E+02 -0.16943324766E+03  0.22935155255E+03  0.12500000000E+03 0.  0.
</event>
<event>
 5    0  0.5452999E-005  0.3104402E+03  0.7546771E-02  0.1080135E+00
         21   -1    0    0  502  501  0.00000000000E+00  0.00000000000E+00  0.14592559724E+03  0.14592559724E+03  0.00000000000E+00 0.  1.
         21   -1    0    0  501  502 -0.00000000000E+00 -0.00000000000E+00 -0.66042647997E+03  0.66042647997E+03  0.00000000000E+00 0.  1.
         25    1    1    2    0    0  0.19111656235E+03  0.60455457209E+02 -0.18272101439E+03  0.29865091966E+03  0.12500000000E+03 0.  0.
         25    1    1    2    0    0 -0.49095985278E+02  0.62958793286E+02 -0.76701700844E+02  0.16698016749E+03  0.12500000000E+03 0.  0.
         25    1    1    2    0    0 -0.14202057708E+03 -0.12341425050E+03 -0.25507816749E+03  0.34072099007E+03  0.12500000000E+03 0.  0.
</event>
<event>
 5    0  0.5452999E-005  0.2847824E+03  0.7546771E-02  0.1093105E+00
         21   -1    0    0  502  501  0.00000000000E+00  0.00000000000E+00  0.47368591669E+02  0.47368591669E+02  0.00000000000E+00 0.  1.
         21   -1    0    0  501  502 -0.00000000000E+00 -0.00000000000E+00 -0.17121266903E+04  0.17121266903E+04  0.00000000000E+00 0.  1.
         25    1    1    2    0    0 -0.18746603753E+02  0.11374128903E+03 -0.48629879189E+03  0.51516990496E+03  0.12500000000E+03 0.  0.
         25    1    1    2    0    0 -0.23756170767E+01  0.41428482806E+02 -0.16436315225E+03  0.21062338085E+03  0.12500000000E+03 0.  0.
         25    1    1    2    0    0  0.21122220830E+02 -0.15516977184E+03 -0.10140961545E+04  0.10337019962E+04  0.12500000000E+03 0.  0.
</event>
<event>
 5    0  0.5452999E-005  0.3767179E+03  0.7546771E-02  0.1052154E+00
         21   -1    0    0  502  501  0.00000000000E+00  0.00000000000E+00  0.56346245553E+03  0.56346245553E+03  0.00000000000E+00 0. -1.
         21   -1    0    0  501  502 -0.00000000000E+00 -0.00000000000E+00 -0.25186488435E+03  0.25186488435E+03  0.00000000000E+00 0. -1.
         25    1    1    2    0    0 -0.17398831210E+01 -0.70999131826E+02  0.27224990407E+03  0.30787808330E+03  0.12500000000E+03 0.  0.
         25    1    1    2    0    0 -0.15675850240E+03  0.18142007766E+03  0.58228386654E+02  0.27658998113E+03  0.12500000000E+03 0.  0.
         25    1    1    2    0    0  0.15849838552E+03 -0.11042094583E+03 -0.18880719540E+02  0.23085927545E+03  0.12500000000E+03 0.  0.
</event>
<event>
 5    0  0.5452999E-005  0.2036247E+03  0.7546771E-02  0.1146716E+00
         21   -1    0    0  502  501  0.00000000000E+00  0.00000000000E+00  0.98981348658E+02  0.98981348658E+02  0.00000000000E+00 0. -1.
         21   -1    0    0  501  502 -0.00000000000E+00 -0.00000000000E+00 -0.41889724813E+03  0.41889724813E+03  0.00000000000E+00 0. -1.
         25    1    1    2    0    0  0.16801236206E+02  0.25080922273E+02 -0.76609322989E+02  0.14968407587E+03  0.12500000000E+03 0.  0.
         25    1    1    2    0    0 -0.35834395595E+02  0.29058651983E+02 -0.83048313458E+02  0.15700487741E+03  0.12500000000E+03 0.  0.
         25    1    1    2    0    0  0.19033159389E+02 -0.54139574257E+02 -0.16025826303E+03  0.21118964351E+03  0.12500000000E+03 0.  0.
</event>
<event>
 5    0  0.5452999E-005  0.3424525E+03  0.7546771E-02  0.1065756E+00
         21   -1    0    0  502  501  0.00000000000E+00  0.00000000000E+00  0.20435170908E+03  0.20435170908E+03  0.00000000000E+00 0. -1.
         21   -1    0    0  501  502 -0.00000000000E+00 -0.00000000000E+00 -0.57388179528E+03  0.57388179528E+03  0.00000000000E+00 0. -1.
         25    1    1    2    0    0 -0.22160147110E+03  0.13052209264E+03 -0.13565465660E+03  0.31649710033E+03  0.12500000000E+03 0.  0.
         25    1    1    2    0    0  0.98437250505E+02  0.27621578142E+02 -0.84726374104E+02  0.18236337992E+03  0.12500000000E+03 0.  0.
         25    1    1    2    0    0  0.12316422059E+03 -0.15814367078E+03 -0.14914905551E+03  0.27937302411E+03  0.12500000000E+03 0.  0.
</event>
<event>
 5    0  0.5452999E-005  0.2706247E+03  0.7546771E-02  0.1100923E+00
         21   -1    0    0  502  501  0.00000000000E+00  0.00000000000E+00  0.19379882130E+03  0.19379882130E+03  0.00000000000E+00 0. -1.
         21   -1    0    0  501  502 -0.00000000000E+00 -0.00000000000E+00 -0.37790583269E+03  0.37790583269E+03  0.00000000000E+00 0. -1.
         25    1    1    2    0    0  0.55901652660E+02  0.49224639305E+01  0.92492496759E+02  0.16531511539E+03  0.12500000000E+03 0.  0.
         25    1    1    2    0    0 -0.82653856283E+02  0.43849308998E+02 -0.11095931587E+03  0.19154997164E+03  0.12500000000E+03 0.  0.
         25    1    1    2    0    0  0.26752203624E+02 -0.48771772929E+02 -0.16564019228E+03  0.21483956696E+03  0.12500000000E+03 0.  0.
</event>
<event>
 5    0  0.5452999E-005  0.2578870E+03  0.7546771E-02  0.1108419E+00
         21   -1    0    0  502  501  0.00000000000E+00  0.00000000000E+00  0.16835974019E+04  0.16835974019E+04  0.00000000000E+00 0. -1.
         21   -1    0    0  501  502 -0.00000000000E+00 -0.00000000000E+00 -0.39502137085E+02  0.39502137085E+02  0.00000000000E+00 0. -1.
         25    1    1    2    0    0  0.12953003150E+03 -0.87344670868E+01  0.91672267206E+03  0.93426964921E+03  0.12500000000E+03 0.  0.
         25    1    1    2    0    0 -0.12612606552E+02  0.31263436005E+01  0.40137953669E+03  0.42059408500E+03  0.12500000000E+03 0.  0.
         25    1    1    2    0    0 -0.11691742494E+03  0.56081234864E+01  0.32599305603E+03  0.36823580472E+03  0.12500000000E+03 0.  0.
</event>
<event>
 5    0  0.5452999E-005  0.3287692E+03  0.7546771E-02  0.1071683E+00
         21   -1    0    0  502  501  0.00000000000E+00  0.00000000000E+00  0.54459871977E+03  0.54459871977E+03  0.00000000000E+00 0. -1.
         21   -1    0    0  501  502 -0.00000000000E+00 -0.00000000000E+00 -0.19847493778E+03  0.19847493778E+03  0.00000000000E+00 0. -1.
         25    1    1    2    0    0 -0.95028403945E+02  0.22692988865E+03  0.18193020507E+03  0.33053164968E+03  0.12500000000E+03 0.  0.
         25    1    1    2    0    0  0.27315581489E+02 -0.13514595024E+03  0.15648043653E+03  0.24314953398E+03  0.12500000000E+03 0.  0.
         25    1    1    2    0    0  0.67712822456E+02 -0.91783938413E+02  0.77131403890E+01  0.16939247389E+03  0.12500000000E+03 0.  0.
</event>
<event>
 5    0  0.5452999E-005  0.2865593E+03  0.7546771E-02  0.1092159E+00
         21   -1    0    0  502  501  0.00000000000E+00  0.00000000000E+00  0.57493444516E+03  0.57493444516E+03  0.00000000000E+00 0. -1.
         21   -1    0    0  501  502 -0.00000000000E+00 -0.00000000000E+00 -0.14282713716E+03  0.14282713716E+03  0.00000000000E+00 0. -1.
         25    1    1    2    0    0 -0.11327350475E+03  0.10611363631E+03  0.15625628738E+03  0.25324300194E+03  0.12500000000E+03 0.  0.
         25    1    1    2    0    0  0.16092251634E+03 -0.11438544960E+03  0.13403619947E+03  0.26938966223E+03  0.12500000000E+03 0.  0.
         25    1    1    2    0    0 -0.47649011598E+02  0.82718132862E+01  0.14181482116E+03  0.19512891816E+03  0.12500000000E+03 0.  0.
</event>
<event>
 5    0  0.5452999E-005  0.2766570E+03  0.7546771E-02  0.1097529E+00
         21   -1    0    0  502  501  0.00000000000E+00  0.00000000000E+00  0.47394068843E+03  0.47394068843E+03  0.00000000000E+00 0. -1.
         21   -1    0    0  501  502 -0.00000000000E+00 -0.00000000000E+00 -0.16149507871E+03  0.16149507871E+03  0.00000000000E+00 0. -1.
         25    1    1    2    0    0  0.58482460818E+02  0.58896738603E+01 -0.41501004956E+01  0.13819229290E+03  0.12500000000E+03 0.  0.
         25    1    1    2    0    0 -0.20081776835E+02 -0.61520547519E+01 -0.27008287927E+02  0.12959773592E+03  0.12500000000E+03 0.  0.
         25    1    1    2    0    0 -0.38400683983E+02  0.26238089160E+00  0.34360399814E+03  0.36764573833E+03  0.12500000000E+03 0.  0.
</event>
<event>
 5    0  0.5452999E-005  0.5590218E+03  0.7546771E-02  0.9994270E-01
         21   -1    0    0  502  501  0.00000000000E+00  0.00000000000E+00  0.84255154936E+03  0.84255154936E+03  0.00000000000E+00 0. -1.
         21   -1    0    0  501  502 -0.00000000000E+00 -0.00000000000E+00 -0.37090362560E+03  0.37090362560E+03  0.00000000000E+00 0. -1.
         25    1    1    2    0    0 -0.50455348639E+02 -0.80627950183E+02 -0.29987015031E+02  0.15990881660E+03  0.12500000000E+03 0.  0.
         25    1    1    2    0    0 -0.30343723509E+03 -0.18607336299E+03  0.45455981826E+03  0.59071742858E+03  0.12500000000E+03 0.  0.
         25    1    1    2    0    0  0.35389258373E+03  0.26670131318E+03  0.47075120535E+02  0.46282892978E+03  0.12500000000E+03 0.  0.
</event>
<event>
 5    0  0.5452999E-005  0.3890038E+03  0.7546771E-02  0.1047655E+00
         21   -1    0    0  502  501  0.00000000000E+00  0.00000000000E+00  0.16809708905E+04  0.16809708905E+04  0.00000000000E+00 0.  1.
         21   -1    0    0  501  502 -0.00000000000E+00 -0.00000000000E+00 -0.90021775793E+02  0.90021775793E+02  0.00000000000E+00 0.  1.
         25    1    1    2    0    0  0.20358233984E+03 -0.62438554787E+02  0.87322477781E+03  0.90746396888E+03  0.12500000000E+03 0.  0.
         25    1    1    2    0    0 -0.96015746296E+02  0.15211172649E+03  0.60763775312E+03  0.64591457631E+03  0.12500000000E+03 0.  0.
         25    1    1    2    0    0 -0.10756659354E+03 -0.89673171702E+02  0.11008658372E+03  0.21761412106E+03  0.12500000000E+03 0.  0.
</event>
<event>
 5    0  0.5452999E-005  0.2382236E+03  0.7546771E-02  0.1120982E+00
         21   -1    0    0  502  501  0.00000000000E+00  0.00000000000E+00  0.84556253607E+03  0.84556253607E+03  0.00000000000E+00 0.  1.
         21   -1    0    0  501  502 -0.00000000000E+00 -0.00000000000E+00 -0.67115680864E+02  0.67115680864E+02  0.00000000000E+00 0.  1.
         25    1    1    2    0    0 -0.10400207162E+03 -0.15503795193E+02  0.46804854242E+03  0.49573302959E+03  0.12500000000E+03 0.  0.
         25    1    1    2    0    0  0.31205418792E+02  0.31950784190E+02  0.14379343033E+03  0.19569410154E+03  0.12500000000E+03 0.  0.
         25    1    1    2    0    0  0.72796652827E+02 -0.16446988997E+02  0.16660488246E+03  0.22125108580E+03  0.12500000000E+03 0.  0.
</event>
<event>
 5    0  0.5452999E-005  0.3077978E+03  0.7546771E-02  0.1081406E+00
         21   -1    0    0  502  501  0.00000000000E+00  0.00000000000E+00  0.34924022370E+03  0.34924022370E+03  0.00000000000E+00 0.  1.
         21   -1    0    0  501  502 -0.00000000000E+00 -0.00000000000E+00 -0.27127312424E+03  0.27127312424E+03  0.00000000000E+00 0.  1.
         25    1    1    2    0    0 -0.12666648092E+03 -0.44157846592E+02 -0.92336154229E+02  0.20529315182E+03  0.12500000000E+03 0.  0.
         25    1    1    2    0    0  0.20441086621E+02  0.13811541012E+03  0.62205855139E+02  0.19745448323E+03  0.12500000000E+03 0.  0.
         25    1    1    2    0    0  0.10622539430E+03 -0.93957563526E+02  0.10809739855E+03  0.21776571289E+03  0.12500000000E+03 0.  0.
</event>
<event>
 5    0  0.5452999E-005  0.3194502E+03  0.7546771E-02  0.1075903E+00
         21   -1    0    0  502  501  0.00000000000E+00  0.00000000000E+00  0.26427289446E+03  0.26427289446E+03  0.00000000000E+00 0.  1.
         21   -1    0    0  501  502 -0.00000000000E+00 -0.00000000000E+00 -0.38614787181E+03  0.38614787181E+03  0.00000000000E+00 0.  1.
         25    1    1    2    0    0  0.27527341429E+02  0.10995438621E+00 -0.23187427449E+03  0.26485551870E+03  0.12500000000E+03 0.  0.
         25    1    1    2    0    0  0.96116949754E+02 -0.65118493989E+02  0.49226068084E+01  0.17066961753E+03  0.12500000000E+03 0.  0.
         25    1    1    2    0    0 -0.12364429118E+03  0.65008539603E+02  0.10507669032E+03  0.21489563004E+03  0.12500000000E+03 0.  0.
</event>
<event>
 5    0  0.5452999E-005  0.3972562E+03  0.7546771E-02  0.1044734E+00
         21   -1    0    0  502  501  0.00000000000E+00  0.00000000000E+00  0.98033835653E+02  0.98033835653E+02  0.00000000000E+00 0.  1.
         21   -1    0    0  501  502 -0.00000000000E+00 -0.00000000000E+00 -0.16097759247E+04  0.16097759247E+04  0.00000000000E+00 0.  1.
         25    1    1    2    0    0  0.59613815812E+02 -0.40946530567E+02 -0.19284521195E+03  0.24092467946E+03  0.12500000000E+03 0.  0.
         25    1    1    2    0    0 -0.31878972292E+03  0.59313537427E+02 -0.61818646017E+03  0.70917168775E+03  0.12500000000E+03 0.  0.
         25    1    1    2    0    0  0.25917590711E+03 -0.18367006861E+02 -0.70071041697E+03  0.75771339319E+03  0.12500000000E+03 0.  0.
</event>
<event>
 5    0  0.5452999E-005  0.2480210E+03  0.7546771E-02  0.1114562E+00
         21   -1    0    0  502  501  0.00000000000E+00  0.00000000000E+00  0.13689307978E+04  0.13689307978E+04  0.00000000000E+00 0. -1.
         21   -1    0    0  501  502 -0.00000000000E+00 -0.00000000000E+00 -0.44936103385E+02  0.44936103385E+02  0.00000000000E+00 0. -1.
         25    1    1    2    0    0 -0.70511223000E+02 -0.47127798233E+02  0.78408724721E+03  0.79850527436E+03  0.12500000000E+03 0.  0.
         25    1    1    2    0    0  0.74130661837E+02 -0.21404665015E+02  0.21338943877E+03  0.25906286359E+03  0.12500000000E+03 0.  0.
         25    1    1    2    0    0 -0.36194388372E+01  0.68532463248E+02  0.32651800838E+03  0.35629876319E+03  0.12500000000E+03 0.  0.
</event>
<event>
 5    0  0.6260403E-005  0.3250092E+03  0.7546771E-02  0.1073367E+00
         21   -1    0    0  502  501  0.00000000000E+00  0.00000000000E+00  0.50792665374E+03  0.50792665374E+03  0.00000000000E+00 0. -1.
         21   -1    0    0  501  502 -0.00000000000E+00 -0.00000000000E+00 -0.20796498577E+03  0.20796498577E+03  0.00000000000E+00 0. -1.
         25    1    1    2    0    0  0.13027278917E+03 -0.10718691547E+03  0.19390543604E+03  0.28580474554E+03  0.12500000000E+03 0.  0.
         25    1    1    2    0    0 -0.17785780878E+03  0.49187138207E+02  0.16029381290E+03  0.27453939820E+03  0.12500000000E+03 0.  0.
         25    1    1    2    0    0  0.47585019612E+02  0.57999777263E+02 -0.54237580956E+02  0.15554749578E+03  0.12500000000E+03 0.  0.
</event>
<event>
 5    0  0.5452999E-005  0.2684796E+03  0.7546771E-02  0.1102153E+00
         21   -1    0    0  502  501  0.00000000000E+00  0.00000000000E+00  0.89285528230E+02  0.89285528230E+02  0.00000000000E+00 0. -1.
         21   -1    0    0  501  502 -0.00000000000E+00 -0.00000000000E+00 -0.80731232387E+03  0.80731232387E+03  0.00000000000E+00 0. -1.
         25    1    1    2    0    0 -0.83776335868E+02  0.12214334113E+03 -0.18639121727E+03  0.26889432145E+03  0.12500000000E+03 0.  0.
         25    1    1    2    0    0  0.26198840686E+02  0.22687969857E+02 -0.16204590047E+03  0.20756925853E+03  0.12500000000E+03 0.  0.
         25    1    1    2    0    0  0.57577495181E+02 -0.14483131099E+03 -0.36958967790E+03  0.42013427211E+03  0.12500000000E+03 0.  0.
</event>
<event>
 5    0  0.5452999E-005  0.2744856E+03  0.7546771E-02  0.1098739E+00
         21   -1    0    0  502  501  0.00000000000E+00  0.00000000000E+00  0.31787841458E+03  0.31787841458E+03  0.00000000000E+00 0.  1.
         21   -1    0    0  501  502 -0.00000000000E+00 -0.00000000000E+00 -0.23701617814E+03  0.23701617814E+03  0.00000000000E+00 0.  1.
         25    1    1    2    0    0 -0.45332031736E+02  0.55681115293E+01  0.39603147479E+02  0.13885030161E+03  0.12500000000E+03 0.  0.
         25    1    1    2    0    0  0.11313248641E+03  0.13078392641E+03 -0.59426321512E+01  0.21345657583E+03  0.12500000000E+03 0.  0.
         25    1    1    2    0    0 -0.67800454673E+02 -0.13635203794E+03  0.47201721109E+02  0.20258771528E+03  0.12500000000E+03 0.  0.
</event>
<event>
 5    0  0.5452999E-005  0.4053146E+03  0.7546771E-02  0.1041955E+00
         21   -1    0    0  502  501  0.00000000000E+00  0.00000000000E+00  0.30982619329E+03  0.30982619329E+03  0.00000000000E+00 0. -1.
         21   -1    0    0  501  502 -0.00000000000E+00 -0.00000000000E+00 -0.53023252686E+03  0.53023252686E+03  0.00000000000E+00 0. -1.
         25    1    1    2    0    0  0.22704712985E+03  0.59362478467E+02  0.88614416912E+02  0.28027097229E+03  0.12500000000E+03 0.  0.
         25    1    1    2    0    0  0.33292234833E+02 -0.37487197956E+02 -0.21791606026E+03  0.25617586192E+03  0.12500000000E+03 0.  0.
         25    1    1    2    0    0 -0.26033936468E+03 -0.21875280511E+02 -0.91104690221E+02  0.30361188594E+03  0.12500000000E+03 0.  0.
</event>
<event>
 5    0  0.5452999E-005  0.3213464E+03  0.7546771E-02  0.1075031E+00
         21   -1    0    0  502  501  0.00000000000E+00  0.00000000000E+00  0.29808006731E+03  0.29808006731E+03  0.00000000000E+00 0. -1.
         21   -1    0    0  501  502 -0.00000000000E+00 -0.00000000000E+00 -0.34642873124E+03  0.34642873124E+03  0.00000000000E+00 0. -1.
         25    1    1    2    0    0  0.15437557343E+03  0.73985898211E+02 -0.10406520055E+03  0.23613618268E+03  0.12500000000E+03 0.  0.
         25    1    1    2    0    0 -0.15957940579E+01 -0.74653335092E+02  0.13220656722E+03  0.19667039283E+03  0.12500000000E+03 0.  0.
         25    1    1    2    0    0 -0.15277977937E+03  0.66743688099E+00 -0.76490030598E+02  0.21170222303E+03  0.12500000000E+03 0.  0.
</event>
<event>
 5    0  0.5452999E-005  0.3149646E+03  0.7546771E-02  0.1077990E+00
         21   -1    0    0  502  501  0.00000000000E+00  0.00000000000E+00  0.19299344201E+03  0.19299344201E+03  0.00000000000E+00 0.  1.
         21   -1    0    0  501  502 -0.00000000000E+00 -0.00000000000E+00 -0.51402123373E+03  0.51402123373E+03  0.00000000000E+00 0.  1.
         25    1    1    2    0    0 -0.18399619298E+03  0.13925972243E+03 -0.13616150324E+03  0.29565659858E+03  0.12500000000E+03 0.  0.
         25    1    1    2    0    0  0.18212542397E+02 -0.19585007918E+02 -0.64639899787E+02  0.14324310064E+03  0.12500000000E+03 0.  0.
         25    1    1    2    0    0  0.16578365058E+03 -0.11967471451E+03 -0.12022638869E+03  0.26811497651E+03  0.12500000000E+03 0.  0.
</event>
<event>
 5    0  0.5452999E-005  0.3235502E+03  0.7546771E-02  0.1074027E+00
         21   -1    0    0  502  501  0.00000000000E+00  0.00000000000E+00  0.14651935106E+04  0.14651935106E+04  0.00000000000E+00 0.  1.
         21   -1    0    0  501  502 -0.00000000000E+00 -0.00000000000E+00 -0.71447703479E+02  0.71447703479E+02  0.00000000000E+00 0.  1.
         25    1    1    2    0    0 -0.10398313067E+03 -0.15095644182E+03  0.30303465459E+03  0.37557334926E+03  0.12500000000E+03 0.  0.
         25    1    1    2    0    0  0.46776234175E+02 -0.57655541644E+02  0.46971202202E+03  0.49169763188E+03  0.12500000000E+03 0.  0.
         25    1    1    2    0    0  0.57206896490E+02  0.20861198346E+03  0.62099913048E+03  0.66937023291E+03  0.12500000000E+03 0.  0.
</event>
<event>
 5    0  0.5452999E-005  0.3193350E+03  0.7546771E-02  0.1075956E+00
         21   -1    0    0  502  501  0.00000000000E+00  0.00000000000E+00  0.11971038701E+04  0.11971038701E+04  0.00000000000E+00 0.  1.
         21   -1    0    0  501  502 -0.00000000000E+00 -0.00000000000E+00 -0.85184605007E+02  0.85184605007E+02  0.00000000000E+00 0.  1.
         25    1    1    2    0    0  0.31433668262E+01  0.12812437047E+03  0.11899384206E+03  0.21496574032E+03  0.12500000000E+03 0.  0.
         25    1    1    2    0    0 -0.11306464111E+03 -0.56347521062E+02  0.70525727712E+03  0.72730425760E+03  0.12500000000E+03 0.  0.
         25    1    1    2    0    0  0.10992127428E+03 -0.71776849408E+02  0.28766814589E+03  0.34001847716E+03  0.12500000000E+03 0.  0.
</event>
<event>
 5    0  0.5452999E-005  0.5698531E+03  0.7546771E-02  0.9970004E-01
         21   -1    0    0  502  501  0.00000000000E+00  0.00000000000E+00  0.36136463650E+04  0.36136463650E+04  0.00000000000E+00 0.  1.
         21   -1    0    0  501  502 -0.00000000000E+00 -0.00000000000E+00 -0.89862833970E+02  0.89862833970E+02  0.00000000000E+00 0.  1.
         25    1    1    2    0    0 -0.46025356826E+02  0.68176607452E+02  0.10864789688E+03  0.18492092572E+03  0.12500000000E+03 0.  0.
         25    1    1    2    0    0  0.14526227729E+03  0.33944863524E+03  0.12395467475E+04  0.12993951071E+04  0.12500000000E+03 0.  0.
         25    1    1    2    0    0 -0.99236920461E+02 -0.40762524269E+03  0.21755888867E+04  0.22191931662E+04  0.12500000000E+03 0.  0.
</event>
<event>
 5    0  0.5452999E-005  0.2383195E+03  0.7546771E-02  0.1120917E+00
         21   -1    0    0  502  501  0.00000000000E+00  0.00000000000E+00  0.17623606530E+04  0.17623606530E+04  0.00000000000E+00 0. -1.
         21   -1    0    0  501  502 -0.00000000000E+00 -0.00000000000E+00 -0.32227334606E+02  0.32227334606E+02  0.00000000000E+00 0. -1.
         25    1    1    2    0    0 -0.11587112196E+02 -0.98233465375E+00  0.31393546951E+03  0.33810605610E+03  0.12500000000E+03 0.  0.
         25    1    1    2    0    0 -0.62937621246E+02 -0.69450711190E+02  0.95662646286E+03  0.96930064216E+03  0.12500000000E+03 0.  0.
         25    1    1    2    0    0  0.74524733442E+02  0.70433045843E+02  0.45957138604E+03  0.48718128936E+03  0.12500000000E+03 0.  0.
</event>
<event>
 5    0  0.5452999E-005  0.2151270E+03  0.7546771E-02  0.1137569E+00
         21   -1    0    0  502  501  0.00000000000E+00  0.00000000000E+00  0.56460708205E+03  0.56460708205E+03  0.00000000000E+00 0.  1.
         21   -1    0    0  501  502 -0.00000000000E+00 -0.00000000000E+00 -0.81967821089E+02  0.81967821089E+02  0.00000000000E+00 0.  1.
         25    1    1    2    0    0  0.17764110831E+02 -0.48203416585E+01  0.16059747035E+03  0.20434125088E+03  0.12500000000E+03 0.  0.
         25    1    1    2    0    0 -0.11173605564E+01  0.24038630552E+02  0.28057825913E+03  0.30810430661E+03  0.12500000000E+03 0.  0.
         25    1    1    2    0    0 -0.16646750275E+02 -0.19218288894E+02  0.41463531478E+02  0.13412934565E+03  0.12500000000E+03 0.  0.
</event>
<event>
 5    0  0.5452999E-005  0.2108196E+03  0.7546771E-02  0.1140919E+00
         21   -1    0    0  502  501  0.00000000000E+00  0.00000000000E+00  0.48344420628E+03  0.48344420628E+03  0.00000000000E+00 0.  1.
         21   -1    0    0  501  502 -0.00000000000E+00 -0.00000000000E+00 -0.91933878688E+02  0.91933878688E+02  0.00000000000E+00 0.  1.
         25    1    1    2    0    0  0.10657128139E+02  0.12245472609E+02  0.15602870798E+03  0.20058285992E+03  0.12500000000E+03 0.  0.
         25    1    1    2    0    0 -0.47606631219E+02 -0.51490216169E+02  0.17399627509E+03  0.22542701134E+03  0.12500000000E+03 0.  0.
         25    1    1    2    0    0  0.36949503080E+02  0.39244743560E+02  0.61485344523E+02  0.14936821371E+03  0.12500000000E+03 0.  0.
</event>
<event>
 5    0  0.5452999E-005  0.3146052E+03  0.7546771E-02  0.1078159E+00
         21   -1    0    0  502  501  0.00000000000E+00  0.00000000000E+00  0.58700899187E+03  0.58700899187E+03  0.00000000000E+00 0. -1.
         21   -1    0    0  501  502 -0.00000000000E+00 -0.00000000000E+00 -0.16861148446E+03  0.16861148446E+03  0.00000000000E+00 0. -1.
         25    1    1    2    0    0 -0.13579165810E+02  0.15000069174E+03  0.10462812364E+03  0.22193838226E+03  0.12500000000E+03 0.  0.
         25    1    1    2    0    0 -0.35436745220E+02 -0.92887886223E+02  0.34879908523E+03  0.38362706392E+03  0.12500000000E+03 0.  0.
         25    1    1    2    0    0  0.49015911030E+02 -0.57112805515E+02 -0.35029701450E+02  0.15005503014E+03  0.12500000000E+03 0.  0.
</event>
<event>
 5    0  0.5452999E-005  0.2666514E+03  0.7546771E-02  0.1103212E+00
         21   -1    0    0  502  501  0.00000000000E+00  0.00000000000E+00  0.26469707287E+02  0.26469707287E+02  0.00000000000E+00 0. -1.
         21   -1    0    0  501  502 -0.00000000000E+00 -0.00000000000E+00 -0.26862023150E+04  0.26862023150E+04  0.00000000000E+00 0. -1.
         25    1    1    2    0    0 -0.13879102270E+02  0.39236298504E+02 -0.25634337921E+03  0.28821700968E+03  0.12500000000E+03 0.  0.
         25    1    1    2    0    0 -0.52697294953E+02  0.53876887166E+02 -0.93652346741E+03  0.94782958852E+03  0.12500000000E+03 0.  0.
         25    1    1    2    0    0  0.66576397223E+02 -0.93113185671E+02 -0.14668657611E+04  0.14766254241E+04  0.12500000000E+03 0.  0.
</event>
<event>
 5    0  0.5452999E-005  0.2039720E+03  0.7546771E-02  0.1146430E+00
         21   -1    0    0  502  501  0.00000000000E+00  0.00000000000E+00  0.78596844378E+02  0.78596844378E+02  0.00000000000E+00 0. -1.
         21   -1    0    0  501  502 -0.00000000000E+00 -0.00000000000E+00 -0.52934168025E+03  0.52934168025E+03  0.00000000000E+00 0. -1.
         25    1    1    2    0    0 -0.14904037727E+02 -0.41373066020E+02 -0.11561477512E+03  0.17585686554E+03  0.12500000000E+03 0.  0.
         25    1    1    2    0    0  0.54782500901E+02  0.17270049347E+02 -0.14558513639E+03  0.20029829991E+03  0.12500000000E+03 0.  0.
         25    1    1    2    0    0 -0.39878463174E+02  0.24103016674E+02 -0.18954492437E+03  0.23178335918E+03  0.12500000000E+03 0.  0.
</event>
<event>
 5    0  0.5452999E-005  0.3073204E+03  0.7546771E-02  0.1081637E+00
         21   -1    0    0  502  501  0.00000000000E+00  0.00000000000E+00  0.10863251136E+03  0.10863251136E+03  0.00000000000E+00 0.  1.
         21   -1    0    0  501  502 -0.00000000000E+00 -0.00000000000E+00 -0.86940645088E+03  0.86940645088E+03  0.00000000000E+00 0.  1.
         25    1    1    2    0    0 -0.58872334216E+01 -0.67895113420E+02 -0.16408302562E+03  0.21723868265E+03  0.12500000000E+03 0.  0.
         25    1    1    2    0    0  0.18803613452E+03 -0.31298402266E+02 -0.32328547502E+03  0.39557006488E+03  0.12500000000E+03 0.  0.
         25    1    1    2    0    0 -0.18214890110E+03  0.99193515686E+02 -0.27340543888E+03  0.36523021471E+03  0.12500000000E+03 0.  0.
</event>
<event>
 5    0  0.5452999E-005  0.5446311E+03  0.7546771E-02  0.1002744E+00
         21   -1    0    0  502  501  0.00000000000E+00  0.00000000000E+00  0.13287436012E+04  0.13287436012E+04  0.00000000000E+00 0.  1.
         21   -1    0    0  501  502 -0.00000000000E+00 -0.00000000000E+00 -0.22323571099E+03  0.22323571099E+03  0.00000000000E+00 0.  1.
         25    1    1    2    0    0  0.59885106116E+02 -0.48194104643E+02  0.32258841428E+03  0.35439692815E+03  0.12500000000E+03 0.  0.
         25    1    1    2    0    0 -0.12153304594E+03  0.21303673698E+03 -0.96769370503E+02  0.29179486566E+03  0.12500000000E+03 0.  0.
         25    1    1    2    0    0  0.61647939822E+02 -0.16484263234E+03  0.87968884647E+03  0.90578751842E+03  0.12500000000E+03 0.  0.
</event>
<event>
 5    0  0.5539336E-005  0.3795901E+03  0.7546771E-02  0.1051085E+00
         21   -1    0    0  502  501  0.00000000000E+00  0.00000000000E+00  0.47471069406E+03  0.47471069406E+03  0.00000000000E+00 0.  1.
         21   -1    0    0  501  502 -0.00000000000E+00 -0.00000000000E+00 -0.30352943786E+03  0.30352943786E+03  0.00000000000E+00 0.  1.
         25    1    1    2    0    0  0.55213117289E+02 -0.90834471391E+02  0.23131134467E+03  0.28360064825E+03  0.12500000000E+03 0.  0.
         25    1    1    2    0    0 -0.21722905672E+03 -0.31440337148E+02 -0.30987381832E+02  0.25448413648E+03  0.12500000000E+03 0.  0.
         25    1    1    2    0    0  0.16201593944E+03  0.12227480854E+03 -0.29142706644E+02  0.24015534719E+03  0.12500000000E+03 0.  0.
</event>
<event>
 5    0  0.5452999E-005  0.3401492E+03  0.7546771E-02  0.1066732E+00
         21   -1    0    0  502  501  0.00000000000E+00  0.00000000000E+00  0.30485210119E+03  0.30485210119E+03  0.00000000000E+00 0.  1.
         21   -1    0    0  501  502 -0.00000000000E+00 -0.00000000000E+00 -0.37953318903E+03  0.37953318903E+03  0.00000000000E+00 0.  1.
         25    1    1    2    0    0 -0.97337642568E+02  0.14664365579E+02 -0.33260796691E+02  0.16254519641E+03  0.12500000000E+03 0.  0.
         25    1    1    2    0    0 -0.14376032124E+03 -0.12372266372E+03 -0.28045884989E+02  0.22887966084E+03  0.12500000000E+03 0.  0.
         25    1    1    2    0    0  0.24109796381E+03  0.10905829814E+03 -0.13374406163E+02  0.29296043297E+03  0.12500000000E+03 0.  0.
</event>
<event>
 5    0  0.5452999E-005  0.2811955E+03  0.7546771E-02  0.1095038E+00
         21   -1    0    0  502  501  0.00000000000E+00  0.00000000000E+00  0.58782322006E+03  0.58782322006E+03  0.00000000000E+00 0.  1.
         21   -1    0    0  501  502 -0.00000000000E+00 -0.00000000000E+00 -0.13451475352E+03  0.13451475352E+03  0.00000000000E+00 0.  1.
         25    1    1    2    0    0 -0.25680311937E+02  0.92143718298E+02  0.18972466086E+03  0.24651651097E+03  0.12500000000E+03 0.  0.
         25    1    1    2    0    0 -0.77126807742E+02 -0.16707615629E+02 -0.11052766438E+02  0.14823917343E+03  0.12500000000E+03 0.  0.
         25    1    1    2    0    0  0.10280711968E+03 -0.75436102670E+02  0.27463657211E+03  0.32758228918E+03  0.12500000000E+03 0.  0.
</event>
<event>
 5    0  0.5452999E-005  0.2816784E+03  0.7546771E-02  0.1094776E+00
         21   -1    0    0  502  501  0.00000000000E+00  0.00000000000E+00  0.20743117411E+03  0.20743117411E+03  0.00000000000E+00 0. -1.
         21   -1    0    0  501  502 -0.00000000000E+00 -0.00000000000E+00 -0.38250138284E+03  0.38250138284E+03  0.00000000000E+00 0. -1.
         25    1    1    2    0    0 -0.45950985230E+02 -0.17643406792E+03 -0.52927018651E+02  0.22730319547E+03  0.12500000000E+03 0.  0.
         25    1    1    2    0    0  0.47486997511E+02  0.11631133993E+03 -0.13575993663E+03  0.22324673150E+03  0.12500000000E+03 0.  0.
         25    1    1    2    0    0 -0.15360122809E+01  0.60122727990E+02  0.13616746560E+02  0.13938262999E+03  0.12500000000E+03 0.  0.
</event>
<event>
 5    0  0.5452999E-005  0.2586060E+03  0.7546771E-02  0.1107984E+00
         21   -1    0    0  502  501  0.00000000000E+00  0.00000000000E+00  0.59961288385E+02  0.59961288385E+02  0.00000000000E+00 0.  1.
         21   -1    0    0  501  502 -0.00000000000E+00 -0.00000000000E+00 -0.11153376055E+04  0.11153376055E+04  0.00000000000E+00 0.  1.
         25    1    1    2    0    0  0.11273598238E+02 -0.94473840190E+02 -0.26744796434E+03  0.31017062099E+03  0.12500000000E+03 0.  0.
         25    1    1    2    0    0 -0.68144115845E+01  0.13295353091E+03 -0.64928940795E+03  0.67448114345E+03  0.12500000000E+03 0.  0.
         25    1    1    2    0    0 -0.44591866532E+01 -0.38479690718E+02 -0.13863894481E+03  0.19064712944E+03  0.12500000000E+03 0.  0.
</event>
<event>
 5    0  0.5452999E-005  0.3171197E+03  0.7546771E-02  0.1076983E+00
         21   -1    0    0  502  501  0.00000000000E+00  0.00000000000E+00  0.52454504901E+03  0.52454504901E+03  0.00000000000E+00 0.  1.
         21   -1    0    0  501  502 -0.00000000000E+00 -0.00000000000E+00 -0.19171835051E+03  0.19171835051E+03  0.00000000000E+00 0.  1.
         25    1    1    2    0    0 -0.10320533863E+03 -0.85175277752E+02 -0.16758382163E+02  0.18388043190E+03  0.12500000000E+03 0.  0.
         25    1    1    2    0    0 -0.25400162675E+02  0.51841231261E+02  0.31896667996E+03  0.34741534860E+03  0.12500000000E+03 0.  0.
         25    1    1    2    0    0  0.12860550130E+03  0.33334046491E+02  0.30618400709E+02  0.18496761901E+03  0.12500000000E+03 0.  0.
</event>
<event>
 5    0  0.5452999E-005  0.4809112E+03  0.7546771E-02  0.1018885E+00
         21   -1    0    0  502  501  0.00000000000E+00  0.00000000000E+00  0.23389858090E+03  0.23389858090E+03  0.00000000000E+00 0. -1.
         21   -1    0    0  501  502 -0.00000000000E+00 -0.00000000000E+00 -0.98878574368E+03  0.98878574368E+03  0.00000000000E+00 0. -1.
         25    1    1    2    0    0  0.62388024215E+02  0.21023474608E+03 -0.49028516008E+03  0.55144850369E+03  0.12500000000E+03 0.  0.
         25    1    1    2    0    0  0.19271402431E+03  0.18002628599E+01 -0.13911630442E+01  0.22971476105E+03  0.12500000000E+03 0.  0.
         25    1    1    2    0    0 -0.25510204852E+03 -0.21203500894E+03 -0.26321083966E+03  0.44152105985E+03  0.12500000000E+03 0.  0.
</event>
<event>
 5    0  0.5452999E-005  0.7478761E+03  0.7546771E-02  0.9638688E-01
         21   -1    0    0  502  501  0.00000000000E+00  0.00000000000E+00  0.35072156791E+03  0.35072156791E+03  0.00000000000E+00 0.  1.
         21   -1    0    0  501  502 -0.00000000000E+00 -0.00000000000E+00 -0.15947655190E+04  0.15947655190E+04  0.00000000000E+00 0. -1.
         25    1    1    2    0    0 -0.14879782808E+03  0.68883010780E+03 -0.68254130756E+03  0.98899714235E+03  0.12500000000E+03 0.  0.
         25    1    1    2    0    0  0.20322068480E+02 -0.16073293144E+03 -0.80046199950E+02  0.21972814077E+03  0.12500000000E+03 0.  0.
         25    1    1    2    0    0  0.12847575960E+03 -0.52809717636E+03 -0.48145644360E+03  0.73676180382E+03  0.12500000000E+03 0.  0.
</event>
<event>
 5    0  0.5452999E-005  0.4450113E+03  0.7546771E-02  0.1029220E+00
         21   -1    0    0  502  501  0.00000000000E+00  0.00000000000E+00  0.60943624502E+03  0.60943624502E+03  0.00000000000E+00 0.  1.
         21   -1    0    0  501  502 -0.00000000000E+00 -0.00000000000E+00 -0.32494799463E+03  0.32494799463E+03  0.00000000000E+00 0.  1.
         25    1    1    2    0    0  0.26539323249E+03  0.71858366466E+02  0.42977320277E+03  0.52528772925E+03  0.12500000000E+03 0.  0.
         25    1    1    2    0    0 -0.16126030075E+03 -0.79456350655E+02 -0.94617079578E+02  0.23852796063E+03  0.12500000000E+03 0.  0.
         25    1    1    2    0    0 -0.10413293174E+03  0.75979841887E+01 -0.50667872806E+02  0.17056854977E+03  0.12500000000E+03 0.  0.
</event>
<event>
 5    0  0.5452999E-005  0.2353799E+03  0.7546771E-02  0.1122909E+00
         21   -1    0    0  502  501  0.00000000000E+00  0.00000000000E+00  0.11060264047E+04  0.11060264047E+04  0.00000000000E+00 0. -1.
         21   -1    0    0  501  502 -0.00000000000E+00 -0.00000000000E+00 -0.50092551287E+02  0.50092551287E+02  0.00000000000E+00 0. -1.
         25    1    1    2    0    0 -0.10800324699E+03 -0.24297596191E+02  0.36485445806E+03  0.40124662005E+03  0.12500000000E+03 0.  0.
         25    1    1    2    0    0 -0.10744165054E+02 -0.88444695937E+01  0.24288537890E+03  0.27351776727E+03  0.12500000000E+03 0.  0.
         25    1    1    2    0    0  0.11874741204E+03  0.33142065785E+02  0.44819401644E+03  0.48135456866E+03  0.12500000000E+03 0.  0.
</event>
<event>
 5    0  0.6073310E-005  0.2932403E+03  0.7546771E-02  0.1088669E+00
         21   -1    0    0  502  501  0.00000000000E+00  0.00000000000E+00  0.25282719694E+03  0.25282719694E+03  0.00000000000E+00 0.  1.
         21   -1    0    0  501  502 -0.00000000000E+00 -0.00000000000E+00 -0.34011330035E+03  0.34011330035E+03  0.00000000000E+00 0.  1.
         25    1    1    2    0    0  0.81906220386E+02 -0.36284981284E+02 -0.11457843087E+03  0.19177707273E+03  0.12500000000E+03 0.  0.
         25    1    1    2    0    0 -0.19322980179E+03  0.29936931126E+02  0.45438282957E+01  0.23211984517E+03  0.12500000000E+03 0.  0.
         25    1    1    2    0    0  0.11132358141E+03  0.63480501577E+01  0.22748499169E+02  0.16904357939E+03  0.12500000000E+03 0.  0.
</event>
<event>
 5    0  0.5452999E-005  0.2689171E+03  0.7546771E-02  0.1101901E+00
         21   -1    0    0  502  501  0.00000000000E+00  0.00000000000E+00  0.90663432798E+03  0.90663432798E+03  0.00000000000E+00 0. -1.
         21   -1    0    0  501  502 -0.00000000000E+00 -0.00000000000E+00 -0.79763564419E+02  0.79763564419E+02  0.00000000000E+00 0. -1.
         25    1    1    2    0    0  0.70696319762E+01 -0.56639875755E+02  0.10299918755E+03  0.17173202339E+03  0.12500000000E+03 0.  0.
         25    1    1    2    0    0 -0.50770765573E+02  0.14985270911E+03  0.49320463974E+03  0.53283141961E+03  0.12500000000E+03 0.  0.
         25    1    1    2    0    0  0.43701133597E+02 -0.93212833352E+02  0.23066693627E+03  0.28183444940E+03  0.12500000000E+03 0.  0.
</event>
<event>
 5    0  0.5452999E-005  0.3454766E+03  0.7546771E-02  0.1064487E+00
         21   -1    0    0  502  501  0.00000000000E+00  0.00000000000E+00  0.25973092134E+03  0.25973092134E+03  0.00000000000E+00 0.  1.
         21   -1    0    0  501  502 -0.00000000000E+00 -0.00000000000E+00 -0.45952962272E+03  0.45952962272E+03  0.00000000000E+00 0.  1.
         25    1    1    2    0    0 -0.13265108410E+03  0.90236026086E+02 -0.99081784811E+02  0.22623229344E+03  0.12500000000E+03 0.  0.
         25    1    1    2    0    0  0.19880178649E+03  0.81645371617E+02 -0.10625056118E+03  0.27037436781E+03  0.12500000000E+03 0.  0.
         25    1    1    2    0    0 -0.66150702395E+02 -0.17188139770E+03  0.55336446147E+01  0.22265388280E+03  0.12500000000E+03 0.  0.
</event>
<event>
 5    0  0.5452999E-005  0.2560061E+03  0.7546771E-02  0.1109567E+00
         21   -1    0    0  502  501  0.00000000000E+00  0.00000000000E+00  0.63317709446E+03  0.63317709446E+03  0.00000000000E+00 0.  1.
         21   -1    0    0  501  502 -0.00000000000E+00 -0.00000000000E+00 -0.10350833937E+03  0.10350833937E+03  0.00000000000E+00 0.  1.
         25    1    1    2    0    0  0.13589787700E+02 -0.72124870419E+01  0.31526902520E+03  0.33949412447E+03  0.12500000000E+03 0.  0.
         25    1    1    2    0    0 -0.29942759223E+02 -0.92777993361E+02  0.16514697371E+03  0.22891668311E+03  0.12500000000E+03 0.  0.
         25    1    1    2    0    0  0.16352971523E+02  0.99990480403E+02  0.49252756182E+02  0.16827462625E+03  0.12500000000E+03 0.  0.
</event>
<event>
 5    0  0.5452999E-005  0.2257946E+03  0.7546771E-02  0.1129635E+00
         21   -1    0    0  502  501  0.00000000000E+00  0.00000000000E+00  0.67528268671E+03  0.67528268671E+03  0.00000000000E+00 0. -1.
         21   -1    0    0  501  502 -0.00000000000E+00 -0.00000000000E+00 -0.75499024786E+02  0.75499024786E+02  0.00000000000E+00 0. -1.
         25    1    1    2    0    0  0.36664679988E+02 -0.19310677867E+02  0.78462011529E+02  0.15329216644E+03  0.12500000000E+03 0.  0.
         25    1    1    2    0    0 -0.89764110383E+02  0.13083034220E+02  0.24669927267E+03  0.29105719787E+03  0.12500000000E+03 0.  0.
         25    1    1    2    0    0  0.53099430395E+02  0.62276436472E+01  0.27462237772E+03  0.30643234718E+03  0.12500000000E+03 0.  0.
</event>
<event>
 5    0  0.5452999E-005  0.2986113E+03  0.7546771E-02  0.1085937E+00
         21   -1    0    0  502  501  0.00000000000E+00  0.00000000000E+00  0.13414246559E+04  0.13414246559E+04  0.00000000000E+00 0.  1.
         21   -1    0    0  501  502 -0.00000000000E+00 -0.00000000000E+00 -0.66473139703E+02  0.66473139703E+02  0.00000000000E+00 0.  1.
         25    1    1    2    0    0  0.10334006469E+03 -0.20472216990E+02  0.69983802403E+03  0.71867693752E+03  0.12500000000E+03 0.  0.
         25    1    1    2    0    0 -0.11124290331E+03 -0.12975742828E+02  0.97011394720E+02  0.19385449219E+03  0.12500000000E+03 0.  0.
         25    1    1    2    0    0  0.79028386181E+01  0.33447959818E+02  0.47810209741E+03  0.49536636586E+03  0.12500000000E+03 0.  0.
</event>
<event>
 5    0  0.5452999E-005  0.3760442E+03  0.7546771E-02  0.1052406E+00
         21   -1    0    0  502  501  0.00000000000E+00  0.00000000000E+00  0.43790999815E+03  0.43790999815E+03  0.00000000000E+00 0. -1.
         21   -1    0    0  501  502 -0.00000000000E+00 -0.00000000000E+00 -0.32291842902E+03  0.32291842902E+03  0.00000000000E+00 0. -1.
         25    1    1    2    0    0  0.38217189275E+01 -0.17065897044E+03  0.69111867403E+02  0.22257704272E+03  0.12500000000E+03 0.  0.
         25    1    1    2    0    0 -0.10027064415E+03 -0.76285385955E+02 -0.10744512769E+03  0.20746835338E+03  0.12500000000E+03 0.  0.
         25    1    1    2    0    0  0.96448925225E+02  0.24694435640E+03  0.15332482941E+03  0.33078303107E+03  0.12500000000E+03 0.  0.
</event>
<event>
 5    0  0.5452999E-005  0.3018613E+03  0.7546771E-02  0.1084314E+00
         21   -1    0    0  502  501  0.00000000000E+00  0.00000000000E+00  0.10751077393E+04  0.10751077393E+04  0.00000000000E+00 0.  1.
         21   -1    0    0  501  502 -0.00000000000E+00 -0.00000000000E+00 -0.84754531813E+02  0.84754531813E+02  0.00000000000E+00 0.  1.
         25    1    1    2    0    0 -0.20015700529E+03 -0.24877348245E+02  0.22829598751E+03  0.32928068139E+03  0.12500000000E+03 0.  0.
         25    1    1    2    0    0  0.61536024449E+02 -0.52106700430E+01  0.36766779578E+03  0.39321551526E+03  0.12500000000E+03 0.  0.
         25    1    1    2    0    0  0.13862098084E+03  0.30088018288E+02  0.39438942419E+03  0.43736607446E+03  0.12500000000E+03 0.  0.
</event>
<event>
 5    0  0.5452999E-005  0.2359940E+03  0.7546771E-02  0.1122491E+00
         21   -1    0    0  502  501  0.00000000000E+00  0.00000000000E+00  0.19583878173E+03  0.19583878173E+03  0.00000000000E+00 0.  1.
         21   -1    0    0  501  502 -0.00000000000E+00 -0.00000000000E+00 -0.28438262451E+03  0.28438262451E+03  0.00000000000E+00 0.  1.
         25    1    1    2    0    0  0.25823412501E+02 -0.31505757185E+02 -0.32512056515E+02  0.13543077637E+03  0.12500000000E+03 0.  0.
         25    1    1    2    0    0 -0.10609789533E+03  0.67203098936E+01 -0.94481011738E+02  0.18935043580E+03  0.12500000000E+03 0.  0.
         25    1    1    2    0    0  0.80274482832E+02  0.24785447291E+02  0.38449225477E+02  0.15544019407E+03  0.12500000000E+03 0.  0.
</event>
<event>
 5    0  0.5452999E-005  0.3418948E+03  0.7546771E-02  0.1065992E+00
         21   -1    0    0  502  501  0.00000000000E+00  0.00000000000E+00  0.70545175369E+02  0.70545175369E+02  0.00000000000E+00 0.  1.
         21   -1    0    0  501  502 -0.00000000000E+00 -0.00000000000E+00 -0.16569814603E+04  0.16569814603E+04  0.00000000000E+00 0.  1.
         25    1    1    2    0    0 -0.10946516528E+03 -0.61756850639E+02 -0.31482853697E+03  0.36130117451E+03  0.12500000000E+03 0.  0.
         25    1    1    2    0    0  0.11924253441E+03  0.10234382326E+03 -0.11991255847E+04  0.12158207961E+04  0.12500000000E+03 0.  0.
         25    1    1    2    0    0 -0.97773691280E+01 -0.40586972622E+02 -0.72482163200E+02  0.15040466507E+03  0.12500000000E+03 0.  0.
</event>
<event>
 5    0  0.5452999E-005  0.3402222E+03  0.7546771E-02  0.1066701E+00
         21   -1    0    0  502  501  0.00000000000E+00  0.00000000000E+00  0.21529961035E+03  0.21529961035E+03  0.00000000000E+00 0.  1.
         21   -1    0    0  501  502 -0.00000000000E+00 -0.00000000000E+00 -0.53762813039E+03  0.53762813039E+03  0.00000000000E+00 0.  1.
         25    1    1    2    0    0  0.60335728239E+02  0.30105942635E+02 -0.10461924805E+03  0.17639998568E+03  0.12500000000E+03 0.  0.
         25    1    1    2    0    0 -0.21210971861E+03  0.28859497547E+02 -0.26812185835E+03  0.36515439783E+03  0.12500000000E+03 0.  0.
         25    1    1    2    0    0  0.15177399037E+03 -0.58965440183E+02  0.50412586364E+02  0.21137335724E+03  0.12500000000E+03 0.  0.
</event>
<event>
 5    0  0.5603147E-005  0.3489096E+03  0.7546771E-02  0.1063063E+00
         21   -1    0    0  502  501  0.00000000000E+00  0.00000000000E+00  0.45738815777E+03  0.45738815777E+03  0.00000000000E+00 0. -1.
         21   -1    0    0  501  502 -0.00000000000E+00 -0.00000000000E+00 -0.26615886747E+03  0.26615886747E+03  0.00000000000E+00 0. -1.
         25    1    1    2    0    0  0.13496775654E+03  0.64134652721E+02  0.40292493915E+02  0.19894228825E+03  0.12500000000E+03 0.  0.
         25    1    1    2    0    0 -0.36793350597E+02  0.11875489019E+03 -0.76591590526E+02  0.19221796569E+03  0.12500000000E+03 0.  0.
         25    1    1    2    0    0 -0.98174405948E+02 -0.18288954291E+03  0.22752838691E+03  0.33238677131E+03  0.12500000000E+03 0.  0.
</event>
<event>
 5    0  0.5452999E-005  0.2520172E+03  0.7546771E-02  0.1112037E+00
         21   -1    0    0  502  501  0.00000000000E+00  0.00000000000E+00  0.53130808882E+02  0.53130808882E+02  0.00000000000E+00 0.  1.
         21   -1    0    0  501  502 -0.00000000000E+00 -0.00000000000E+00 -0.11954015593E+04  0.11954015593E+04  0.00000000000E+00 0.  1.
         25    1    1    2    0    0  0.70080026016E+02  0.15597098328E+02 -0.36531871061E+03  0.39273049264E+03  0.12500000000E+03 0.  0.
         25    1    1    2    0    0  0.95212985075E+01  0.93665047243E+01 -0.64080606005E+03  0.65302051509E+03  0.12500000000E+03 0.  0.
         25    1    1    2    0    0 -0.79601324524E+02 -0.24963603052E+02 -0.13614597976E+03  0.20278136045E+03  0.12500000000E+03 0.  0.
</event>
<event>
 5    0  0.5452999E-005  0.2830270E+03  0.7546771E-02  0.1094047E+00
         21   -1    0    0  502  501  0.00000000000E+00  0.00000000000E+00  0.30323617538E+02  0.30323617538E+02  0.00000000000E+00 0. -1.
         21   -1    0    0  501  502 -0.00000000000E+00 -0.00000000000E+00 -0.26416459582E+04  0.26416459582E+04  0.00000000000E+00 0. -1.
         25    1    1    2    0    0  0.13042534797E+03  0.19429245251E+02 -0.70710731992E+03  0.73007809778E+03  0.12500000000E+03 0.  0.
         25    1    1    2    0    0  0.28968515371E+02 -0.14232849330E+01 -0.12556889178E+04  0.12622285288E+04  0.12500000000E+03 0.  0.
         25    1    1    2    0    0 -0.15939386334E+03 -0.18005960318E+02 -0.64852610298E+03  0.67966294920E+03  0.12500000000E+03 0.  0.
</event>
<event>
 5    0  0.5452999E-005  0.3173783E+03  0.7546771E-02  0.1076862E+00
         21   -1    0    0  502  501  0.00000000000E+00  0.00000000000E+00  0.10894583786E+03  0.10894583786E+03  0.00000000000E+00 0. -1.
         21   -1    0    0  501  502 -0.00000000000E+00 -0.00000000000E+00 -0.92457860933E+03  0.92457860933E+03  0.00000000000E+00 0. -1.
         25    1    1    2    0    0  0.10302710413E+03 -0.14915635279E+03 -0.15504150670E+03  0.26930479120E+03  0.12500000000E+03 0.  0.
         25    1    1    2    0    0 -0.14954822992E+03  0.12163642383E+03 -0.51995033629E+03  0.56844827810E+03  0.12500000000E+03 0.  0.
         25    1    1    2    0    0  0.46521125789E+02  0.27519928961E+02 -0.14064092848E+03  0.19577137789E+03  0.12500000000E+03 0.  0.
</event>
<event>
 5    0  0.5452999E-005  0.2739587E+03  0.7546771E-02  0.1099035E+00
         21   -1    0    0  502  501  0.00000000000E+00  0.00000000000E+00  0.16840041806E+03  0.16840041806E+03  0.00000000000E+00 0.  1.
         21   -1    0    0  501  502 -0.00000000000E+00 -0.00000000000E+00 -0.44568391782E+03  0.44568391782E+03  0.00000000000E+00 0.  1.
         25    1    1    2    0    0  0.89405228279E+02  0.26002794885E+02 -0.15290601809E+03  0.21834534700E+03  0.12500000000E+03 0.  0.
         25    1    1    2    0    0 -0.45870478321E+02  0.91651372463E+01 -0.19912219843E+03  0.23971389286E+03  0.12500000000E+03 0.  0.
         25    1    1    2    0    0 -0.43534749958E+02 -0.35167932131E+02  0.74744716769E+02  0.15602509602E+03  0.12500000000E+03 0.  0.
</event>
<event>
 5    0  0.5452999E-005  0.2255286E+03  0.7546771E-02  0.1129827E+00
         21   -1    0    0  502  501  0.00000000000E+00  0.00000000000E+00  0.14106997726E+04  0.14106997726E+04  0.00000000000E+00 0. -1.
         21   -1    0    0  501  502 -0.00000000000E+00 -0.00000000000E+00 -0.36055261699E+02  0.36055261699E+02  0.00000000000E+00 0. -1.
         25    1    1    2    0    0 -0.15574582688E+02  0.74690603987E+02  0.54265849478E+03  0.56207161102E+03  0.12500000000E+03 0.  0.
         25    1    1    2    0    0  0.57021028627E+02 -0.85597869326E+02  0.54895363228E+03  0.57232288381E+03  0.12500000000E+03 0.  0.
         25    1    1    2    0    0 -0.41446445939E+02  0.10907265340E+02  0.28303238381E+03  0.31236053945E+03  0.12500000000E+03 0.  0.
</event>
<event>
 5    0  0.5452999E-005  0.6271062E+03  0.7546771E-02  0.9850712E-01
         21   -1    0    0  502  501  0.00000000000E+00  0.00000000000E+00  0.25966173774E+03  0.25966173774E+03  0.00000000000E+00 0. -1.
         21   -1    0    0  501  502 -0.00000000000E+00 -0.00000000000E+00 -0.15145173568E+04  0.15145173568E+04  0.00000000000E+00 0. -1.
         25    1    1    2    0    0  0.24351091896E+03  0.14492064672E+03 -0.59525572587E+03  0.67100964276E+03  0.12500000000E+03 0.  0.
         25    1    1    2    0    0 -0.11852628560E+03  0.19166572754E+03 -0.67516276268E+03  0.72267142438E+03  0.12500000000E+03 0.  0.
         25    1    1    2    0    0 -0.12498463336E+03 -0.33658637427E+03  0.15562869542E+02  0.38049802736E+03  0.12500000000E+03 0.  0.
</event>
<event>
 5    0  0.5452999E-005  0.4942315E+03  0.7546771E-02  0.1015296E+00
         21   -1    0    0  502  501  0.00000000000E+00  0.00000000000E+00  0.38119262733E+03  0.38119262733E+03  0.00000000000E+00 0. -1.
         21   -1    0    0  501  502 -0.00000000000E+00 -0.00000000000E+00 -0.64079103234E+03  0.64079103234E+03  0.00000000000E+00 0. -1.
         25    1    1    2    0    0  0.65754706583E-01  0.25959308284E+03 -0.30028806632E+02  0.28968138050E+03  0.12500000000E+03 0.  0.
         25    1    1    2    0    0  0.64259101094E+01 -0.44797154337E+03 -0.19122465774E+03  0.50290323693E+03  0.12500000000E+03 0.  0.
         25    1    1    2    0    0 -0.64916648160E+01  0.18837846054E+03 -0.38344940649E+02  0.22939904224E+03  0.12500000000E+03 0.  0.
</event>
<event>
 5    0  0.5452999E-005  0.2852577E+03  0.7546771E-02  0.1092851E+00
         21   -1    0    0  502  501  0.00000000000E+00  0.00000000000E+00  0.87211510988E+03  0.87211510988E+03  0.00000000000E+00 0. -1.
         21   -1    0    0  501  502 -0.00000000000E+00 -0.00000000000E+00 -0.93304136682E+02  0.93304136682E+02  0.00000000000E+00 0. -1.
         25    1    1    2    0    0  0.17865518393E+03  0.33146112755E+02  0.16674313559E+03  0.27648618917E+03  0.12500000000E+03 0.  0.
         25    1    1    2    0    0 -0.94221589609E+02 -0.52963078268E+01  0.24115059959E+03  0.28754890107E+03  0.12500000000E+03 0.  0.
         25    1    1    2    0    0 -0.84433594321E+02 -0.27849804928E+02  0.37091723802E+03  0.40138415632E+03  0.12500000000E+03 0.  0.
</event>
<event>
 5    0  0.5452999E-005  0.2568574E+03  0.7546771E-02  0.1109046E+00
         21   -1    0    0  502  501  0.00000000000E+00  0.00000000000E+00  0.36328424221E+03  0.36328424221E+03  0.00000000000E+00 0.  1.
         21   -1    0    0  501  502 -0.00000000000E+00 -0.00000000000E+00 -0.18160910764E+03  0.18160910764E+03  0.00000000000E+00 0.  1.
         25    1    1    2    0    0 -0.37575853752E+02  0.91267627363E+02 -0.31409584421E+02  0.16233695384E+03  0.12500000000E+03 0.  0.
         25    1    1    2    0    0 -0.51527980587E+02 -0.44887401242E+02  0.15861098190E+03  0.21319581411E+03  0.12500000000E+03 0.  0.
         25    1    1    2    0    0  0.89103834339E+02 -0.46380226120E+02  0.54473737086E+02  0.16936058190E+03  0.12500000000E+03 0.  0.
</event>
<event>
 5    0  0.5452999E-005  0.2596741E+03  0.7546771E-02  0.1107339E+00
         21   -1    0    0  502  501  0.00000000000E+00  0.00000000000E+00  0.24033655648E+03  0.24033655648E+03  0.00000000000E+00 0. -1.
         21   -1    0    0  501  502 -0.00000000000E+00 -0.00000000000E+00 -0.28056745711E+03  0.28056745711E+03  0.00000000000E+00 0. -1.
         25    1    1    2    0    0 -0.89980950678E+02  0.84597517885E+02  0.11048475962E+02  0.17606924870E+03  0.12500000000E+03 0.  0.
         25    1    1    2    0    0  0.95757460560E+02 -0.74806583674E+02 -0.11013566496E+03  0.20620470632E+03  0.12500000000E+03 0.  0.
         25    1    1    2    0    0 -0.57765098823E+01 -0.97909342111E+01  0.58856288364E+02  0.13863005857E+03  0.12500000000E+03 0.  0.
</event>
<event>
 5    0  0.5452999E-005  0.2830943E+03  0.7546771E-02  0.1094011E+00
         21   -1    0    0  502  501  0.00000000000E+00  0.00000000000E+00  0.38495710495E+02  0.38495710495E+02  0.00000000000E+00 0.  1.
         21   -1    0    0  501  502 -0.00000000000E+00 -0.00000000000E+00 -0.20818519167E+04  0.20818519167E+04  0.00000000000E+00 0.  1.
         25    1    1    2    0    0 -0.59262816474E+02 -0.42955494484E+02 -0.77406411826E+03  0.78750080324E+03  0.12500000000E+03 0.  0.
         25    1    1    2    0    0  0.12721319969E+03  0.30123313544E+02 -0.28030771624E+03  0.33359860308E+03  0.12500000000E+03 0.  0.
         25    1    1    2    0    0 -0.67950383218E+02  0.12832180939E+02 -0.98898437173E+03  0.99924822091E+03  0.12500000000E+03 0.  0.
</event>
<event>
 5    0  0.5452999E-005  0.2471244E+03  0.7546771E-02  0.1115136E+00
         21   -1    0    0  502  501  0.00000000000E+00  0.00000000000E+00  0.37013147607E+02  0.37013147607E+02  0.00000000000E+00 0.  1.
         21   -1    0    0  501  502 -0.00000000000E+00 -0.00000000000E+00 -0.16499674910E+04  0.16499674910E+04  0.00000000000E+00 0.  1.
         25    1    1    2    0    0 -0.12028926086E+03 -0.54276932933E+02 -0.49725205755E+03  0.52943375456E+03  0.12500000000E+03 0.  0.
         25    1    1    2    0    0  0.17702647131E+02 -0.78720028685E+00 -0.32628564407E+03  0.34985900721E+03  0.12500000000E+03 0.  0.
         25    1    1    2    0    0  0.10258661373E+03  0.55064133220E+02 -0.78941664175E+03  0.80768787681E+03  0.12500000000E+03 0.  0.
</event>
<event>
 5    0  0.5452999E-005  0.4000659E+03  0.7546771E-02  0.1043757E+00
         21   -1    0    0  502  501  0.00000000000E+00  0.00000000000E+00  0.19108086712E+03  0.19108086712E+03  0.00000000000E+00 0. -1.
         21   -1    0    0  501  502 -0.00000000000E+00 -0.00000000000E+00 -0.83761768758E+03  0.83761768758E+03  0.00000000000E+00 0. -1.
         25    1    1    2    0    0 -0.38466648847E+01 -0.18842266254E+03 -0.37838019910E+03  0.44081115192E+03  0.12500000000E+03 0.  0.
         25    1    1    2    0    0 -0.57650058522E+02  0.27250549290E+03 -0.40376489670E+02  0.30795784424E+03  0.12500000000E+03 0.  0.
         25    1    1    2    0    0  0.61496723407E+02 -0.84082830364E+02 -0.22778013170E+03  0.27992955854E+03  0.12500000000E+03 0.  0.
</event>
<event>
 5    0  0.5452999E-005  0.2961913E+03  0.7546771E-02  0.1087160E+00
         21   -1    0    0  502  501  0.00000000000E+00  0.00000000000E+00  0.12896215283E+04  0.12896215283E+04  0.00000000000E+00 0. -1.
         21   -1    0    0  501  502 -0.00000000000E+00 -0.00000000000E+00 -0.68027174421E+02  0.68027174421E+02  0.00000000000E+00 0. -1.
         25    1    1    2    0    0 -0.44510370622E+02  0.18270364840E+03  0.58976215894E+03  0.63151104531E+03  0.12500000000E+03 0.  0.
         25    1    1    2    0    0  0.48651969368E+02 -0.10426498736E+02  0.33368224279E+03  0.35978405350E+03  0.12500000000E+03 0.  0.
         25    1    1    2    0    0 -0.41415987461E+01 -0.17227714966E+03  0.29814995218E+03  0.36635360394E+03  0.12500000000E+03 0.  0.
</event>
<event>
 5    0  0.5452999E-005  0.2574550E+03  0.7546771E-02  0.1108682E+00
         21   -1    0    0  502  501  0.00000000000E+00  0.00000000000E+00  0.26665028744E+03  0.26665028744E+03  0.00000000000E+00 0.  1.
         21   -1    0    0  501  502 -0.00000000000E+00 -0.00000000000E+00 -0.24857671551E+03  0.24857671551E+03  0.00000000000E+00 0.  1.
         25    1    1    2    0    0 -0.27719716071E+02  0.91931008092E+02 -0.12384462369E+02  0.15810777279E+03  0.12500000000E+03 0.  0.
         25    1    1    2    0    0  0.12374443301E+03 -0.53336578489E+02 -0.25284419456E+02  0.18553106795E+03  0.12500000000E+03 0.  0.
         25    1    1    2    0    0 -0.96024716943E+02 -0.38594429603E+02  0.55742453763E+02  0.17158816221E+03  0.12500000000E+03 0.  0.
</event>
<event>
 5    0  0.5452999E-005  0.7062072E+03  0.7546771E-02  0.9706676E-01
         21   -1    0    0  502  501  0.00000000000E+00  0.00000000000E+00  0.31210889955E+03  0.31210889955E+03  0.00000000000E+00 0.  1.
         21   -1    0    0  501  502 -0.00000000000E+00 -0.00000000000E+00 -0.15979312743E+04  0.15979312743E+04  0.00000000000E+00 0.  1.
         25    1    1    2    0    0 -0.25644271142E+03 -0.13147828411E+03 -0.91485210878E+03  0.96727906230E+03  0.12500000000E+03 0.  0.
         25    1    1    2    0    0 -0.13268434955E+03 -0.24869923827E+03 -0.12335317205E+03  0.33211060324E+03  0.12500000000E+03 0.  0.
         25    1    1    2    0    0  0.38912706097E+03  0.38017752238E+03 -0.24761709395E+03  0.61065050832E+03  0.12500000000E+03 0.  0.
</event>
<event>
 5    0  0.5452999E-005  0.3144364E+03  0.7546771E-02  0.1078239E+00
         21   -1    0    0  502  501  0.00000000000E+00  0.00000000000E+00  0.90044033092E+02  0.90044033092E+02  0.00000000000E+00 0.  1.
         21   -1    0    0  501  502 -0.00000000000E+00 -0.00000000000E+00 -0.10980209739E+04  0.10980209739E+04  0.00000000000E+00 0.  1.
         25    1    1    2    0    0 -0.53486844822E+02 -0.13077069329E+03 -0.26122018873E+03  0.32221546175E+03  0.12500000000E+03 0.  0.
         25    1    1    2    0    0  0.17072340931E+02  0.21707105777E+03 -0.29244561578E+03  0.38543578860E+03  0.12500000000E+03 0.  0.
         25    1    1    2    0    0  0.36414503891E+02 -0.86300364481E+02 -0.45431113630E+03  0.48041375664E+03  0.12500000000E+03 0.  0.
</event>
<event>
 5    0  0.5452999E-005  0.2921200E+03  0.7546771E-02  0.1089247E+00
         21   -1    0    0  502  501  0.00000000000E+00  0.00000000000E+00  0.11461704367E+04  0.11461704367E+04  0.00000000000E+00 0.  1.
         21   -1    0    0  501  502 -0.00000000000E+00 -0.00000000000E+00 -0.74451467525E+02  0.74451467525E+02  0.00000000000E+00 0.  1.
         25    1    1    2    0    0 -0.45162420858E+02 -0.46328247707E+02  0.31443603404E+03  0.34450104542E+03  0.12500000000E+03 0.  0.
         25    1    1    2    0    0  0.61562786753E+02  0.55237474267E+02  0.50558576194E+02  0.15818446480E+03  0.12500000000E+03 0.  0.
         25    1    1    2    0    0 -0.16400365895E+02 -0.89092265599E+01  0.70672435893E+03  0.71793639400E+03  0.12500000000E+03 0.  0.
</event>
<event>
 5    0  0.5452999E-005  0.2835635E+03  0.7546771E-02  0.1093758E+00
         21   -1    0    0  502  501  0.00000000000E+00  0.00000000000E+00  0.33632229249E+02  0.33632229249E+02  0.00000000000E+00 0. -1.
         21   -1    0    0  501  502 -0.00000000000E+00 -0.00000000000E+00 -0.23908103695E+04  0.23908103695E+04  0.00000000000E+00 0. -1.
         25    1    1    2    0    0 -0.99085288280E+01 -0.25473343578E+02 -0.18188850740E+03  0.22238592424E+03  0.12500000000E+03 0.  0.
         25    1    1    2    0    0 -0.86233297039E+02  0.56261863047E+02 -0.72351880101E+03  0.74142163049E+03  0.12500000000E+03 0.  0.
         25    1    1    2    0    0  0.96141825867E+02 -0.30788519469E+02 -0.14517708319E+04  0.14606350441E+04  0.12500000000E+03 0.  0.
</event>
<event>
 5    0  0.5452999E-005  0.3866493E+03  0.7546771E-02  0.1048503E+00
         21   -1    0    0  502  501  0.00000000000E+00  0.00000000000E+00  0.29374481343E+03  0.29374481343E+03  0.00000000000E+00 0. -1.
         21   -1    0    0  501  502 -0.00000000000E+00 -0.00000000000E+00 -0.50893730640E+03  0.50893730640E+03  0.00000000000E+00 0. -1.
         25    1    1    2    0    0  0.30556847764E+02  0.11630322936E+03 -0.23503953647E+02  0.17503599042E+03  0.12500000000E+03 0.  0.
         25    1    1    2    0    0 -0.23235871519E+03 -0.20431388972E+03 -0.16732741503E+03  0.37330711469E+03  0.12500000000E+03 0.  0.
         25    1    1    2    0    0  0.20180186742E+03  0.88010660367E+02 -0.24361124293E+02  0.25433901472E+03  0.12500000000E+03 0.  0.
</event>
<event>
 5    0  0.5452999E-005  0.3680638E+03  0.7546771E-02  0.1055436E+00
         21   -1    0    0  502  501  0.00000000000E+00  0.00000000000E+00  0.28079021606E+03  0.28079021606E+03  0.00000000000E+00 0.  1.
         21   -1    0    0  501  502 -0.00000000000E+00 -0.00000000000E+00 -0.48246335810E+03  0.48246335810E+03  0.00000000000E+00 0.  1.
         25    1    1    2    0    0 -0.19672538075E+03  0.17748681029E+03 -0.10244696741E+03  0.31035918610E+03  0.12500000000E+03 0.  0.
         25    1    1    2    0    0 -0.25736952158E+02 -0.79647855496E+00 -0.56568779183E+02  0.13959961269E+03  0.12500000000E+03 0.  0.
         25    1    1    2    0    0  0.22246233291E+03 -0.17669033174E+03 -0.42657395442E+02  0.31329477538E+03  0.12500000000E+03 0.  0.
</event>
<event>
 5    0  0.5627331E-005  0.2975274E+03  0.7546771E-02  0.1086483E+00
         21   -1    0    0  502  501  0.00000000000E+00  0.00000000000E+00  0.16768113899E+03  0.16768113899E+03  0.00000000000E+00 0. -1.
         21   -1    0    0  501  502 -0.00000000000E+00 -0.00000000000E+00 -0.52792178407E+03  0.52792178407E+03  0.00000000000E+00 0. -1.
         25    1    1    2    0    0  0.60477647634E+02  0.89873155401E+02 -0.15135926316E+03  0.22420828814E+03  0.12500000000E+03 0.  0.
         25    1    1    2    0    0 -0.10074041168E+03 -0.17051045325E+03 -0.21394455840E+03  0.31720611482E+03  0.12500000000E+03 0.  0.
         25    1    1    2    0    0  0.40262764050E+02  0.80637297852E+02  0.50631764722E+01  0.15418852010E+03  0.12500000000E+03 0.  0.
</event>
<event>
 5    0  0.5799913E-005  0.4257368E+03  0.7546771E-02  0.1035215E+00
         21   -1    0    0  502  501  0.00000000000E+00  0.00000000000E+00  0.81417003853E+03  0.81417003853E+03  0.00000000000E+00 0.  1.
         21   -1    0    0  501  502 -0.00000000000E+00 -0.00000000000E+00 -0.22262155228E+03  0.22262155228E+03  0.00000000000E+00 0.  1.
         25    1    1    2    0    0  0.17312102620E+03 -0.37564542143E+02  0.13688650322E+03  0.25640768183E+03  0.12500000000E+03 0.  0.
         25    1    1    2    0    0 -0.25705980928E+03 -0.62823078736E+02  0.17620360766E+01  0.29266805350E+03  0.12500000000E+03 0.  0.
         25    1    1    2    0    0  0.83938783083E+02  0.10038762088E+03  0.45289994695E+03  0.48771585547E+03  0.12500000000E+03 0.  0.
</event>
<event>
 5    0  0.5452999E-005  0.3129791E+03  0.7546771E-02  0.1078927E+00
         21   -1    0    0  502  501  0.00000000000E+00  0.00000000000E+00  0.47257553599E+02  0.47257553599E+02  0.00000000000E+00 0.  1.
         21   -1    0    0  501  502 -0.00000000000E+00 -0.00000000000E+00 -0.20728097103E+04  0.20728097103E+04  0.00000000000E+00 0.  1.
         25    1    1    2    0    0  0.16560229732E+02  0.50504554336E+01 -0.35864440025E+03  0.38019804595E+03  0.12500000000E+03 0.  0.
         25    1    1    2    0    0 -0.87924831357E+02 -0.99933740547E+02 -0.23491239465E+03  0.29753379914E+03  0.12500000000E+03 0.  0.
         25    1    1    2    0    0  0.71364601625E+02  0.94883285114E+02 -0.14319953618E+04  0.14423354188E+04  0.12500000000E+03 0.  0.
</event>
<event>
 5    0  0.5452999E-005  0.3836882E+03  0.7546771E-02  0.1049579E+00
         21   -1    0    0  502  501  0.00000000000E+00  0.00000000000E+00  0.73981845774E+02  0.73981845774E+02  0.00000000000E+00 0.  1.
         21   -1    0    0  501  502 -0.00000000000E+00 -0.00000000000E+00 -0.19899019805E+04  0.19899019805E+04  0.00000000000E+00 0.  1.
         25    1    1    2    0    0  0.14957281910E+03  0.18687059348E+03 -0.59243106948E+03  0.65107005691E+03  0.12500000000E+03 0.  0.
         25    1    1    2    0    0 -0.37256666200E+02 -0.23425919228E+03 -0.46512865269E+03  0.53687530386E+03  0.12500000000E+03 0.  0.
         25    1    1    2    0    0 -0.11231615289E+03  0.47388598806E+02 -0.85836041255E+03  0.87593846550E+03  0.12500000000E+03 0.  0.
</event>
<event>
 5    0  0.5452999E-005  0.2510361E+03  0.7546771E-02  0.1112652E+00
         21   -1    0    0  502  501  0.00000000000E+00  0.00000000000E+00  0.34980256033E+03  0.34980256033E+03  0.00000000000E+00 0.  1.
         21   -1    0    0  501  502 -0.00000000000E+00 -0.00000000000E+00 -0.18015622604E+03  0.18015622604E+03  0.00000000000E+00 0.  1.
         25    1    1    2    0    0  0.56512840975E+02  0.27782949763E+02  0.70651743524E+02  0.15678731567E+03  0.12500000000E+03 0.  0.
         25    1    1    2    0    0  0.75964793345E+02 -0.29528403202E+02 -0.27061715472E+02  0.15165722161E+03  0.12500000000E+03 0.  0.
         25    1    1    2    0    0 -0.13247763432E+03  0.17454534396E+01  0.12605630624E+03  0.22151424908E+03  0.12500000000E+03 0.  0.
</event>
<event>
 5    0  0.5452999E-005  0.3430260E+03  0.7546771E-02  0.1065514E+00
         21   -1    0    0  502  501  0.00000000000E+00  0.00000000000E+00  0.17694893324E+03  0.17694893324E+03  0.00000000000E+00 0. -1.
         21   -1    0    0  501  502 -0.00000000000E+00 -0.00000000000E+00 -0.66497617463E+03  0.66497617463E+03  0.00000000000E+00 0. -1.
         25    1    1    2    0    0 -0.88813852018E+02  0.18749835306E+02 -0.45856738618E+03  0.48388893798E+03  0.12500000000E+03 0.  0.
         25    1    1    2    0    0  0.12225278902E+03  0.15514776566E+02  0.72354518703E+02  0.18985949829E+03  0.12500000000E+03 0.  0.
         25    1    1    2    0    0 -0.33438937003E+02 -0.34264611873E+02 -0.10181437391E+03  0.16817667160E+03  0.12500000000E+03 0.  0.
</event>
<event>
 5    0  0.5452999E-005  0.3461476E+03  0.7546771E-02  0.1064207E+00
         21   -1    0    0  502  501  0.00000000000E+00  0.00000000000E+00  0.67658596838E+03  0.67658596838E+03  0.00000000000E+00 0. -1.
         21   -1    0    0  501  502 -0.00000000000E+00 -0.00000000000E+00 -0.17709225464E+03  0.17709225464E+03  0.00000000000E+00 0. -1.
         25    1    1    2    0    0 -0.74968503658E+01  0.12597375450E+02  0.32072464024E+01  0.12589751015E+03  0.12500000000E+03 0.  0.
         25    1    1    2    0    0  0.21697302885E+03  0.72750476241E+02  0.16889264522E+03  0.31067612179E+03  0.12500000000E+03 0.  0.
         25    1    1    2    0    0 -0.20947617848E+03 -0.85347851691E+02  0.32739382211E+03  0.41710459108E+03  0.12500000000E+03 0.  0.
</event>
<event>
 5    0  0.5452999E-005  0.3077444E+03  0.7546771E-02  0.1081432E+00
         21   -1    0    0  502  501  0.00000000000E+00  0.00000000000E+00  0.65046161520E+02  0.65046161520E+02  0.00000000000E+00 0.  1.
         21   -1    0    0  501  502 -0.00000000000E+00 -0.00000000000E+00 -0.14559911067E+04  0.14559911067E+04  0.00000000000E+00 0.  1.
         25    1    1    2    0    0 -0.12025089487E+03 -0.11577222779E+02 -0.12507116248E+03  0.21415439638E+03  0.12500000000E+03 0.  0.
         25    1    1    2    0    0 -0.16762925710E+02 -0.24946673383E+02 -0.38306306609E+03  0.40406143690E+03  0.12500000000E+03 0.  0.
         25    1    1    2    0    0  0.13701382058E+03  0.36523896162E+02 -0.88281071661E+03  0.90282143493E+03  0.12500000000E+03 0.  0.
</event>
<event>
 5    0  0.5882821E-005  0.2643820E+03  0.7546771E-02  0.1104539E+00
         21   -1    0    0  502  501  0.00000000000E+00  0.00000000000E+00  0.52506300876E+03  0.52506300876E+03  0.00000000000E+00 0. -1.
         21   -1    0    0  501  502 -0.00000000000E+00 -0.00000000000E+00 -0.13312275009E+03  0.13312275009E+03  0.00000000000E+00 0. -1.
         25    1    1    2    0    0  0.33235570312E+02 -0.11852067560E+03  0.16856349690E+03  0.24329078521E+03  0.12500000000E+03 0.  0.
         25    1    1    2    0    0  0.20405957681E+02  0.27902837110E+02  0.21518452032E+03  0.25124559541E+03  0.12500000000E+03 0.  0.
         25    1    1    2    0    0 -0.53641527993E+02  0.90617838488E+02  0.81922414524E+01  0.16364937824E+03  0.12500000000E+03 0.  0.
</event>
<event>
 5    0  0.5709159E-005  0.3522378E+03  0.7546771E-02  0.1061700E+00
         21   -1    0    0  502  501  0.00000000000E+00  0.00000000000E+00  0.36308823624E+03  0.36308823624E+03  0.00000000000E+00 0.  1.
         21   -1    0    0  501  502 -0.00000000000E+00 -0.00000000000E+00 -0.34171156500E+03  0.34171156500E+03  0.00000000000E+00 0.  1.
         25    1    1    2    0    0  0.13031510380E+03 -0.61049274432E+02  0.16924822073E+03  0.25490978877E+03  0.12500000000E+03 0.  0.
         25    1    1    2    0    0 -0.50048812062E+02  0.18271726001E+03 -0.42683967204E+02  0.23094891589E+03  0.12500000000E+03 0.  0.
         25    1    1    2    0    0 -0.80266291740E+02 -0.12166798558E+03 -0.10518758229E+03  0.21894109658E+03  0.12500000000E+03 0.  0.
</event>
<event>
 5    0  0.5452999E-005  0.2967630E+03  0.7546771E-02  0.1086870E+00
         21   -1    0    0  502  501  0.00000000000E+00  0.00000000000E+00  0.23323959848E+03  0.23323959848E+03  0.00000000000E+00 0.  1.
         21   -1    0    0  501  502 -0.00000000000E+00 -0.00000000000E+00 -0.37758713075E+03  0.37758713075E+03  0.00000000000E+00 0.  1.
         25    1    1    2    0    0  0.62032525894E+02 -0.63041078693E+02 -0.20244011149E+03  0.25382909725E+03  0.12500000000E+03 0.  0.
         25    1    1    2    0    0  0.59929887807E+02 -0.18049714075E+02 -0.33531691943E+02  0.14375937533E+03  0.12500000000E+03 0.  0.
         25    1    1    2    0    0 -0.12196241370E+03  0.81090792768E+02  0.91624271166E+02  0.21323825664E+03  0.12500000000E+03 0.  0.
</event>
<event>
 5    0  0.5452999E-005  0.2919759E+03  0.7546771E-02  0.1089322E+00
         21   -1    0    0  502  501  0.00000000000E+00  0.00000000000E+00  0.15645207103E+04  0.15645207103E+04  0.00000000000E+00 0.  1.
         21   -1    0    0  501  502 -0.00000000000E+00 -0.00000000000E+00 -0.54489485862E+02  0.54489485862E+02  0.00000000000E+00 0.  1.
         25    1    1    2    0    0  0.19803953090E+03  0.42543579774E+01  0.75660179415E+03  0.79202842769E+03  0.12500000000E+03 0.  0.
         25    1    1    2    0    0 -0.33500734372E+02 -0.28339717797E+02  0.27304220780E+03  0.30348391399E+03  0.12500000000E+03 0.  0.
         25    1    1    2    0    0 -0.16453879653E+03  0.24085359819E+02  0.48038722250E+03  0.52349785450E+03  0.12500000000E+03 0.  0.
</event>
<event>
 5    0  0.5452999E-005  0.4011339E+03  0.7546771E-02  0.1043388E+00
         21   -1    0    0  502  501  0.00000000000E+00  0.00000000000E+00  0.99180897533E+02  0.99180897533E+02  0.00000000000E+00 0. -1.
         21   -1    0    0  501  502 -0.00000000000E+00 -0.00000000000E+00 -0.16223727406E+04  0.16223727406E+04  0.00000000000E+00 0. -1.
         25    1    1    2    0    0 -0.93382349762E+02 -0.89680024354E+02 -0.95720097392E+02  0.20383843372E+03  0.12500000000E+03 0.  0.
         25    1    1    2    0    0 -0.12939441314E+03  0.93578655568E+02 -0.99469252431E+03  0.10151542232E+04  0.12500000000E+03 0.  0.
         25    1    1    2    0    0  0.22277676291E+03 -0.38986312141E+01 -0.43277922139E+03  0.50256098126E+03  0.12500000000E+03 0.  0.
</event>
<event>
 5    0  0.5452999E-005  0.2716372E+03  0.7546771E-02  0.1100346E+00
         21   -1    0    0  502  501  0.00000000000E+00  0.00000000000E+00  0.26666112331E+03  0.26666112331E+03  0.00000000000E+00 0.  1.
         21   -1    0    0  501  502 -0.00000000000E+00 -0.00000000000E+00 -0.27670610376E+03  0.27670610376E+03  0.00000000000E+00 0.  1.
         25    1    1    2    0    0  0.87451707884E+02 -0.84269468302E+02 -0.49545369711E+02  0.18118743930E+03  0.12500000000E+03 0.  0.
         25    1    1    2    0    0  0.68686739850E+01  0.18031210714E+02 -0.84176077880E+02  0.15193062670E+03  0.12500000000E+03 0.  0.
         25    1    1    2    0    0 -0.94320381869E+02  0.66238257588E+02  0.12367646714E+03  0.21024916107E+03  0.12500000000E+03 0.  0.
</event>
<event>
 5    0  0.5452999E-005  0.5130412E+03  0.7546771E-02  0.1010430E+00
         21   -1    0    0  502  501  0.00000000000E+00  0.00000000000E+00  0.42555711498E+03  0.42555711498E+03  0.00000000000E+00 0. -1.
         21   -1    0    0  501  502 -0.00000000000E+00 -0.00000000000E+00 -0.61850993987E+03  0.61850993987E+03  0.00000000000E+00 0. -1.
         25    1    1    2    0    0  0.24095474539E+03 -0.16836814624E+03 -0.42799563796E+03  0.53405270162E+03  0.12500000000E+03 0.  0.
         25    1    1    2    0    0 -0.18143477511E+03 -0.16868111609E+02  0.12552368010E+03  0.25413442324E+03  0.12500000000E+03 0.  0.
         25    1    1    2    0    0 -0.59519970280E+02  0.18523625785E+03  0.10951913298E+03  0.25587993000E+03  0.12500000000E+03 0.  0.
</event>
<event>
 5    0  0.5452999E-005  0.3234311E+03  0.7546771E-02  0.1074081E+00
         21   -1    0    0  502  501  0.00000000000E+00  0.00000000000E+00  0.96033253521E+02  0.96033253521E+02  0.00000000000E+00 0. -1.
         21   -1    0    0  501  502 -0.00000000000E+00 -0.00000000000E+00 -0.10892857325E+04  0.10892857325E+04  0.00000000000E+00 0. -1.
         25    1    1    2    0    0 -0.17010993786E+03  0.92148168970E+02 -0.31917932326E+03  0.39361036114E+03  0.12500000000E+03 0.  0.
         25    1    1    2    0    0  0.65735130227E+02  0.77362651712E+02 -0.39665677963E+03  0.42809775526E+03  0.12500000000E+03 0.  0.
         25    1    1    2    0    0  0.10437480763E+03 -0.16951082068E+03 -0.27741637614E+03  0.36361086967E+03  0.12500000000E+03 0.  0.
</event>
<event>
 5    0  0.5452999E-005  0.2378494E+03  0.7546771E-02  0.1121234E+00
         21   -1    0    0  502  501  0.00000000000E+00  0.00000000000E+00  0.70079147106E+03  0.70079147106E+03  0.00000000000E+00 0.  1.
         21   -1    0    0  501  502 -0.00000000000E+00 -0.00000000000E+00 -0.80726373087E+02  0.80726373087E+02  0.00000000000E+00 0.  1.
         25    1    1    2    0    0  0.20070278145E+02 -0.30709676012E+02  0.49207918004E+02  0.13925630851E+03  0.12500000000E+03 0.  0.
         25    1    1    2    0    0 -0.71337661340E+01  0.72825315239E+02  0.40394616194E+03  0.42912925664E+03  0.12500000000E+03 0.  0.
         25    1    1    2    0    0 -0.12936512011E+02 -0.42115639227E+02  0.16691101803E+03  0.21313227899E+03  0.12500000000E+03 0.  0.
</event>
<event>
 5    0  0.5452999E-005  0.5313486E+03  0.7546771E-02  0.1005906E+00
         21   -1    0    0  502  501  0.00000000000E+00  0.00000000000E+00  0.12514051281E+04  0.12514051281E+04  0.00000000000E+00 0.  1.
         21   -1    0    0  501  502 -0.00000000000E+00 -0.00000000000E+00 -0.22561148873E+03  0.22561148873E+03  0.00000000000E+00 0.  1.
         25    1    1    2    0    0  0.10760903119E+03 -0.49357033195E+02  0.36034882970E+03  0.39936461959E+03  0.12500000000E+03 0.  0.
         25    1    1    2    0    0  0.11729043242E+03 -0.33365819397E+03  0.38584588566E+03  0.53813277490E+03  0.12500000000E+03 0.  0.
         25    1    1    2    0    0 -0.22489946361E+03  0.38301522716E+03  0.27959892403E+03  0.53951922235E+03  0.12500000000E+03 0.  0.
</event>
<event>
 5    0  0.5452999E-005  0.2367861E+03  0.7546771E-02  0.1121953E+00
         21   -1    0    0  502  501  0.00000000000E+00  0.00000000000E+00  0.27635054125E+03  0.27635054125E+03  0.00000000000E+00 0.  1.
         21   -1    0    0  501  502 -0.00000000000E+00 -0.00000000000E+00 -0.20288594440E+03  0.20288594440E+03  0.00000000000E+00 0.  1.
         25    1    1    2    0    0 -0.60934460343E+01 -0.16717584712E+02 -0.99703261362E+02  0.16087991810E+03  0.12500000000E+03 0.  0.
         25    1    1    2    0    0  0.78449386150E+01  0.17195294749E+02  0.14078798088E+03  0.18921806675E+03  0.12500000000E+03 0.  0.
         25    1    1    2    0    0 -0.17514925807E+01 -0.47771003748E+00  0.32379877335E+02  0.12913850080E+03  0.12500000000E+03 0.  0.
</event>
<event>
 5    0  0.5769093E-005  0.2926084E+03  0.7546771E-02  0.1088995E+00
         21   -1    0    0  502  501  0.00000000000E+00  0.00000000000E+00  0.31427203677E+03  0.31427203677E+03  0.00000000000E+00 0.  1.
         21   -1    0    0  501  502 -0.00000000000E+00 -0.00000000000E+00 -0.27243804559E+03  0.27243804559E+03  0.00000000000E+00 0.  1.
         25    1    1    2    0    0  0.10082923382E+03  0.17340557697E+03  0.70000859119E+02  0.24649776631E+03  0.12500000000E+03 0.  0.
         25    1    1    2    0    0 -0.21861199998E+02 -0.13482716229E+03 -0.28975439337E+02  0.18740558114E+03  0.12500000000E+03 0.  0.
         25    1    1    2    0    0 -0.78968033823E+02 -0.38578414678E+02  0.80857139690E+00  0.15280673491E+03  0.12500000000E+03 0.  0.
</event>
<event>
 5    0  0.5452999E-005  0.4307706E+03  0.7546771E-02  0.1033617E+00
         21   -1    0    0  502  501  0.00000000000E+00  0.00000000000E+00  0.31373344950E+03  0.31373344950E+03  0.00000000000E+00 0.  1.
         21   -1    0    0  501  502 -0.00000000000E+00 -0.00000000000E+00 -0.59146790970E+03  0.59146790970E+03  0.00000000000E+00 0. -1.
         25    1    1    2    0    0 -0.69183125380E+02  0.22033212302E+03 -0.16875210339E+03  0.31214551361E+03  0.12500000000E+03 0.  0.
         25    1    1    2    0    0  0.17605450875E+03 -0.32341092757E+03 -0.73148941697E+02  0.39568369413E+03  0.12500000000E+03 0.  0.
         25    1    1    2    0    0 -0.10687138337E+03  0.10307880456E+03 -0.35833415109E+02  0.19737215146E+03  0.12500000000E+03 0.  0.
</event>
<event>
 5    0  0.5452999E-005  0.4124605E+03  0.7546771E-02  0.1039548E+00
         21   -1    0    0  502  501  0.00000000000E+00  0.00000000000E+00  0.15682228391E+03  0.15682228391E+03  0.00000000000E+00 0.  1.
         21   -1    0    0  501  502 -0.00000000000E+00 -0.00000000000E+00 -0.10848179829E+04  0.10848179829E+04  0.00000000000E+00 0.  1.
         25    1    1    2    0    0  0.89560613908E+02 -0.83193209412E+02 -0.36741702392E+03  0.40689370003E+03  0.12500000000E+03 0.  0.
         25    1    1    2    0    0  0.89137158698E+02 -0.33034928921E+02  0.58958532056E+02  0.16774339955E+03  0.12500000000E+03 0.  0.
         25    1    1    2    0    0 -0.17869777261E+03  0.11622813833E+03 -0.61953720710E+03  0.66700316721E+03  0.12500000000E+03 0.  0.
</event>
<event>
 5    0  0.5452999E-005  0.3006758E+03  0.7546771E-02  0.1084903E+00
         21   -1    0    0  502  501  0.00000000000E+00  0.00000000000E+00  0.20263908870E+03  0.20263908870E+03  0.00000000000E+00 0.  1.
         21   -1    0    0  501  502 -0.00000000000E+00 -0.00000000000E+00 -0.44614270332E+03  0.44614270332E+03  0.00000000000E+00 0.  1.
         25    1    1    2    0    0  0.15920215402E+03  0.48814632883E+02 -0.24882505186E+03  0.32444891842E+03  0.12500000000E+03 0.  0.
         25    1    1    2    0    0 -0.11156353237E+03 -0.62423512485E+02  0.44557355168E+02  0.18426468616E+03  0.12500000000E+03 0.  0.
         25    1    1    2    0    0 -0.47638621657E+02  0.13608879601E+02 -0.39235917928E+02  0.14006818744E+03  0.12500000000E+03 0.  0.
</event>
<event>
 5    0  0.5452999E-005  0.3452136E+03  0.7546771E-02  0.1064597E+00
         21   -1    0    0  502  501  0.00000000000E+00  0.00000000000E+00  0.35475708464E+03  0.35475708464E+03  0.00000000000E+00 0.  1.
         21   -1    0    0  501  502 -0.00000000000E+00 -0.00000000000E+00 -0.33592677710E+03  0.33592677710E+03  0.00000000000E+00 0.  1.
         25    1    1    2    0    0  0.58035520989E+02 -0.10459963710E+03  0.11358852740E+03  0.20696994790E+03  0.12500000000E+03 0.  0.
         25    1    1    2    0    0 -0.30612118960E+02 -0.21682233127E+02 -0.22609846361E+03  0.26106079045E+03  0.12500000000E+03 0.  0.
         25    1    1    2    0    0 -0.27423402029E+02  0.12628187023E+03  0.13134024375E+03  0.22265312339E+03  0.12500000000E+03 0.  0.
</event>
<event>
 5    0  0.5452999E-005  0.4484918E+03  0.7546771E-02  0.1028173E+00
         21   -1    0    0  502  501  0.00000000000E+00  0.00000000000E+00  0.13292635515E+03  0.13292635515E+03  0.00000000000E+00 0.  1.
         21   -1    0    0  501  502 -0.00000000000E+00 -0.00000000000E+00 -0.15132052818E+04  0.15132052818E+04  0.00000000000E+00 0.  1.
         25    1    1    2    0    0 -0.99811351334E+02 -0.25840076139E+02 -0.33506139531E+03  0.37218430114E+03  0.12500000000E+03 0.  0.
         25    1    1    2    0    0 -0.14726376735E+03  0.26309024154E+03 -0.69754035228E+03  0.77012377929E+03  0.12500000000E+03 0.  0.
         25    1    1    2    0    0  0.24707511868E+03 -0.23725016540E+03 -0.34767717902E+03  0.50382355648E+03  0.12500000000E+03 0.  0.
</event>
<event>
 5    0  0.5452999E-005  0.3508759E+03  0.7546771E-02  0.1062256E+00
         21   -1    0    0  502  501  0.00000000000E+00  0.00000000000E+00  0.89989433401E+03  0.89989433401E+03  0.00000000000E+00 0. -1.
         21   -1    0    0  501  502 -0.00000000000E+00 -0.00000000000E+00 -0.13680930866E+03  0.13680930866E+03  0.00000000000E+00 0. -1.
         25    1    1    2    0    0  0.12020116058E+02 -0.17085189176E+03  0.45255419858E+03  0.49976509959E+03  0.12500000000E+03 0.  0.
         25    1    1    2    0    0  0.12125701599E+03 -0.13084044919E+02  0.16161208349E+03  0.23794520732E+03  0.12500000000E+03 0.  0.
         25    1    1    2    0    0 -0.13327713205E+03  0.18393593668E+03  0.14891874328E+03  0.29899333576E+03  0.12500000000E+03 0.  0.
</event>
<event>
 5    0  0.5452999E-005  0.2246144E+03  0.7546771E-02  0.1130489E+00
         21   -1    0    0  502  501  0.00000000000E+00  0.00000000000E+00  0.44453130153E+03  0.44453130153E+03  0.00000000000E+00 0. -1.
         21   -1    0    0  501  502 -0.00000000000E+00 -0.00000000000E+00 -0.11349400634E+03  0.11349400634E+03  0.00000000000E+00 0. -1.
         25    1    1    2    0    0  0.10893293830E+02 -0.23685084251E+02  0.24419092141E+02  0.13000361198E+03  0.12500000000E+03 0.  0.
         25    1    1    2    0    0  0.18171311123E+00 -0.42883772006E+02  0.63899355739E+02  0.14678957247E+03  0.12500000000E+03 0.  0.
         25    1    1    2    0    0 -0.11075006942E+02  0.66568856257E+02  0.24271884731E+03  0.28123212342E+03  0.12500000000E+03 0.  0.
</event>
<event>
 5    0  0.5452999E-005  0.4403493E+03  0.7546771E-02  0.1030640E+00
         21   -1    0    0  502  501  0.00000000000E+00  0.00000000000E+00  0.25120700416E+04  0.25120700416E+04  0.00000000000E+00 0.  1.
         21   -1    0    0  501  502 -0.00000000000E+00 -0.00000000000E+00 -0.77190314735E+02  0.77190314735E+02  0.00000000000E+00 0.  1.
         25    1    1    2    0    0  0.41415082259E+02  0.15187898747E+03  0.17722304744E+04  0.17835942056E+04  0.12500000000E+03 0.  0.
         25    1    1    2    0    0  0.81161394517E+02 -0.17397056471E+02  0.56103634761E+02  0.16019502916E+03  0.12500000000E+03 0.  0.
         25    1    1    2    0    0 -0.12257647678E+03 -0.13448193100E+03  0.60654561766E+03  0.64547112153E+03  0.12500000000E+03 0.  0.
</event>
<event>
 5    0  0.5452999E-005  0.4850091E+03  0.7546771E-02  0.1017768E+00
         21   -1    0    0  502  501  0.00000000000E+00  0.00000000000E+00  0.41753349361E+03  0.41753349361E+03  0.00000000000E+00 0. -1.
         21   -1    0    0  501  502 -0.00000000000E+00 -0.00000000000E+00 -0.56338918270E+03  0.56338918270E+03  0.00000000000E+00 0. -1.
         25    1    1    2    0    0 -0.96236723762E+02 -0.32799618838E+03 -0.32090765234E+03  0.48523162296E+03  0.12500000000E+03 0.  0.
         25    1    1    2    0    0  0.14204977680E+03  0.21562600409E+03  0.13438853204E+03  0.31679329266E+03  0.12500000000E+03 0.  0.
         25    1    1    2    0    0 -0.45813053039E+02  0.11237018429E+03  0.40663431205E+02  0.17889776070E+03  0.12500000000E+03 0.  0.
</event>
<event>
 5    0  0.5452999E-005  0.2412448E+03  0.7546771E-02  0.1118966E+00
         21   -1    0    0  502  501  0.00000000000E+00  0.00000000000E+00  0.48089297325E+02  0.48089297325E+02  0.00000000000E+00 0. -1.
         21   -1    0    0  501  502 -0.00000000000E+00 -0.00000000000E+00 -0.12102291399E+04  0.12102291399E+04  0.00000000000E+00 0. -1.
         25    1    1    2    0    0 -0.16855107030E+02  0.33134773412E+02 -0.24191396660E+03  0.27482608151E+03  0.12500000000E+03 0.  0.
         25    1    1    2    0    0 -0.99341367789E+02 -0.56543041252E+02 -0.54276292917E+03  0.56857929979E+03  0.12500000000E+03 0.  0.
         25    1    1    2    0    0  0.11619647482E+03  0.23408267840E+02 -0.37746294676E+03  0.41491305588E+03  0.12500000000E+03 0.  0.
</event>
<event>
 5    0  0.5452999E-005  0.5707036E+03  0.7546771E-02  0.9968123E-01
         21   -1    0    0  502  501  0.00000000000E+00  0.00000000000E+00  0.95002157922E+03  0.95002157922E+03  0.00000000000E+00 0.  1.
         21   -1    0    0  501  502 -0.00000000000E+00 -0.00000000000E+00 -0.34283700188E+03  0.34283700188E+03  0.00000000000E+00 0.  1.
         25    1    1    2    0    0 -0.30368511646E+03 -0.91170764938E+02  0.69384315020E+02  0.34781595925E+03  0.12500000000E+03 0.  0.
         25    1    1    2    0    0  0.42962146863E+02  0.30306939926E+02 -0.14652826502E+03  0.19964916509E+03  0.12500000000E+03 0.  0.
         25    1    1    2    0    0  0.26072296959E+03  0.60863825012E+02  0.68432852733E+03  0.74539345677E+03  0.12500000000E+03 0.  0.
</event>
<event>
 5    0  0.5452999E-005  0.3624676E+03  0.7546771E-02  0.1057611E+00
         21   -1    0    0  502  501  0.00000000000E+00  0.00000000000E+00  0.24521698275E+03  0.24521698275E+03  0.00000000000E+00 0. -1.
         21   -1    0    0  501  502 -0.00000000000E+00 -0.00000000000E+00 -0.53578176839E+03  0.53578176839E+03  0.00000000000E+00 0. -1.
         25    1    1    2    0    0  0.22413148153E+03  0.72155554348E+02 -0.22134604673E+02  0.26750006685E+03  0.12500000000E+03 0.  0.
         25    1    1    2    0    0 -0.12427511786E+03  0.99047936317E+02 -0.10512018449E+03  0.22788166182E+03  0.12500000000E+03 0.  0.
         25    1    1    2    0    0 -0.99856363678E+02 -0.17120349066E+03 -0.16330999648E+03  0.28561702249E+03  0.12500000000E+03 0.  0.
</event>
<event>
 5    0  0.5452999E-005  0.2223170E+03  0.7546771E-02  0.1132167E+00
         21   -1    0    0  502  501  0.00000000000E+00  0.00000000000E+00  0.17912280432E+04  0.17912280432E+04  0.00000000000E+00 0. -1.
         21   -1    0    0  501  502 -0.00000000000E+00 -0.00000000000E+00 -0.27592719077E+02  0.27592719077E+02  0.00000000000E+00 0. -1.
         25    1    1    2    0    0 -0.40209549680E+02 -0.38463013586E+02  0.35166886422E+03  0.37734891196E+03  0.12500000000E+03 0.  0.
         25    1    1    2    0    0  0.69933649599E+02  0.20834039283E+02  0.97437745667E+03  0.98506913494E+03  0.12500000000E+03 0.  0.
         25    1    1    2    0    0 -0.29724099920E+02  0.17628974302E+02  0.43758900325E+03  0.45640271539E+03  0.12500000000E+03 0.  0.
</event>
<event>
 5    0  0.5452999E-005  0.2661199E+03  0.7546771E-02  0.1103521E+00
         21   -1    0    0  502  501  0.00000000000E+00  0.00000000000E+00  0.25066274899E+03  0.25066274899E+03  0.00000000000E+00 0. -1.
         21   -1    0    0  501  502 -0.00000000000E+00 -0.00000000000E+00 -0.28253021280E+03  0.28253021280E+03  0.00000000000E+00 0. -1.
         25    1    1    2    0    0 -0.71297166215E+02  0.17469124136E+02 -0.60525311458E+02  0.15708841312E+03  0.12500000000E+03 0.  0.
         25    1    1    2    0    0 -0.18387877514E+02 -0.51600144602E+02 -0.10282031254E+03  0.17087336139E+03  0.12500000000E+03 0.  0.
         25    1    1    2    0    0  0.89685043729E+02  0.34131020466E+02  0.13147816019E+03  0.20523118728E+03  0.12500000000E+03 0.  0.
</event>
<event>
 5    0  0.5452999E-005  0.4389719E+03  0.7546771E-02  0.1031063E+00
         21   -1    0    0  502  501  0.00000000000E+00  0.00000000000E+00  0.22619163463E+03  0.22619163463E+03  0.00000000000E+00 0.  1.
         21   -1    0    0  501  502 -0.00000000000E+00 -0.00000000000E+00 -0.85191626984E+03  0.85191626984E+03  0.00000000000E+00 0.  1.
         25    1    1    2    0    0  0.33842875423E+03  0.11106576944E+03 -0.34158971613E+03  0.50909543408E+03  0.12500000000E+03 0.  0.
         25    1    1    2    0    0 -0.16678598794E+02 -0.26701330803E+02 -0.12537939558E+03  0.17982249459E+03  0.12500000000E+03 0.  0.
         25    1    1    2    0    0 -0.32175015544E+03 -0.84364438635E+02 -0.15875552350E+03  0.38918997581E+03  0.12500000000E+03 0.  0.
</event>
<event>
 5    0  0.5452999E-005  0.3242706E+03  0.7546771E-02  0.1073700E+00
         21   -1    0    0  502  501  0.00000000000E+00  0.00000000000E+00  0.52340419506E+02  0.52340419506E+02  0.00000000000E+00 0. -1.
         21   -1    0    0  501  502 -0.00000000000E+00 -0.00000000000E+00 -0.20089910600E+04  0.20089910600E+04  0.00000000000E+00 0. -1.
         25    1    1    2    0    0  0.29245636715E+01  0.36818383006E+02 -0.17177878368E+03  0.21563185508E+03  0.12500000000E+03 0.  0.
         25    1    1    2    0    0  0.84067718949E+02 -0.17427751688E+03 -0.59059288794E+03  0.63392822429E+03  0.12500000000E+03 0.  0.
         25    1    1    2    0    0 -0.86992282620E+02  0.13745913388E+03 -0.11942789689E+04  0.12117714002E+04  0.12500000000E+03 0.  0.
</event>
<event>
 5    0  0.5452999E-005  0.3057529E+03  0.7546771E-02  0.1082400E+00
         21   -1    0    0  502  501  0.00000000000E+00  0.00000000000E+00  0.12676039515E+03  0.12676039515E+03  0.00000000000E+00 0. -1.
         21   -1    0    0  501  502 -0.00000000000E+00 -0.00000000000E+00 -0.73749240481E+03  0.73749240481E+03  0.00000000000E+00 0. -1.
         25    1    1    2    0    0  0.53859744379E+02  0.47695470149E+02  0.16541301707E+02  0.14517005407E+03  0.12500000000E+03 0.  0.
         25    1    1    2    0    0 -0.27299703573E+02  0.75154932190E+02 -0.15471904633E+03  0.21437472086E+03  0.12500000000E+03 0.  0.
         25    1    1    2    0    0 -0.26560040806E+02 -0.12285040234E+03 -0.47255426504E+03  0.50470802503E+03  0.12500000000E+03 0.  0.
</event>
<event>
 5    0  0.5452999E-005  0.7832677E+03  0.7546771E-02  0.9584557E-01
         21   -1    0    0  502  501  0.00000000000E+00  0.00000000000E+00  0.12693274663E+04  0.12693274663E+04  0.00000000000E+00 0.  1.
         21   -1    0    0  501  502 -0.00000000000E+00 -0.00000000000E+00 -0.48333336282E+03  0.48333336282E+03  0.00000000000E+00 0.  1.
         25    1    1    2    0    0 -0.49164802028E+03  0.31134370691E+03  0.27140123561E+03  0.65416841132E+03  0.12500000000E+03 0.  0.
         25    1    1    2    0    0  0.37509772489E+03 -0.51686555893E+03  0.51709900047E+03  0.83118270284E+03  0.12500000000E+03 0.  0.
         25    1    1    2    0    0  0.11655029539E+03  0.20552185201E+03 -0.25061325974E+01  0.26730971496E+03  0.12500000000E+03 0.  0.
</event>
<event>
 5    0  0.5452999E-005  0.2471708E+03  0.7546771E-02  0.1115106E+00
         21   -1    0    0  502  501  0.00000000000E+00  0.00000000000E+00  0.32616483732E+04  0.32616483732E+04  0.00000000000E+00 0. -1.
         21   -1    0    0  501  502 -0.00000000000E+00 -0.00000000000E+00 -0.18730832069E+02  0.18730832069E+02  0.00000000000E+00 0. -1.
         25    1    1    2    0    0 -0.81632424028E+02 -0.10077729824E+03  0.15214588341E+04  0.15320841688E+04  0.12500000000E+03 0.  0.
         25    1    1    2    0    0  0.80980357396E+02  0.90653261138E+02  0.83507072113E+03  0.85307909441E+03  0.12500000000E+03 0.  0.
         25    1    1    2    0    0  0.65206663201E+00  0.10124037105E+02  0.88638798593E+03  0.89521594206E+03  0.12500000000E+03 0.  0.
</event>
<event>
 5    0  0.5452999E-005  0.3031839E+03  0.7546771E-02  0.1083660E+00
         21   -1    0    0  502  501  0.00000000000E+00  0.00000000000E+00  0.24655804362E+03  0.24655804362E+03  0.00000000000E+00 0.  1.
         21   -1    0    0  501  502 -0.00000000000E+00 -0.00000000000E+00 -0.37281476962E+03  0.37281476962E+03  0.00000000000E+00 0.  1.
         25    1    1    2    0    0 -0.12214366881E+02  0.38764336857E+02 -0.15760586078E+03  0.20522298098E+03  0.12500000000E+03 0.  0.
         25    1    1    2    0    0  0.28024520431E+02 -0.13741907628E+03 -0.94753728745E+02  0.21041065891E+03  0.12500000000E+03 0.  0.
         25    1    1    2    0    0 -0.15810153551E+02  0.98654739428E+02  0.12610286353E+03  0.20373917335E+03  0.12500000000E+03 0.  0.
</event>
<event>
 5    0  0.5452999E-005  0.4499740E+03  0.7546771E-02  0.1027730E+00
         21   -1    0    0  502  501  0.00000000000E+00  0.00000000000E+00  0.45436615474E+03  0.45436615474E+03  0.00000000000E+00 0. -1.
         21   -1    0    0  501  502 -0.00000000000E+00 -0.00000000000E+00 -0.44562436183E+03  0.44562436183E+03  0.00000000000E+00 0. -1.
         25    1    1    2    0    0  0.39967920078E+02  0.80316907916E+01 -0.13440229743E+03  0.18801840401E+03  0.12500000000E+03 0.  0.
         25    1    1    2    0    0 -0.32513400305E+03  0.24717286442E+02  0.18652559138E+03  0.39590385250E+03  0.12500000000E+03 0.  0.
         25    1    1    2    0    0  0.28516608297E+03 -0.32748977233E+02 -0.43381501043E+02  0.31606826006E+03  0.12500000000E+03 0.  0.
</event>
<event>
 5    0  0.5452999E-005  0.2772506E+03  0.7546771E-02  0.1097200E+00
         21   -1    0    0  502  501  0.00000000000E+00  0.00000000000E+00  0.10864642489E+04  0.10864642489E+04  0.00000000000E+00 0. -1.
         21   -1    0    0  501  502 -0.00000000000E+00 -0.00000000000E+00 -0.70750518179E+02  0.70750518179E+02  0.00000000000E+00 0. -1.
         25    1    1    2    0    0  0.41997512856E+02  0.45310995347E+02  0.20343937905E+03  0.24663628754E+03  0.12500000000E+03 0.  0.
         25    1    1    2    0    0  0.13068748400E+03  0.28109084697E+02  0.41963767371E+03  0.45781013129E+03  0.12500000000E+03 0.  0.
         25    1    1    2    0    0 -0.17268499686E+03 -0.73420080044E+02  0.39263667801E+03  0.45276834829E+03  0.12500000000E+03 0.  0.
</event>
<event>
 5    0  0.5452999E-005  0.2769823E+03  0.7546771E-02  0.1097349E+00
         21   -1    0    0  502  501  0.00000000000E+00  0.00000000000E+00  0.11829519865E+03  0.11829519865E+03  0.00000000000E+00 0.  1.
         21   -1    0    0  501  502 -0.00000000000E+00 -0.00000000000E+00 -0.64854023496E+03  0.64854023496E+03  0.00000000000E+00 0.  1.
         25    1    1    2    0    0 -0.19601428474E+02  0.10257425604E+03 -0.22150297755E+03  0.27494410898E+03  0.12500000000E+03 0.  0.
         25    1    1    2    0    0 -0.94680587400E+02 -0.89176527907E+02 -0.58919636932E+02  0.18977194307E+03  0.12500000000E+03 0.  0.
         25    1    1    2    0    0  0.11428201587E+03 -0.13397728132E+02 -0.24982242183E+03  0.30211938157E+03  0.12500000000E+03 0.  0.
</event>
<event>
 5    0  0.5452999E-005  0.3255516E+03  0.7546771E-02  0.1073122E+00
         21   -1    0    0  502  501  0.00000000000E+00  0.00000000000E+00  0.25900260195E+03  0.25900260195E+03  0.00000000000E+00 0.  1.
         21   -1    0    0  501  502 -0.00000000000E+00 -0.00000000000E+00 -0.40919985515E+03  0.40919985515E+03  0.00000000000E+00 0.  1.
         25    1    1    2    0    0 -0.17770052393E+03 -0.34626927443E+02 -0.84739091248E+02  0.23575880449E+03  0.12500000000E+03 0.  0.
         25    1    1    2    0    0  0.10523188035E+03  0.16386088619E+03 -0.57429529357E+02  0.23842669629E+03  0.12500000000E+03 0.  0.
         25    1    1    2    0    0  0.72468643583E+02 -0.12923395874E+03 -0.80286326011E+01  0.19401695631E+03  0.12500000000E+03 0.  0.
</event>
<event>
 5    0  0.5452999E-005  0.4552687E+03  0.7546771E-02  0.1026162E+00
         21   -1    0    0  502  501  0.00000000000E+00  0.00000000000E+00  0.23492499539E+03  0.23492499539E+03  0.00000000000E+00 0. -1.
         21   -1    0    0  501  502 -0.00000000000E+00 -0.00000000000E+00 -0.88227973259E+03  0.88227973259E+03  0.00000000000E+00 0. -1.
         25    1    1    2    0    0  0.50044862751E+02  0.31495456952E+02  0.18094093656E+02  0.13945912778E+03  0.12500000000E+03 0.  0.
         25    1    1    2    0    0  0.30011983100E+03 -0.92692853882E+02 -0.34611844001E+03  0.48382522943E+03  0.12500000000E+03 0.  0.
         25    1    1    2    0    0 -0.35016469375E+03  0.61197396930E+02 -0.31933039084E+03  0.49392037076E+03  0.12500000000E+03 0.  0.
</event>
<event>
 5    0  0.5452999E-005  0.2753875E+03  0.7546771E-02  0.1098235E+00
         21   -1    0    0  502  501  0.00000000000E+00  0.00000000000E+00  0.48320200322E+03  0.48320200322E+03  0.00000000000E+00 0. -1.
         21   -1    0    0  501  502 -0.00000000000E+00 -0.00000000000E+00 -0.15694939171E+03  0.15694939171E+03  0.00000000000E+00 0. -1.
         25    1    1    2    0    0 -0.83328936236E+02 -0.30927762470E+02  0.67868502184E+02  0.16772409396E+03  0.12500000000E+03 0.  0.
         25    1    1    2    0    0  0.12536967361E+03  0.21289082070E+02 -0.42704213513E+01  0.17836484120E+03  0.12500000000E+03 0.  0.
         25    1    1    2    0    0 -0.42040737378E+02  0.96386803994E+01  0.26265453068E+03  0.29406245977E+03  0.12500000000E+03 0.  0.
</event>
<event>
 5    0  0.5828689E-005  0.2931187E+03  0.7546771E-02  0.1088732E+00
         21   -1    0    0  502  501  0.00000000000E+00  0.00000000000E+00  0.16882507695E+03  0.16882507695E+03  0.00000000000E+00 0.  1.
         21   -1    0    0  501  502 -0.00000000000E+00 -0.00000000000E+00 -0.50892083377E+03  0.50892083377E+03  0.00000000000E+00 0. -1.
         25    1    1    2    0    0 -0.17389323296E+03  0.10922911371E+02 -0.23631913171E+03  0.31910797307E+03  0.12500000000E+03 0.  0.
         25    1    1    2    0    0  0.46310605533E+02  0.13181248322E+02  0.26118548356E+02  0.13647562442E+03  0.12500000000E+03 0.  0.
         25    1    1    2    0    0  0.12758262742E+03 -0.24104159693E+02 -0.12989517346E+03  0.22216231324E+03  0.12500000000E+03 0.  0.
</event>
<event>
 5    0  0.5452999E-005  0.2994720E+03  0.7546771E-02  0.1085505E+00
         21   -1    0    0  502  501  0.00000000000E+00  0.00000000000E+00  0.36944434901E+03  0.36944434901E+03  0.00000000000E+00 0. -1.
         21   -1    0    0  501  502 -0.00000000000E+00 -0.00000000000E+00 -0.24275234325E+03  0.24275234325E+03  0.00000000000E+00 0. -1.
         25    1    1    2    0    0  0.40348523695E+02  0.72583054609E+02 -0.31716538966E+02  0.15338592512E+03  0.12500000000E+03 0.  0.
         25    1    1    2    0    0  0.29064897091E+02  0.12824697614E+03  0.42235854916E+02  0.18628183640E+03  0.12500000000E+03 0.  0.
         25    1    1    2    0    0 -0.69413420786E+02 -0.20083003075E+03  0.11617268981E+03  0.27252893075E+03  0.12500000000E+03 0.  0.
</event>
<event>
 5    0  0.5452999E-005  0.2697853E+03  0.7546771E-02  0.1101403E+00
         21   -1    0    0  502  501  0.00000000000E+00  0.00000000000E+00  0.76253768845E+03  0.76253768845E+03  0.00000000000E+00 0. -1.
         21   -1    0    0  501  502 -0.00000000000E+00 -0.00000000000E+00 -0.95449877664E+02  0.95449877664E+02  0.00000000000E+00 0. -1.
         25    1    1    2    0    0 -0.54913127490E+02  0.11778458405E+03  0.20747858113E+03  0.27488365073E+03  0.12500000000E+03 0.  0.
         25    1    1    2    0    0 -0.35996591299E+02 -0.63397322558E+02  0.70631292376E+02  0.16102408067E+03  0.12500000000E+03 0.  0.
         25    1    1    2    0    0  0.90909718790E+02 -0.54387261489E+02  0.38897793728E+03  0.42207983471E+03  0.12500000000E+03 0.  0.
</event>
<event>
 5    0  0.5452999E-005  0.3919053E+03  0.7546771E-02  0.1046619E+00
         21   -1    0    0  502  501  0.00000000000E+00  0.00000000000E+00  0.25910468656E+03  0.25910468656E+03  0.00000000000E+00 0.  1.
         21   -1    0    0  501  502 -0.00000000000E+00 -0.00000000000E+00 -0.59277103874E+03  0.59277103874E+03  0.00000000000E+00 0.  1.
         25    1    1    2    0    0 -0.20567708031E+03 -0.21471549589E+03 -0.40260053763E+02  0.32504103967E+03  0.12500000000E+03 0.  0.
         25    1    1    2    0    0  0.52364859656E+02  0.34874525682E+02 -0.14820946968E+02  0.14072303130E+03  0.12500000000E+03 0.  0.
         25    1    1    2    0    0  0.15331222066E+03  0.17984097021E+03 -0.27858535145E+03  0.38611165433E+03  0.12500000000E+03 0.  0.
</event>
<event>
 5    0  0.5452999E-005  0.3528026E+03  0.7546771E-02  0.1061471E+00
         21   -1    0    0  502  501  0.00000000000E+00  0.00000000000E+00  0.10125273332E+04  0.10125273332E+04  0.00000000000E+00 0.  1.
         21   -1    0    0  501  502 -0.00000000000E+00 -0.00000000000E+00 -0.12292967011E+03  0.12292967011E+03  0.00000000000E+00 0.  1.
         25    1    1    2    0    0  0.27358409175E+02 -0.22350191979E+03  0.16892588474E+03  0.30799763836E+03  0.12500000000E+03 0.  0.
         25    1    1    2    0    0  0.13833926497E+02  0.20904392670E+03  0.30129684639E+03  0.38767967506E+03  0.12500000000E+03 0.  0.
         25    1    1    2    0    0 -0.41192335672E+02  0.14457993093E+02  0.41937493196E+03  0.43977968989E+03  0.12500000000E+03 0.  0.
</event>
<event>
 5    0  0.5452999E-005  0.3642519E+03  0.7546771E-02  0.1056913E+00
         21   -1    0    0  502  501  0.00000000000E+00  0.00000000000E+00  0.50599588917E+03  0.50599588917E+03  0.00000000000E+00 0.  1.
         21   -1    0    0  501  502 -0.00000000000E+00 -0.00000000000E+00 -0.26221452166E+03  0.26221452166E+03  0.00000000000E+00 0.  1.
         25    1    1    2    0    0 -0.52037133530E+02  0.12114634971E+03  0.33347702935E+03  0.37975812094E+03  0.12500000000E+03 0.  0.
         25    1    1    2    0    0  0.29352295998E+01 -0.10281463826E+03  0.72249319510E+02  0.17726937012E+03  0.12500000000E+03 0.  0.
         25    1    1    2    0    0  0.49101903930E+02 -0.18331711449E+02 -0.16194498135E+03  0.21118291976E+03  0.12500000000E+03 0.  0.
</event>
<event>
 5    0  0.5808404E-005  0.2655050E+03  0.7546771E-02  0.1103880E+00
         21   -1    0    0  502  501  0.00000000000E+00  0.00000000000E+00  0.13180654377E+03  0.13180654377E+03  0.00000000000E+00 0. -1.
         21   -1    0    0  501  502 -0.00000000000E+00 -0.00000000000E+00 -0.53482103729E+03  0.53482103729E+03  0.00000000000E+00 0. -1.
         25    1    1    2    0    0 -0.36252243112E+02  0.94598309767E+02 -0.17724637164E+03  0.23938325255E+03  0.12500000000E+03 0.  0.
         25    1    1    2    0    0 -0.56443055142E+02  0.27462805821E+01 -0.11774306660E+01  0.13718508255E+03  0.12500000000E+03 0.  0.
         25    1    1    2    0    0  0.92695298254E+02 -0.97344590349E+02 -0.22459069122E+03  0.29005924597E+03  0.12500000000E+03 0.  0.
</event>
<event>
 5    0  0.5452999E-005  0.3977132E+03  0.7546771E-02  0.1044574E+00
         21   -1    0    0  502  501  0.00000000000E+00  0.00000000000E+00  0.12702796312E+03  0.12702796312E+03  0.00000000000E+00 0. -1.
         21   -1    0    0  501  502 -0.00000000000E+00 -0.00000000000E+00 -0.12452046496E+04  0.12452046496E+04  0.00000000000E+00 0. -1.
         25    1    1    2    0    0 -0.67639789041E+02 -0.12349455179E+03 -0.58338406123E+03  0.61301550411E+03  0.12500000000E+03 0.  0.
         25    1    1    2    0    0 -0.18690228845E+03  0.14447299754E+02 -0.15799779016E+03  0.27518991913E+03  0.12500000000E+03 0.  0.
         25    1    1    2    0    0  0.25454207749E+03  0.10904725204E+03 -0.37679483506E+03  0.48402718944E+03  0.12500000000E+03 0.  0.
</event>
<event>
 5    0  0.5452999E-005  0.2490373E+03  0.7546771E-02  0.1113915E+00
         21   -1    0    0  502  501  0.00000000000E+00  0.00000000000E+00  0.21153540714E+03  0.21153540714E+03  0.00000000000E+00 0.  1.
         21   -1    0    0  501  502 -0.00000000000E+00 -0.00000000000E+00 -0.29318760164E+03  0.29318760164E+03  0.00000000000E+00 0.  1.
         25    1    1    2    0    0 -0.69226381290E+02  0.58128376411E+02  0.21991874585E+01  0.15427584528E+03  0.12500000000E+03 0.  0.
         25    1    1    2    0    0  0.20153006863E+02 -0.11427481264E+03 -0.10945721474E+03  0.20265921727E+03  0.12500000000E+03 0.  0.
         25    1    1    2    0    0  0.49073374427E+02  0.56146436227E+02  0.25605832780E+02  0.14778794623E+03  0.12500000000E+03 0.  0.
</event>
<event>
 5    0  0.5452999E-005  0.2545896E+03  0.7546771E-02  0.1110438E+00
         21   -1    0    0  502  501  0.00000000000E+00  0.00000000000E+00  0.44000603091E+03  0.44000603091E+03  0.00000000000E+00 0. -1.
         21   -1    0    0  501  502 -0.00000000000E+00 -0.00000000000E+00 -0.14730672470E+03  0.14730672470E+03  0.00000000000E+00 0. -1.
         25    1    1    2    0    0 -0.65244649795E+02 -0.85741371248E+02  0.14691227155E+03  0.22094493115E+03  0.12500000000E+03 0.  0.
         25    1    1    2    0    0  0.75075701076E+02  0.44275538933E+02  0.17402869889E+03  0.23131725461E+03  0.12500000000E+03 0.  0.
         25    1    1    2    0    0 -0.98310512807E+01  0.41465832315E+02 -0.28241664230E+02  0.13505056985E+03  0.12500000000E+03 0.  0.
</event>
<event>
 5    0  0.5452999E-005  0.3974832E+03  0.7546771E-02  0.1044655E+00
         21   -1    0    0  502  501  0.00000000000E+00  0.00000000000E+00  0.72758699503E+02  0.72758699503E+02  0.00000000000E+00 0.  1.
         21   -1    0    0  501  502 -0.00000000000E+00 -0.00000000000E+00 -0.21714638811E+04  0.21714638811E+04  0.00000000000E+00 0.  1.
         25    1    1    2    0    0 -0.15664307918E+03  0.50889133558E+02 -0.11631958131E+04  0.11814297515E+04  0.12500000000E+03 0.  0.
         25    1    1    2    0    0 -0.13183518560E+03 -0.41949796918E+02 -0.29058123402E+03  0.34525752010E+03  0.12500000000E+03 0.  0.
         25    1    1    2    0    0  0.28847826478E+03 -0.89393366395E+01 -0.64492813449E+03  0.71753530899E+03  0.12500000000E+03 0.  0.
</event>
<event>
 5    0  0.5452999E-005  0.2800102E+03  0.7546771E-02  0.1095683E+00
         21   -1    0    0  502  501  0.00000000000E+00  0.00000000000E+00  0.18604207710E+04  0.18604207710E+04  0.00000000000E+00 0.  1.
         21   -1    0    0  501  502 -0.00000000000E+00 -0.00000000000E+00 -0.42144074737E+02  0.42144074737E+02  0.00000000000E+00 0.  1.
         25    1    1    2    0    0 -0.15850798543E+03  0.14356857791E+02  0.10705733161E+04  0.10895334441E+04  0.12500000000E+03 0.  0.
         25    1    1    2    0    0  0.11845048990E+03  0.24282843627E+02  0.32318828887E+03  0.36700932565E+03  0.12500000000E+03 0.  0.
         25    1    1    2    0    0  0.40057495536E+02 -0.38639701418E+02  0.42451509136E+03  0.44602207598E+03  0.12500000000E+03 0.  0.
</event>
<event>
 5    0  0.5572589E-005  0.2743099E+03  0.7546771E-02  0.1098838E+00
         21   -1    0    0  502  501  0.00000000000E+00  0.00000000000E+00  0.46515646319E+03  0.46515646319E+03  0.00000000000E+00 0. -1.
         21   -1    0    0  501  502 -0.00000000000E+00 -0.00000000000E+00 -0.16176473987E+03  0.16176473987E+03  0.00000000000E+00 0.  1.
         25    1    1    2    0    0 -0.63811754738E+02  0.44073252384E+02  0.22796960988E+03  0.27131077134E+03  0.12500000000E+03 0.  0.
         25    1    1    2    0    0 -0.11305482023E+02  0.69201054816E+02  0.91839746645E+02  0.17022379086E+03  0.12500000000E+03 0.  0.
         25    1    1    2    0    0  0.75117236762E+02 -0.11327430720E+03 -0.16417633203E+02  0.18538664086E+03  0.12500000000E+03 0.  0.
</event>
<event>
 5    0  0.5452999E-005  0.3360034E+03  0.7546771E-02  0.1068511E+00
         21   -1    0    0  502  501  0.00000000000E+00  0.00000000000E+00  0.99185202732E+03  0.99185202732E+03  0.00000000000E+00 0. -1.
         21   -1    0    0  501  502 -0.00000000000E+00 -0.00000000000E+00 -0.11382576475E+03  0.11382576475E+03  0.00000000000E+00 0. -1.
         25    1    1    2    0    0 -0.12838880262E+02  0.52804948308E+02  0.20770807193E+03  0.24843679791E+03  0.12500000000E+03 0.  0.
         25    1    1    2    0    0  0.22891940156E+03  0.69267762379E+01  0.44424147221E+03  0.51519662099E+03  0.12500000000E+03 0.  0.
         25    1    1    2    0    0 -0.21608052130E+03 -0.59731724546E+02  0.22607671843E+03  0.34204437317E+03  0.12500000000E+03 0.  0.
</event>
<event>
 5    0  0.5452999E-005  0.4569356E+03  0.7546771E-02  0.1025674E+00
         21   -1    0    0  502  501  0.00000000000E+00  0.00000000000E+00  0.38924960135E+03  0.38924960135E+03  0.00000000000E+00 0. -1.
         21   -1    0    0  501  502 -0.00000000000E+00 -0.00000000000E+00 -0.53639145749E+03  0.53639145749E+03  0.00000000000E+00 0. -1.
         25    1    1    2    0    0 -0.12474336396E+03 -0.21105560402E+03 -0.33396884752E+03  0.43274191610E+03  0.12500000000E+03 0.  0.
         25    1    1    2    0    0  0.13562111275E+02 -0.55455541727E+02  0.87569504879E+02  0.16294988848E+03  0.12500000000E+03 0.  0.
         25    1    1    2    0    0  0.11118125268E+03  0.26651114575E+03  0.99257486502E+02  0.32994925425E+03  0.12500000000E+03 0.  0.
</event>
<event>
 5    0  0.5452999E-005  0.2205841E+03  0.7546771E-02  0.1133448E+00
         21   -1    0    0  502  501  0.00000000000E+00  0.00000000000E+00  0.15733130595E+03  0.15733130595E+03  0.00000000000E+00 0.  1.
         21   -1    0    0  501  502 -0.00000000000E+00 -0.00000000000E+00 -0.30926690247E+03  0.30926690247E+03  0.00000000000E+00 0.  1.
         25    1    1    2    0    0  0.77876294972E+02  0.54417572094E+00 -0.98353885397E+02  0.17709743143E+03  0.12500000000E+03 0.  0.
         25    1    1    2    0    0 -0.80656169478E+02  0.28208624517E+02 -0.25665093469E+01  0.15143556763E+03  0.12500000000E+03 0.  0.
         25    1    1    2    0    0  0.27798745066E+01 -0.28752800238E+02 -0.51015201773E+02  0.13806520936E+03  0.12500000000E+03 0.  0.
</event>
<event>
 5    0  0.5452999E-005  0.4073216E+03  0.7546771E-02  0.1041274E+00
         21   -1    0    0  502  501  0.00000000000E+00  0.00000000000E+00  0.15879714854E+03  0.15879714854E+03  0.00000000000E+00 0. -1.
         21   -1    0    0  501  502 -0.00000000000E+00 -0.00000000000E+00 -0.10447974082E+04  0.10447974082E+04  0.00000000000E+00 0. -1.
         25    1    1    2    0    0  0.19843935522E+03 -0.74896474228E+02 -0.22762418606E+03  0.33529901525E+03  0.12500000000E+03 0.  0.
         25    1    1    2    0    0 -0.13641792032E+03  0.25005991583E+03 -0.23686808207E+03  0.39098759416E+03  0.12500000000E+03 0.  0.
         25    1    1    2    0    0 -0.62021434900E+02 -0.17516344160E+03 -0.42150799156E+03  0.47730794735E+03  0.12500000000E+03 0.  0.
</event>
<event>
 5    0  0.5452999E-005  0.2658858E+03  0.7546771E-02  0.1103658E+00
         21   -1    0    0  502  501  0.00000000000E+00  0.00000000000E+00  0.44297737691E+03  0.44297737691E+03  0.00000000000E+00 0.  1.
         21   -1    0    0  501  502 -0.00000000000E+00 -0.00000000000E+00 -0.15959118659E+03  0.15959118659E+03  0.00000000000E+00 0.  1.
         25    1    1    2    0    0  0.34985431204E+02  0.42430616316E+02  0.21656610601E+03  0.25602776386E+03  0.12500000000E+03 0.  0.
         25    1    1    2    0    0  0.59384863956E+02  0.40860032151E+02  0.86217547777E+02  0.16809095704E+03  0.12500000000E+03 0.  0.
         25    1    1    2    0    0 -0.94370295160E+02 -0.83290648467E+02 -0.19397463464E+02  0.17844984259E+03  0.12500000000E+03 0.  0.
</event>
<event>
 5    0  0.5452999E-005  0.4504557E+03  0.7546771E-02  0.1027586E+00
         21   -1    0    0  502  501  0.00000000000E+00  0.00000000000E+00  0.26423566477E+03  0.26423566477E+03  0.00000000000E+00 0. -1.
         21   -1    0    0  501  502 -0.00000000000E+00 -0.00000000000E+00 -0.76791424145E+03  0.76791424145E+03  0.00000000000E+00 0. -1.
         25    1    1    2    0    0  0.31470838365E+03  0.16856594284E+03 -0.18411093238E+03  0.42068715128E+03  0.12500000000E+03 0.  0.
         25    1    1    2    0    0 -0.17878168729E+03 -0.34861941660E+02 -0.24886150613E+01  0.22092858550E+03  0.12500000000E+03 0.  0.
         25    1    1    2    0    0 -0.13592669637E+03 -0.13370400118E+03 -0.31707902924E+03  0.39053416944E+03  0.12500000000E+03 0.  0.
</event>
<event>
 5    0  0.5452999E-005  0.3398337E+03  0.7546771E-02  0.1066867E+00
         21   -1    0    0  502  501  0.00000000000E+00  0.00000000000E+00  0.13849978929E+03  0.13849978929E+03  0.00000000000E+00 0.  1.
         21   -1    0    0  501  502 -0.00000000000E+00 -0.00000000000E+00 -0.83384216879E+03  0.83384216879E+03  0.00000000000E+00 0.  1.
         25    1    1    2    0    0  0.16894441262E+03 -0.63060100009E+02 -0.27418290886E+03  0.35116955773E+03  0.12500000000E+03 0.  0.
         25    1    1    2    0    0 -0.23184518393E+03 -0.28756055323E+02 -0.35079678132E+03  0.43961628930E+03  0.12500000000E+03 0.  0.
         25    1    1    2    0    0  0.62900771311E+02  0.91816155332E+02 -0.70362689321E+02  0.18155611105E+03  0.12500000000E+03 0.  0.
</event>
<event>
 5    0  0.5452999E-005  0.3912338E+03  0.7546771E-02  0.1046858E+00
         21   -1    0    0  502  501  0.00000000000E+00  0.00000000000E+00  0.97399234161E+03  0.97399234161E+03  0.00000000000E+00 0. -1.
         21   -1    0    0  501  502 -0.00000000000E+00 -0.00000000000E+00 -0.15715102373E+03  0.15715102373E+03  0.00000000000E+00 0. -1.
         25    1    1    2    0    0 -0.89013569844E+02  0.11456821776E+03  0.45035989070E+02  0.19672959220E+03  0.12500000000E+03 0.  0.
         25    1    1    2    0    0 -0.13960885916E+03  0.14816638691E+02  0.12654118865E+03  0.22660061510E+03  0.12500000000E+03 0.  0.
         25    1    1    2    0    0  0.22862242901E+03 -0.12938485645E+03  0.64526414016E+03  0.70781315804E+03  0.12500000000E+03 0.  0.
</event>
<event>
 5    0  0.5452999E-005  0.3924837E+03  0.7546771E-02  0.1046414E+00
         21   -1    0    0  502  501  0.00000000000E+00  0.00000000000E+00  0.27840102363E+03  0.27840102363E+03  0.00000000000E+00 0.  1.
         21   -1    0    0  501  502 -0.00000000000E+00 -0.00000000000E+00 -0.55331489476E+03  0.55331489476E+03  0.00000000000E+00 0.  1.
         25    1    1    2    0    0  0.13832364002E+03  0.11175573570E+03 -0.33174688198E+03  0.39661538996E+03  0.12500000000E+03 0.  0.
         25    1    1    2    0    0 -0.15616610332E+03 -0.80189991667E+02 -0.94656459189E+02  0.23537869881E+03  0.12500000000E+03 0.  0.
         25    1    1    2    0    0  0.17842463300E+02 -0.31565744033E+02  0.15148947004E+03  0.19972182962E+03  0.12500000000E+03 0.  0.
</event>
<event>
 5    0  0.5452999E-005  0.2786266E+03  0.7546771E-02  0.1096441E+00
         21   -1    0    0  502  501  0.00000000000E+00  0.00000000000E+00  0.45916546237E+02  0.45916546237E+02  0.00000000000E+00 0.  1.
         21   -1    0    0  501  502 -0.00000000000E+00 -0.00000000000E+00 -0.16907368425E+04  0.16907368425E+04  0.00000000000E+00 0.  1.
         25    1    1    2    0    0  0.22659566616E+02  0.46408214684E+02 -0.83554041580E+03  0.84641595258E+03  0.12500000000E+03 0.  0.
         25    1    1    2    0    0 -0.92938615565E+02 -0.95337547223E+02 -0.62778414975E+03  0.65380790210E+03  0.12500000000E+03 0.  0.
         25    1    1    2    0    0  0.70279048949E+02  0.48929332540E+02 -0.18149573069E+03  0.23642953404E+03  0.12500000000E+03 0.  0.
</event>
<event>
 5    0  0.5452999E-005  0.4804514E+03  0.7546771E-02  0.1019011E+00
         21   -1    0    0  502  501  0.00000000000E+00  0.00000000000E+00  0.37202087038E+03  0.37202087038E+03  0.00000000000E+00 0.  1.
         21   -1    0    0  501  502 -0.00000000000E+00 -0.00000000000E+00 -0.62048537258E+03  0.62048537258E+03  0.00000000000E+00 0.  1.
         25    1    1    2    0    0  0.77355913338E+02  0.84284837461E+02  0.85485621654E+02  0.18979110270E+03  0.12500000000E+03 0.  0.
         25    1    1    2    0    0  0.32108863202E+02 -0.29960464309E+03  0.52231118860E+02  0.33037404716E+03  0.12500000000E+03 0.  0.
         25    1    1    2    0    0 -0.10946477654E+03  0.21531980563E+03 -0.38618124272E+03  0.47234109310E+03  0.12500000000E+03 0.  0.
</event>
<event>
 5    0  0.5452999E-005  0.3578256E+03  0.7546771E-02  0.1059448E+00
         21   -1    0    0  502  501  0.00000000000E+00  0.00000000000E+00  0.69168353278E+03  0.69168353278E+03  0.00000000000E+00 0. -1.
         21   -1    0    0  501  502 -0.00000000000E+00 -0.00000000000E+00 -0.18511234340E+03  0.18511234340E+03  0.00000000000E+00 0. -1.
         25    1    1    2    0    0 -0.31692171794E+02 -0.69394576654E+02  0.26019299989E+03  0.29857226631E+03  0.12500000000E+03 0.  0.
         25    1    1    2    0    0 -0.17476391201E+03  0.12068612837E+03  0.26734843651E+02  0.24788569622E+03  0.12500000000E+03 0.  0.
         25    1    1    2    0    0  0.20645608380E+03 -0.51291551721E+02  0.21964334584E+03  0.33033791364E+03  0.12500000000E+03 0.  0.
</event>
<event>
 5    0  0.5452999E-005  0.2247262E+03  0.7546771E-02  0.1130408E+00
         21   -1    0    0  502  501  0.00000000000E+00  0.00000000000E+00  0.26024687849E+03  0.26024687849E+03  0.00000000000E+00 0. -1.
         21   -1    0    0  501  502 -0.00000000000E+00 -0.00000000000E+00 -0.19405368905E+03  0.19405368905E+03  0.00000000000E+00 0. -1.
         25    1    1    2    0    0 -0.22377063417E+02  0.44449637584E+02  0.36204528386E+02  0.13932792658E+03  0.12500000000E+03 0.  0.
         25    1    1    2    0    0  0.23498526793E+02  0.42073907596E+02 -0.50234246096E+02  0.14307646188E+03  0.12500000000E+03 0.  0.
         25    1    1    2    0    0 -0.11214633752E+01 -0.86523545180E+02  0.80222907149E+02  0.17189617908E+03  0.12500000000E+03 0.  0.
</event>
<event>
 5    0  0.5452999E-005  0.2478852E+03  0.7546771E-02  0.1114649E+00
         21   -1    0    0  502  501  0.00000000000E+00  0.00000000000E+00  0.10437096257E+03  0.10437096257E+03  0.00000000000E+00 0. -1.
         21   -1    0    0  501  502 -0.00000000000E+00 -0.00000000000E+00 -0.58873701947E+03  0.58873701947E+03  0.00000000000E+00 0. -1.
         25    1    1    2    0    0  0.11363158130E+03 -0.50802588445E+02 -0.10774129941E+03  0.20670323379E+03  0.12500000000E+03 0.  0.
         25    1    1    2    0    0 -0.12514821553E+03  0.34012209522E+02 -0.20129483923E+03  0.27011760133E+03  0.12500000000E+03 0.  0.
         25    1    1    2    0    0  0.11516634231E+02  0.16790378923E+02 -0.17532991826E+03  0.21628714693E+03  0.12500000000E+03 0.  0.
</event>
<event>
 5    0  0.5452999E-005  0.2420867E+03  0.7546771E-02  0.1118410E+00
         21   -1    0    0  502  501  0.00000000000E+00  0.00000000000E+00  0.19307054666E+03  0.19307054666E+03  0.00000000000E+00 0.  1.
         21   -1    0    0  501  502 -0.00000000000E+00 -0.00000000000E+00 -0.30354688862E+03  0.30354688862E+03  0.00000000000E+00 0.  1.
         25    1    1    2    0    0 -0.57478652629E+02 -0.82727362847E+02  0.33898431123E+02  0.16407838281E+03  0.12500000000E+03 0.  0.
         25    1    1    2    0    0  0.24591079057E+02 -0.17590992413E+02 -0.27621928055E+02  0.13153758053E+03  0.12500000000E+03 0.  0.
         25    1    1    2    0    0  0.32887573572E+02  0.10031835526E+03 -0.11675284503E+03  0.20100147193E+03  0.12500000000E+03 0.  0.
</event>
<event>
 5    0  0.5452999E-005  0.3633371E+03  0.7546771E-02  0.1057270E+00
         21   -1    0    0  502  501  0.00000000000E+00  0.00000000000E+00  0.42254156960E+03  0.42254156960E+03  0.00000000000E+00 0. -1.
         21   -1    0    0  501  502 -0.00000000000E+00 -0.00000000000E+00 -0.31242807488E+03  0.31242807488E+03  0.00000000000E+00 0. -1.
         25    1    1    2    0    0  0.36474919785E+02 -0.11390891165E+03 -0.88072959757E+02  0.19413270247E+03  0.12500000000E+03 0.  0.
         25    1    1    2    0    0 -0.17068126070E+03  0.20018137328E+03  0.16710236004E+03  0.33578694688E+03  0.12500000000E+03 0.  0.
         25    1    1    2    0    0  0.13420634092E+03 -0.86272461630E+02  0.31084094445E+02  0.20504999514E+03  0.12500000000E+03 0.  0.
</event>
<event>
 5    0  0.5452999E-005  0.3845988E+03  0.7546771E-02  0.1049247E+00
         21   -1    0    0  502  501  0.00000000000E+00  0.00000000000E+00  0.21220673373E+03  0.21220673373E+03  0.00000000000E+00 0.  1.
         21   -1    0    0  501  502 -0.00000000000E+00 -0.00000000000E+00 -0.69703820742E+03  0.69703820742E+03  0.00000000000E+00 0.  1.
         25    1    1    2    0    0  0.17307173910E+03 -0.52890154284E+02 -0.16281139434E+02  0.22054766106E+03  0.12500000000E+03 0.  0.
         25    1    1    2    0    0 -0.13706443274E+03  0.22210320885E+03 -0.23968271403E+03  0.37575164339E+03  0.12500000000E+03 0.  0.
         25    1    1    2    0    0 -0.36007306364E+02 -0.16921305456E+03 -0.22886762022E+03  0.31294563670E+03  0.12500000000E+03 0.  0.
</event>
<event>
 5    0  0.5452999E-005  0.2878183E+03  0.7546771E-02  0.1091494E+00
         21   -1    0    0  502  501  0.00000000000E+00  0.00000000000E+00  0.84724505130E+02  0.84724505130E+02  0.00000000000E+00 0. -1.
         21   -1    0    0  501  502 -0.00000000000E+00 -0.00000000000E+00 -0.97774958597E+03  0.97774958597E+03  0.00000000000E+00 0. -1.
         25    1    1    2    0    0  0.16564393588E+03 -0.31071275257E+02 -0.32584736635E+03  0.38756269660E+03  0.12500000000E+03 0.  0.
         25    1    1    2    0    0  0.22301907402E+02 -0.27569153424E+02 -0.16510991412E+03  0.21010406239E+03  0.12500000000E+03 0.  0.
         25    1    1    2    0    0 -0.18794584328E+03  0.58640428681E+02 -0.40206780038E+03  0.46480733211E+03  0.12500000000E+03 0.  0.
</event>
<event>
 5    0  0.5452999E-005  0.2282729E+03  0.7546771E-02  0.1127861E+00
         21   -1    0    0  502  501  0.00000000000E+00  0.00000000000E+00  0.58845479813E+03  0.58845479813E+03  0.00000000000E+00 0. -1.
         21   -1    0    0  501  502 -0.00000000000E+00 -0.00000000000E+00 -0.88551410156E+02  0.88551410156E+02  0.00000000000E+00 0. -1.
         25    1    1    2    0    0 -0.14696646592E+02  0.99983836265E+02  0.29057367290E+03  0.33207050203E+03  0.12500000000E+03 0.  0.
         25    1    1    2    0    0  0.10911514302E+02 -0.38567516323E+02  0.73925989512E+02  0.15065379645E+03  0.12500000000E+03 0.  0.
         25    1    1    2    0    0  0.37851322903E+01 -0.61416319942E+02  0.13540372556E+03  0.19428190980E+03  0.12500000000E+03 0.  0.
</event>
<event>
 5    0  0.5452999E-005  0.2604229E+03  0.7546771E-02  0.1106889E+00
         21   -1    0    0  502  501  0.00000000000E+00  0.00000000000E+00  0.37574284055E+03  0.37574284055E+03  0.00000000000E+00 0. -1.
         21   -1    0    0  501  502 -0.00000000000E+00 -0.00000000000E+00 -0.18049596930E+03  0.18049596930E+03  0.00000000000E+00 0. -1.
         25    1    1    2    0    0 -0.51313930133E+02  0.23275871761E+02  0.47602943557E+02  0.14514105507E+03  0.12500000000E+03 0.  0.
         25    1    1    2    0    0  0.15184076506E+03 -0.78715106667E+02  0.10328433119E+03  0.23567846533E+03  0.12500000000E+03 0.  0.
         25    1    1    2    0    0 -0.10052683492E+03  0.55439234906E+02  0.44359596503E+02  0.17541928944E+03  0.12500000000E+03 0.  0.
</event>
<event>
 5    0  0.5452999E-005  0.2142820E+03  0.7546771E-02  0.1138219E+00
         21   -1    0    0  502  501  0.00000000000E+00  0.00000000000E+00  0.83060080805E+02  0.83060080805E+02  0.00000000000E+00 0. -1.
         21   -1    0    0  501  502 -0.00000000000E+00 -0.00000000000E+00 -0.55281415986E+03  0.55281415986E+03  0.00000000000E+00 0. -1.
         25    1    1    2    0    0 -0.37738585823E+02 -0.47146541237E+02 -0.19610937940E+03  0.24027252423E+03  0.12500000000E+03 0.  0.
         25    1    1    2    0    0  0.31627893179E+02 -0.32863639884E+02 -0.96214560934E+02  0.16420287509E+03  0.12500000000E+03 0.  0.
         25    1    1    2    0    0  0.61106926440E+01  0.80010181121E+02 -0.17743013871E+03  0.23139884133E+03  0.12500000000E+03 0.  0.
</event>
<event>
 5    0  0.5452999E-005  0.3770760E+03  0.7546771E-02  0.1052020E+00
         21   -1    0    0  502  501  0.00000000000E+00  0.00000000000E+00  0.80112663704E+03  0.80112663704E+03  0.00000000000E+00 0.  1.
         21   -1    0    0  501  502 -0.00000000000E+00 -0.00000000000E+00 -0.17748294337E+03  0.17748294337E+03  0.00000000000E+00 0.  1.
         25    1    1    2    0    0  0.27112074465E+03  0.73604203358E+02  0.27065723463E+03  0.40963932378E+03  0.12500000000E+03 0.  0.
         25    1    1    2    0    0 -0.19437386129E+03  0.57310135699E+02  0.25646396820E+03  0.34994916287E+03  0.12500000000E+03 0.  0.
         25    1    1    2    0    0 -0.76746883357E+02 -0.13091433906E+03  0.96522490845E+02  0.21902109377E+03  0.12500000000E+03 0.  0.
</event>
<event>
 5    0  0.5452999E-005  0.5079911E+03  0.7546771E-02  0.1011714E+00
         21   -1    0    0  502  501  0.00000000000E+00  0.00000000000E+00  0.17437346113E+03  0.17437346113E+03  0.00000000000E+00 0.  1.
         21   -1    0    0  501  502 -0.00000000000E+00 -0.00000000000E+00 -0.14798979578E+04  0.14798979578E+04  0.00000000000E+00 0.  1.
         25    1    1    2    0    0 -0.35731981742E+02  0.18190324761E+03 -0.39842785938E+03  0.45687561233E+03  0.12500000000E+03 0.  0.
         25    1    1    2    0    0 -0.14077395800E+03  0.11896583405E+03 -0.77121400151E+03  0.80272424471E+03  0.12500000000E+03 0.  0.
         25    1    1    2    0    0  0.17650593974E+03 -0.30086908166E+03 -0.13588263580E+03  0.39467156190E+03  0.12500000000E+03 0.  0.
</event>
<event>
 5    0  0.5452999E-005  0.4120955E+03  0.7546771E-02  0.1039670E+00
         21   -1    0    0  502  501  0.00000000000E+00  0.00000000000E+00  0.77669438545E+03  0.77669438545E+03  0.00000000000E+00 0. -1.
         21   -1    0    0  501  502 -0.00000000000E+00 -0.00000000000E+00 -0.21864808215E+03  0.21864808215E+03  0.00000000000E+00 0. -1.
         25    1    1    2    0    0  0.54889625534E+02 -0.28032779359E+03  0.38891512396E+03  0.49847418840E+03  0.12500000000E+03 0.  0.
         25    1    1    2    0    0  0.99983983487E+02  0.18329968132E+03  0.63251753101E+02  0.25143856983E+03  0.12500000000E+03 0.  0.
         25    1    1    2    0    0 -0.15487360902E+03  0.97028112271E+02  0.10587942623E+03  0.24542970937E+03  0.12500000000E+03 0.  0.
</event>
<event>
 5    0  0.5452999E-005  0.2401108E+03  0.7546771E-02  0.1119719E+00
         21   -1    0    0  502  501  0.00000000000E+00  0.00000000000E+00  0.11903472959E+04  0.11903472959E+04  0.00000000000E+00 0.  1.
         21   -1    0    0  501  502 -0.00000000000E+00 -0.00000000000E+00 -0.48433925760E+02  0.48433925760E+02  0.00000000000E+00 0.  1.
         25    1    1    2    0    0 -0.88407373686E+02 -0.55559085632E+02  0.52372202530E+03  0.54846370482E+03  0.12500000000E+03 0.  0.
         25    1    1    2    0    0  0.10420604701E+03 -0.62051195050E+01  0.27587602549E+03  0.32035915030E+03  0.12500000000E+03 0.  0.
         25    1    1    2    0    0 -0.15798673323E+02  0.61764205137E+02  0.34231531939E+03  0.36995836658E+03  0.12500000000E+03 0.  0.
</event>
<event>
 5    0  0.5452999E-005  0.3012931E+03  0.7546771E-02  0.1084596E+00
         21   -1    0    0  502  501  0.00000000000E+00  0.00000000000E+00  0.30487988737E+03  0.30487988737E+03  0.00000000000E+00 0. -1.
         21   -1    0    0  501  502 -0.00000000000E+00 -0.00000000000E+00 -0.29774856474E+03  0.29774856474E+03  0.00000000000E+00 0. -1.
         25    1    1    2    0    0 -0.13416071489E+03 -0.91413866224E+02 -0.12639085148E+03  0.24073894512E+03  0.12500000000E+03 0.  0.
         25    1    1    2    0    0  0.30932623289E+01  0.62198609189E+02  0.10825527928E+03  0.17669872877E+03  0.12500000000E+03 0.  0.
         25    1    1    2    0    0  0.13106745256E+03  0.29215257034E+02  0.25266894818E+02  0.18519077822E+03  0.12500000000E+03 0.  0.
</event>
<event>
 5    0  0.5452999E-005  0.3244806E+03  0.7546771E-02  0.1073605E+00
         21   -1    0    0  502  501  0.00000000000E+00  0.00000000000E+00  0.43252525213E+03  0.43252525213E+03  0.00000000000E+00 0. -1.
         21   -1    0    0  501  502 -0.00000000000E+00 -0.00000000000E+00 -0.24342544590E+03  0.24342544590E+03  0.00000000000E+00 0. -1.
         25    1    1    2    0    0  0.15090885524E+03  0.50411417173E+02 -0.14315925708E+01  0.20234090795E+03  0.12500000000E+03 0.  0.
         25    1    1    2    0    0 -0.94300232219E+02  0.13124861384E+03  0.69735620979E+02  0.21588605620E+03  0.12500000000E+03 0.  0.
         25    1    1    2    0    0 -0.56608623020E+02 -0.18166003101E+03  0.12079577783E+03  0.25772373388E+03  0.12500000000E+03 0.  0.
</event>
<event>
 5    0  0.5452999E-005  0.3476539E+03  0.7546771E-02  0.1063582E+00
         21   -1    0    0  502  501  0.00000000000E+00  0.00000000000E+00  0.20681046802E+03  0.20681046802E+03  0.00000000000E+00 0. -1.
         21   -1    0    0  501  502 -0.00000000000E+00 -0.00000000000E+00 -0.58441561113E+03  0.58441561113E+03  0.00000000000E+00 0. -1.
         25    1    1    2    0    0 -0.42957483375E+02 -0.18037593935E+03  0.74654621878E+02  0.23575227983E+03  0.12500000000E+03 0.  0.
         25    1    1    2    0    0  0.23095818834E+02  0.40639033467E+02 -0.17204882289E+03  0.21774008667E+03  0.12500000000E+03 0.  0.
         25    1    1    2    0    0  0.19861664540E+02  0.13973690589E+03 -0.28021094210E+03  0.33773371264E+03  0.12500000000E+03 0.  0.
</event>
<event>
 5    0  0.5452999E-005  0.3820483E+03  0.7546771E-02  0.1050179E+00
         21   -1    0    0  502  501  0.00000000000E+00  0.00000000000E+00  0.53747813957E+03  0.53747813957E+03  0.00000000000E+00 0. -1.
         21   -1    0    0  501  502 -0.00000000000E+00 -0.00000000000E+00 -0.27156620320E+03  0.27156620320E+03  0.00000000000E+00 0. -1.
         25    1    1    2    0    0  0.65493841311E+02  0.56995507742E+02 -0.90298372107E+02  0.17696532756E+03  0.12500000000E+03 0.  0.
         25    1    1    2    0    0 -0.16786013687E+03 -0.87567213065E+02  0.40181491345E+03  0.46143825916E+03  0.12500000000E+03 0.  0.
         25    1    1    2    0    0  0.10236629555E+03  0.30571705323E+02 -0.45604604973E+02  0.17064075605E+03  0.12500000000E+03 0.  0.
</event>
<event>
 5    0  0.5452999E-005  0.2433954E+03  0.7546771E-02  0.1117551E+00
         21   -1    0    0  502  501  0.00000000000E+00  0.00000000000E+00  0.64631926588E+03  0.64631926588E+03  0.00000000000E+00 0. -1.
         21   -1    0    0  501  502 -0.00000000000E+00 -0.00000000000E+00 -0.91659497629E+02  0.91659497629E+02  0.00000000000E+00 0. -1.
         25    1    1    2    0    0  0.17022936965E+02 -0.93631060266E+01  0.72332291985E+02  0.14572030950E+03  0.12500000000E+03 0.  0.
         25    1    1    2    0    0  0.78084760628E+02 -0.16262573777E+02  0.36669585985E+03  0.39554083832E+03  0.12500000000E+03 0.  0.
         25    1    1    2    0    0 -0.95107697593E+02  0.25625679803E+02  0.11563161642E+03  0.19671761569E+03  0.12500000000E+03 0.  0.
</event>
<event>
 5    0  0.5452999E-005  0.2668131E+03  0.7546771E-02  0.1103118E+00
         21   -1    0    0  502  501  0.00000000000E+00  0.00000000000E+00  0.11633209324E+03  0.11633209324E+03  0.00000000000E+00 0.  1.
         21   -1    0    0  501  502 -0.00000000000E+00 -0.00000000000E+00 -0.61194847760E+03  0.61194847760E+03  0.00000000000E+00 0.  1.
         25    1    1    2    0    0 -0.14814479492E+02  0.41537705286E+02 -0.28912826155E+03  0.31806446106E+03  0.12500000000E+03 0.  0.
         25    1    1    2    0    0  0.11979713621E+03  0.30604461331E+02 -0.96154695278E+02  0.20039638800E+03  0.12500000000E+03 0.  0.
         25    1    1    2    0    0 -0.10498265672E+03 -0.72142166617E+02 -0.11033342753E+03  0.20981972178E+03  0.12500000000E+03 0.  0.
</event>
<event>
 5    0  0.5502539E-005  0.2920721E+03  0.7546771E-02  0.1089272E+00
         21   -1    0    0  502  501  0.00000000000E+00  0.00000000000E+00  0.54275848006E+03  0.54275848006E+03  0.00000000000E+00 0.  1.
         21   -1    0    0  501  502 -0.00000000000E+00 -0.00000000000E+00 -0.15717145212E+03  0.15717145212E+03  0.00000000000E+00 0.  1.
         25    1    1    2    0    0  0.52940634812E+02 -0.10675986343E+03  0.30534795513E+03  0.35080301161E+03  0.12500000000E+03 0.  0.
         25    1    1    2    0    0  0.44621620566E+02  0.10638116935E+03 -0.28254707790E+01  0.17012062044E+03  0.12500000000E+03 0.  0.
         25    1    1    2    0    0 -0.97562255378E+02  0.37869408459E+00  0.83064543587E+02  0.17900630013E+03  0.12500000000E+03 0.  0.
</event>
<event>
 5    0  0.5452999E-005  0.3414028E+03  0.7546771E-02  0.1066200E+00
         21   -1    0    0  502  501  0.00000000000E+00  0.00000000000E+00  0.99935105216E+02  0.99935105216E+02  0.00000000000E+00 0. -1.
         21   -1    0    0  501  502 -0.00000000000E+00 -0.00000000000E+00 -0.11663156609E+04  0.11663156609E+04  0.00000000000E+00 0. -1.
         25    1    1    2    0    0  0.12324884762E+03  0.13972021659E+03 -0.59929447052E+03  0.63991474413E+03  0.12500000000E+03 0.  0.
         25    1    1    2    0    0  0.27875473313E+02 -0.32692187110E+02 -0.34992347012E+03  0.37405515108E+03  0.12500000000E+03 0.  0.
         25    1    1    2    0    0 -0.15112432094E+03 -0.10702802948E+03 -0.11716261509E+03  0.25228087095E+03  0.12500000000E+03 0.  0.
</event>
<event>
 5    0  0.5452999E-005  0.2791605E+03  0.7546771E-02  0.1096148E+00
         21   -1    0    0  502  501  0.00000000000E+00  0.00000000000E+00  0.38464892256E+03  0.38464892256E+03  0.00000000000E+00 0. -1.
         21   -1    0    0  501  502 -0.00000000000E+00 -0.00000000000E+00 -0.20260191809E+03  0.20260191809E+03  0.00000000000E+00 0. -1.
         25    1    1    2    0    0 -0.75444305085E+02  0.95712863882E+02  0.14271007025E+03  0.22548605197E+03  0.12500000000E+03 0.  0.
         25    1    1    2    0    0 -0.51514854864E+02 -0.62726437975E+02 -0.53270571375E+02  0.15827551948E+03  0.12500000000E+03 0.  0.
         25    1    1    2    0    0  0.12695915995E+03 -0.32986425907E+02  0.92607505598E+02  0.20348926921E+03  0.12500000000E+03 0.  0.
</event>
<event>
 5    0  0.5452999E-005  0.4353972E+03  0.7546771E-02  0.1032168E+00
         21   -1    0    0  502  501  0.00000000000E+00  0.00000000000E+00  0.26685477409E+03  0.26685477409E+03  0.00000000000E+00 0.  1.
         21   -1    0    0  501  502 -0.00000000000E+00 -0.00000000000E+00 -0.71038912255E+03  0.71038912255E+03  0.00000000000E+00 0. -1.
         25    1    1    2    0    0  0.24648239389E+03  0.13727053177E+03 -0.13867042364E+02  0.30889167074E+03  0.12500000000E+03 0.  0.
         25    1    1    2    0    0 -0.66844031308E+02 -0.11073040083E+02 -0.38681171603E+03  0.41211532415E+03  0.12500000000E+03 0.  0.
         25    1    1    2    0    0 -0.17963836258E+03 -0.12619749169E+03 -0.42855590065E+02  0.25623690175E+03  0.12500000000E+03 0.  0.
</event>
<event>
 5    0  0.5452999E-005  0.2544126E+03  0.7546771E-02  0.1110547E+00
         21   -1    0    0  502  501  0.00000000000E+00  0.00000000000E+00  0.96409352750E+03  0.96409352750E+03  0.00000000000E+00 0.  1.
         21   -1    0    0  501  502 -0.00000000000E+00 -0.00000000000E+00 -0.67136425573E+02  0.67136425573E+02  0.00000000000E+00 0.  1.
         25    1    1    2    0    0  0.57840629487E+02 -0.29832113121E+02  0.17475980440E+03  0.22450274525E+03  0.12500000000E+03 0.  0.
         25    1    1    2    0    0  0.30536530131E+02 -0.35216712362E+02  0.11176111724E+03  0.17403517986E+03  0.12500000000E+03 0.  0.
         25    1    1    2    0    0 -0.88377159618E+02  0.65048825483E+02  0.61043618029E+03  0.63269202796E+03  0.12500000000E+03 0.  0.
</event>
<event>
 5    0  0.5452999E-005  0.4173370E+03  0.7546771E-02  0.1037937E+00
         21   -1    0    0  502  501  0.00000000000E+00  0.00000000000E+00  0.16546447088E+04  0.16546447088E+04  0.00000000000E+00 0.  1.
         21   -1    0    0  501  502 -0.00000000000E+00 -0.00000000000E+00 -0.10526138090E+03  0.10526138090E+03  0.00000000000E+00 0.  1.
         25    1    1    2    0    0  0.28588502203E+03  0.93800587856E+01  0.43376201822E+03  0.53440875720E+03  0.12500000000E+03 0.  0.
         25    1    1    2    0    0 -0.18850243259E+03 -0.65480436648E+02  0.98462072265E+03  0.10123852143E+04  0.12500000000E+03 0.  0.
         25    1    1    2    0    0 -0.97382589437E+02  0.56100377862E+02  0.13100058703E+03  0.21311211820E+03  0.12500000000E+03 0.  0.
</event>
<event>
 5    0  0.5452999E-005  0.3194906E+03  0.7546771E-02  0.1075884E+00
         21   -1    0    0  502  501  0.00000000000E+00  0.00000000000E+00  0.15724770379E+03  0.15724770379E+03  0.00000000000E+00 0. -1.
         21   -1    0    0  501  502 -0.00000000000E+00 -0.00000000000E+00 -0.64913011686E+03  0.64913011686E+03  0.00000000000E+00 0. -1.
         25    1    1    2    0    0  0.14063725180E+03 -0.83768512292E+02 -0.12532095345E+02  0.20634450237E+03  0.12500000000E+03 0.  0.
         25    1    1    2    0    0 -0.12097852318E+03  0.10770753443E+03 -0.39855879390E+03  0.44800762074E+03  0.12500000000E+03 0.  0.
         25    1    1    2    0    0 -0.19658728623E+02 -0.23939022134E+02 -0.80791523820E+02  0.15202569754E+03  0.12500000000E+03 0.  0.
</event>
<event>
 5    0  0.5452999E-005  0.3221641E+03  0.7546771E-02  0.1074658E+00
         21   -1    0    0  502  501  0.00000000000E+00  0.00000000000E+00  0.26529756000E+03  0.26529756000E+03  0.00000000000E+00 0. -1.
         21   -1    0    0  501  502 -0.00000000000E+00 -0.00000000000E+00 -0.39122005503E+03  0.39122005503E+03  0.00000000000E+00 0. -1.
         25    1    1    2    0    0 -0.55640877442E+02  0.65063305850E+02 -0.11396208990E+03  0.18958243311E+03  0.12500000000E+03 0.  0.
         25    1    1    2    0    0  0.94847751653E+02  0.19347287257E+02  0.16677230274E+03  0.22980081479E+03  0.12500000000E+03 0.  0.
         25    1    1    2    0    0 -0.39206874211E+02 -0.84410593107E+02 -0.17873270787E+03  0.23713436714E+03  0.12500000000E+03 0.  0.
</event>
<event>
 5    0  0.5452999E-005  0.3752394E+03  0.7546771E-02  0.1052707E+00
         21   -1    0    0  502  501  0.00000000000E+00  0.00000000000E+00  0.33057106070E+03  0.33057106070E+03  0.00000000000E+00 0. -1.
         21   -1    0    0  501  502 -0.00000000000E+00 -0.00000000000E+00 -0.42594355739E+03  0.42594355739E+03  0.00000000000E+00 0. -1.
         25    1    1    2    0    0  0.10154007574E+03 -0.23715118631E+03 -0.14221481947E+03  0.32000176097E+03  0.12500000000E+03 0.  0.
         25    1    1    2    0    0 -0.11682041730E+03  0.22385805297E+03 -0.37686972182E+02  0.28426175552E+03  0.12500000000E+03 0.  0.
         25    1    1    2    0    0  0.15280341565E+02  0.13293133343E+02  0.84529294957E+02  0.15225110160E+03  0.12500000000E+03 0.  0.
</event>
<event>
 5    0  0.5452999E-005  0.2231085E+03  0.7546771E-02  0.1131587E+00
         21   -1    0    0  502  501  0.00000000000E+00  0.00000000000E+00  0.31672788141E+02  0.31672788141E+02  0.00000000000E+00 0. -1.
         21   -1    0    0  501  502 -0.00000000000E+00 -0.00000000000E+00 -0.15716147273E+04  0.15716147273E+04  0.00000000000E+00 0. -1.
         25    1    1    2    0    0  0.75907169134E+01  0.16603919668E+02 -0.57639959181E+03  0.59008033230E+03  0.12500000000E+03 0.  0.
         25    1    1    2    0    0  0.90137759841E+02 -0.79592174014E+01 -0.48809763613E+03  0.51191060478E+03  0.12500000000E+03 0.  0.
         25    1    1    2    0    0 -0.97728476755E+02 -0.86447022671E+01 -0.47544471118E+03  0.50129657832E+03  0.12500000000E+03 0.  0.
</event>
<event>
 5    0  0.5452999E-005  0.3124842E+03  0.7546771E-02  0.1079161E+00
         21   -1    0    0  502  501  0.00000000000E+00  0.00000000000E+00  0.24494951515E+03  0.24494951515E+03  0.00000000000E+00 0.  1.
         21   -1    0    0  501  502 -0.00000000000E+00 -0.00000000000E+00 -0.39863873644E+03  0.39863873644E+03  0.00000000000E+00 0.  1.
         25    1    1    2    0    0 -0.93856468016E+02  0.68965885260E+02 -0.97145720479E+02  0.19653910788E+03  0.12500000000E+03 0.  0.
         25    1    1    2    0    0  0.46314212286E+02 -0.20089012747E+03 -0.87854303891E+02  0.25660325073E+03  0.12500000000E+03 0.  0.
         25    1    1    2    0    0  0.47542255730E+02  0.13192424221E+03  0.31310803081E+02  0.19044589298E+03  0.12500000000E+03 0.  0.
</event>
<event>
 5    0  0.5452999E-005  0.2420802E+03  0.7546771E-02  0.1118415E+00
         21   -1    0    0  502  501  0.00000000000E+00  0.00000000000E+00  0.71103513970E+02  0.71103513970E+02  0.00000000000E+00 0.  1.
         21   -1    0    0  501  502 -0.00000000000E+00 -0.00000000000E+00 -0.82418993873E+03  0.82418993873E+03  0.00000000000E+00 0.  1.
         25    1    1    2    0    0 -0.39049479110E+02  0.31530354609E+02 -0.15822680988E+03  0.20779737353E+03  0.12500000000E+03 0.  0.
         25    1    1    2    0    0  0.99173946841E+02  0.40439353180E+02 -0.17867748431E+03  0.24294331935E+03  0.12500000000E+03 0.  0.
         25    1    1    2    0    0 -0.60124467731E+02 -0.71969707789E+02 -0.41618213057E+03  0.44455275982E+03  0.12500000000E+03 0.  0.
</event>
<event>
 5    0  0.5734974E-005  0.3797309E+03  0.7546771E-02  0.1051033E+00
         21   -1    0    0  502  501  0.00000000000E+00  0.00000000000E+00  0.31260448699E+03  0.31260448699E+03  0.00000000000E+00 0. -1.
         21   -1    0    0  501  502 -0.00000000000E+00 -0.00000000000E+00 -0.46127151999E+03  0.46127151999E+03  0.00000000000E+00 0. -1.
         25    1    1    2    0    0 -0.11589694196E+02 -0.39131445699E+02  0.13691735488E+03  0.18983401466E+03  0.12500000000E+03 0.  0.
         25    1    1    2    0    0 -0.90757225614E+02  0.20196856005E+03 -0.24106739883E+03  0.35038074152E+03  0.12500000000E+03 0.  0.
         25    1    1    2    0    0  0.10234691981E+03 -0.16283711436E+03 -0.44516989048E+02  0.23366125079E+03  0.12500000000E+03 0.  0.
</event>
<event>
 5    0  0.5452999E-005  0.2182602E+03  0.7546771E-02  0.1135187E+00
         21   -1    0    0  502  501  0.00000000000E+00  0.00000000000E+00  0.18826543060E+03  0.18826543060E+03  0.00000000000E+00 0.  1.
         21   -1    0    0  501  502 -0.00000000000E+00 -0.00000000000E+00 -0.25303384537E+03  0.25303384537E+03  0.00000000000E+00 0.  1.
         25    1    1    2    0    0  0.55817880433E+01  0.78229751728E+02  0.18797971599E+02  0.14875958507E+03  0.12500000000E+03 0.  0.
         25    1    1    2    0    0 -0.42613493650E+02 -0.15152847109E+02 -0.59852177966E+02  0.14578340723E+03  0.12500000000E+03 0.  0.
         25    1    1    2    0    0  0.37031705607E+02 -0.63076904619E+02 -0.23714208409E+02  0.14675628367E+03  0.12500000000E+03 0.  0.
</event>
<event>
 5    0  0.5452999E-005  0.3294882E+03  0.7546771E-02  0.1071364E+00
         21   -1    0    0  502  501  0.00000000000E+00  0.00000000000E+00  0.38998356647E+03  0.38998356647E+03  0.00000000000E+00 0. -1.
         21   -1    0    0  501  502 -0.00000000000E+00 -0.00000000000E+00 -0.27837697995E+03  0.27837697995E+03  0.00000000000E+00 0. -1.
         25    1    1    2    0    0  0.20976561374E+03 -0.83677248430E+02 -0.48555818596E+02  0.26265216948E+03  0.12500000000E+03 0.  0.
         25    1    1    2    0    0 -0.18726829404E+03  0.32610536971E+02  0.14055714938E+03  0.26742134043E+03  0.12500000000E+03 0.  0.
         25    1    1    2    0    0 -0.22497319701E+02  0.51066711459E+02  0.19605255739E+02  0.13828703651E+03  0.12500000000E+03 0.  0.
</event>
<event>
 5    0  0.5464832E-005  0.2823562E+03  0.7546771E-02  0.1094409E+00
         21   -1    0    0  502  501  0.00000000000E+00  0.00000000000E+00  0.22871310509E+03  0.22871310509E+03  0.00000000000E+00 0. -1.
         21   -1    0    0  501  502 -0.00000000000E+00 -0.00000000000E+00 -0.34858101171E+03  0.34858101171E+03  0.00000000000E+00 0. -1.
         25    1    1    2    0    0  0.90262449292E+02  0.52014094541E+02 -0.11878428501E+03  0.20146335187E+03  0.12500000000E+03 0.  0.
         25    1    1    2    0    0 -0.24724191980E+02  0.26412203877E+02  0.11763450784E+03  0.17541883485E+03  0.12500000000E+03 0.  0.
         25    1    1    2    0    0 -0.65538257312E+02 -0.78426298418E+02 -0.11871812946E+03  0.20041193008E+03  0.12500000000E+03 0.  0.
</event>
<event>
 5    0  0.5452999E-005  0.3240249E+03  0.7546771E-02  0.1073812E+00
         21   -1    0    0  502  501  0.00000000000E+00  0.00000000000E+00  0.23953267508E+03  0.23953267508E+03  0.00000000000E+00 0. -1.
         21   -1    0    0  501  502 -0.00000000000E+00 -0.00000000000E+00 -0.43832082422E+03  0.43832082422E+03  0.00000000000E+00 0. -1.
         25    1    1    2    0    0  0.20539876054E+03  0.84826833630E+02 -0.18194067507E+03  0.31322779535E+03  0.12500000000E+03 0.  0.
         25    1    1    2    0    0 -0.15856004396E+03  0.64041290462E+01 -0.19248410520E+02  0.20292314239E+03  0.12500000000E+03 0.  0.
         25    1    1    2    0    0 -0.46838716574E+02 -0.91230962676E+02  0.24009364471E+01  0.16170256157E+03  0.12500000000E+03 0.  0.
</event>
<event>
 5    0  0.5452999E-005  0.4301463E+03  0.7546771E-02  0.1033814E+00
         21   -1    0    0  502  501  0.00000000000E+00  0.00000000000E+00  0.98721238213E+03  0.98721238213E+03  0.00000000000E+00 0. -1.
         21   -1    0    0  501  502 -0.00000000000E+00 -0.00000000000E+00 -0.18742256265E+03  0.18742256265E+03  0.00000000000E+00 0. -1.
         25    1    1    2    0    0 -0.69620199729E+02  0.28035959087E+03  0.29022112471E+03  0.42813756391E+03  0.12500000000E+03 0.  0.
         25    1    1    2    0    0 -0.70619079395E+02 -0.30654614914E+02  0.38153381751E+03  0.40880290324E+03  0.12500000000E+03 0.  0.
         25    1    1    2    0    0  0.14023927912E+03 -0.24970497596E+03  0.12803487725E+03  0.33769447763E+03  0.12500000000E+03 0.  0.
</event>
<event>
 5    0  0.5452999E-005  0.2520602E+03  0.7546771E-02  0.1112010E+00
         21   -1    0    0  502  501  0.00000000000E+00  0.00000000000E+00  0.57412957949E+03  0.57412957949E+03  0.00000000000E+00 0.  1.
         21   -1    0    0  501  502 -0.00000000000E+00 -0.00000000000E+00 -0.11066203276E+03  0.11066203276E+03  0.00000000000E+00 0.  1.
         25    1    1    2    0    0  0.82791134197E+02 -0.86662460245E+02  0.60910997538E+02  0.18357533478E+03  0.12500000000E+03 0.  0.
         25    1    1    2    0    0 -0.64238777425E+02  0.50749863804E+02  0.12761848564E+03  0.19650355487E+03  0.12500000000E+03 0.  0.
         25    1    1    2    0    0 -0.18552356772E+02  0.35912596441E+02  0.27493806355E+03  0.30471272260E+03  0.12500000000E+03 0.  0.
</event>
<event>
 5    0  0.5452999E-005  0.2119771E+03  0.7546771E-02  0.1140010E+00
         21   -1    0    0  502  501  0.00000000000E+00  0.00000000000E+00  0.13895655399E+03  0.13895655399E+03  0.00000000000E+00 0. -1.
         21   -1    0    0  501  502 -0.00000000000E+00 -0.00000000000E+00 -0.32336946066E+03  0.32336946066E+03  0.00000000000E+00 0. -1.
         25    1    1    2    0    0  0.90082909620E+01 -0.61150627140E+02 -0.53593132007E+02  0.14939133945E+03  0.12500000000E+03 0.  0.
         25    1    1    2    0    0 -0.43289717848E+02 -0.13772059846E+02 -0.45202819647E+02  0.14047051010E+03  0.12500000000E+03 0.  0.
         25    1    1    2    0    0  0.34281426886E+02  0.74922686986E+02 -0.85616955022E+02  0.17246416509E+03  0.12500000000E+03 0.  0.
</event>
<event>
 5    0  0.5452999E-005  0.3024174E+03  0.7546771E-02  0.1084038E+00
         21   -1    0    0  502  501  0.00000000000E+00  0.00000000000E+00  0.27552033907E+04  0.27552033907E+04  0.00000000000E+00 0. -1.
         21   -1    0    0  501  502 -0.00000000000E+00 -0.00000000000E+00 -0.33194025345E+02  0.33194025345E+02  0.00000000000E+00 0. -1.
         25    1    1    2    0    0  0.75459412681E+02  0.11543254177E+03  0.68978159510E+03  0.71445254818E+03  0.12500000000E+03 0.  0.
         25    1    1    2    0    0  0.64897411729E+02 -0.14825484731E+03  0.74104633646E+03  0.76874303027E+03  0.12500000000E+03 0.  0.
         25    1    1    2    0    0 -0.14035682441E+03  0.32822305537E+02  0.12911814338E+04  0.13052018376E+04  0.12500000000E+03 0.  0.
</event>
<event>
 5    0  0.5452999E-005  0.2031957E+03  0.7546771E-02  0.1147070E+00
         21   -1    0    0  502  501  0.00000000000E+00  0.00000000000E+00  0.41777994210E+02  0.41777994210E+02  0.00000000000E+00 0.  1.
         21   -1    0    0  501  502 -0.00000000000E+00 -0.00000000000E+00 -0.98828365275E+03  0.98828365275E+03  0.00000000000E+00 0.  1.
         25    1    1    2    0    0 -0.51172796200E+02  0.80575903037E+01 -0.36311274010E+03  0.38750411850E+03  0.12500000000E+03 0.  0.
         25    1    1    2    0    0 -0.74543987381E+01 -0.32762420903E+01 -0.21121197026E+03  0.24556424456E+03  0.12500000000E+03 0.  0.
         25    1    1    2    0    0  0.58627194938E+02 -0.47813482134E+01 -0.37218094818E+03  0.39699328390E+03  0.12500000000E+03 0.  0.
</event>
<event>
 5    0  0.5452999E-005  0.2594928E+03  0.7546771E-02  0.1107448E+00
         21   -1    0    0  502  501  0.00000000000E+00  0.00000000000E+00  0.41400115604E+02  0.41400115604E+02  0.00000000000E+00 0.  1.
         21   -1    0    0  501  502 -0.00000000000E+00 -0.00000000000E+00 -0.16264813153E+04  0.16264813153E+04  0.00000000000E+00 0.  1.
         25    1    1    2    0    0  0.96423600817E+02  0.86055183509E+02 -0.66830222219E+03  0.69206637369E+03  0.12500000000E+03 0.  0.
         25    1    1    2    0    0 -0.85848317157E+02 -0.12720701675E+03 -0.62415155272E+03  0.65478371958E+03  0.12500000000E+03 0.  0.
         25    1    1    2    0    0 -0.10575283659E+02  0.41151833241E+02 -0.29262742474E+03  0.32103133759E+03  0.12500000000E+03 0.  0.
</event>
<event>
 5    0  0.5452999E-005  0.2905759E+03  0.7546771E-02  0.1090049E+00
         21   -1    0    0  502  501  0.00000000000E+00  0.00000000000E+00  0.12142738904E+03  0.12142738904E+03  0.00000000000E+00 0.  1.
         21   -1    0    0  501  502 -0.00000000000E+00 -0.00000000000E+00 -0.69534858207E+03  0.69534858207E+03  0.00000000000E+00 0.  1.
         25    1    1    2    0    0  0.43981683856E+02 -0.84109237102E+02 -0.46866255887E+03  0.49424522898E+03  0.12500000000E+03 0.  0.
         25    1    1    2    0    0 -0.33375190137E+02 -0.32404746219E+02 -0.53032396309E+02  0.14353189873E+03  0.12500000000E+03 0.  0.
         25    1    1    2    0    0 -0.10606493720E+02  0.11651398332E+03 -0.52226237854E+02  0.17899884340E+03  0.12500000000E+03 0.  0.
</event>
<event>
 5    0  0.5452999E-005  0.3228671E+03  0.7546771E-02  0.1074337E+00
         21   -1    0    0  502  501  0.00000000000E+00  0.00000000000E+00  0.27304784799E+03  0.27304784799E+03  0.00000000000E+00 0.  1.
         21   -1    0    0  501  502 -0.00000000000E+00 -0.00000000000E+00 -0.38177607782E+03  0.38177607782E+03  0.00000000000E+00 0.  1.
         25    1    1    2    0    0 -0.41158045001E+02  0.18907663172E+01  0.53321828997E+02  0.14200625730E+03  0.12500000000E+03 0.  0.
         25    1    1    2    0    0  0.12167624476E+03  0.14842019178E+03  0.25163078164E+02  0.23041667120E+03  0.12500000000E+03 0.  0.
         25    1    1    2    0    0 -0.80518199754E+02 -0.15031095810E+03 -0.18721313699E+03  0.28240099730E+03  0.12500000000E+03 0.  0.
</event>
<event>
 5    0  0.5452999E-005  0.3938074E+03  0.7546771E-02  0.1045945E+00
         21   -1    0    0  502  501  0.00000000000E+00  0.00000000000E+00  0.14747943105E+03  0.14747943105E+03  0.00000000000E+00 0.  1.
         21   -1    0    0  501  502 -0.00000000000E+00 -0.00000000000E+00 -0.10515655627E+04  0.10515655627E+04  0.00000000000E+00 0.  1.
         25    1    1    2    0    0 -0.17745606117E+03  0.20874416363E+03 -0.38543459154E+03  0.48913147911E+03  0.12500000000E+03 0.  0.
         25    1    1    2    0    0 -0.24155264647E+02 -0.42119263361E+02 -0.23497179340E+02  0.13614193547E+03  0.12500000000E+03 0.  0.
         25    1    1    2    0    0  0.20161132581E+03 -0.16662490027E+03 -0.49515436077E+03  0.57377157918E+03  0.12500000000E+03 0.  0.
</event>
<event>
 5    0  0.5452999E-005  0.4670195E+03  0.7546771E-02  0.1022765E+00
         21   -1    0    0  502  501  0.00000000000E+00  0.00000000000E+00  0.34904447675E+03  0.34904447675E+03  0.00000000000E+00 0. -1.
         21   -1    0    0  501  502 -0.00000000000E+00 -0.00000000000E+00 -0.62486945453E+03  0.62486945453E+03  0.00000000000E+00 0. -1.
         25    1    1    2    0    0 -0.30860020132E+03  0.13484845935E+03  0.86316916756E+02  0.36945067514E+03  0.12500000000E+03 0.  0.
         25    1    1    2    0    0  0.15269103856E+03 -0.88089329227E+02 -0.33328796939E+03  0.39721550035E+03  0.12500000000E+03 0.  0.
         25    1    1    2    0    0  0.15590916276E+03 -0.46759130121E+02 -0.28853925144E+02  0.20724775579E+03  0.12500000000E+03 0.  0.
</event>
<event>
 5    0  0.5452999E-005  0.2921963E+03  0.7546771E-02  0.1089208E+00
         21   -1    0    0  502  501  0.00000000000E+00  0.00000000000E+00  0.10937485118E+03  0.10937485118E+03  0.00000000000E+00 0. -1.
         21   -1    0    0  501  502 -0.00000000000E+00 -0.00000000000E+00 -0.78060623875E+03  0.78060623875E+03  0.00000000000E+00 0. -1.
         25    1    1    2    0    0  0.13632962224E+03  0.12870886194E+03 -0.21405718308E+03  0.31080092450E+03  0.12500000000E+03 0.  0.
         25    1    1    2    0    0 -0.49153047894E+02 -0.13442035263E+03 -0.32914083668E+03  0.38005729001E+03  0.12500000000E+03 0.  0.
         25    1    1    2    0    0 -0.87176574351E+02  0.57114906934E+01 -0.12803336782E+03  0.19912287542E+03  0.12500000000E+03 0.  0.
</event>
<event>
 5    0  0.5452999E-005  0.2724412E+03  0.7546771E-02  0.1099891E+00
         21   -1    0    0  502  501  0.00000000000E+00  0.00000000000E+00  0.18237838864E+03  0.18237838864E+03  0.00000000000E+00 0. -1.
         21   -1    0    0  501  502 -0.00000000000E+00 -0.00000000000E+00 -0.40697923131E+03  0.40697923131E+03  0.00000000000E+00 0. -1.
         25    1    1    2    0    0 -0.28484559222E+02 -0.11313550247E+02 -0.44084935090E+02  0.13604355198E+03  0.12500000000E+03 0.  0.
         25    1    1    2    0    0 -0.11630784836E+03  0.25570221235E+02  0.22393434040E+02  0.17409140614E+03  0.12500000000E+03 0.  0.
         25    1    1    2    0    0  0.14479240758E+03 -0.14256670989E+02 -0.20290934162E+03  0.27922266183E+03  0.12500000000E+03 0.  0.
</event>
<event>
 5    0  0.5489458E-005  0.2851012E+03  0.7546771E-02  0.1092935E+00
         21   -1    0    0  502  501  0.00000000000E+00  0.00000000000E+00  0.16096321775E+03  0.16096321775E+03  0.00000000000E+00 0.  1.
         21   -1    0    0  501  502 -0.00000000000E+00 -0.00000000000E+00 -0.50497671194E+03  0.50497671194E+03  0.00000000000E+00 0.  1.
         25    1    1    2    0    0  0.85369323538E+02 -0.77351480322E+02 -0.17894542418E+02  0.17092801864E+03  0.12500000000E+03 0.  0.
         25    1    1    2    0    0  0.52712867965E+02 -0.50408804046E+02 -0.10388113680E+03  0.17814596419E+03  0.12500000000E+03 0.  0.
         25    1    1    2    0    0 -0.13808219150E+03  0.12776028437E+03 -0.22223781498E+03  0.31686594686E+03  0.12500000000E+03 0.  0.
</event>
<event>
 5    0  0.5452999E-005  0.3337983E+03  0.7546771E-02  0.1069469E+00
         21   -1    0    0  502  501  0.00000000000E+00  0.00000000000E+00  0.30027241462E+03  0.30027241462E+03  0.00000000000E+00 0.  1.
         21   -1    0    0  501  502 -0.00000000000E+00 -0.00000000000E+00 -0.37106735613E+03  0.37106735613E+03  0.00000000000E+00 0.  1.
         25    1    1    2    0    0 -0.48192164199E+02  0.22960507573E+02 -0.86501902893E+01  0.13619653223E+03  0.12500000000E+03 0.  0.
         25    1    1    2    0    0  0.14078337255E+03 -0.17709773893E+03  0.84099495298E+02  0.27181113338E+03  0.12500000000E+03 0.  0.
         25    1    1    2    0    0 -0.92591208354E+02  0.15413723136E+03 -0.14624424652E+03  0.26333210514E+03  0.12500000000E+03 0.  0.
</event>
<event>
 5    0  0.5452999E-005  0.2376695E+03  0.7546771E-02  0.1121355E+00
         21   -1    0    0  502  501  0.00000000000E+00  0.00000000000E+00  0.38949128625E+02  0.38949128625E+02  0.00000000000E+00 0.  1.
         21   -1    0    0  501  502 -0.00000000000E+00 -0.00000000000E+00 -0.14502714307E+04  0.14502714307E+04  0.00000000000E+00 0.  1.
         25    1    1    2    0    0  0.34597934854E+01 -0.12618037334E+03 -0.71098878259E+03  0.73284616787E+03  0.12500000000E+03 0.  0.
         25    1    1    2    0    0  0.22748328035E+02  0.78645012841E+02 -0.37046301001E+03  0.39946259682E+03  0.12500000000E+03 0.  0.
         25    1    1    2    0    0 -0.26208121520E+02  0.47535360504E+02 -0.32987050952E+03  0.35691179468E+03  0.12500000000E+03 0.  0.
</event>
<event>
 5    0  0.5452999E-005  0.2777646E+03  0.7546771E-02  0.1096916E+00
         21   -1    0    0  502  501  0.00000000000E+00  0.00000000000E+00  0.73407449978E+02  0.73407449978E+02  0.00000000000E+00 0.  1.
         21   -1    0    0  501  502 -0.00000000000E+00 -0.00000000000E+00 -0.10510266701E+04  0.10510266701E+04  0.00000000000E+00 0.  1.
         25    1    1    2    0    0 -0.41479258026E+01 -0.20958955793E+02 -0.63651973228E+03  0.64902916167E+03  0.12500000000E+03 0.  0.
         25    1    1    2    0    0 -0.83341063663E-01 -0.92619200602E+02 -0.21109039947E+03  0.26222600942E+03  0.12500000000E+03 0.  0.
         25    1    1    2    0    0  0.42312668662E+01  0.11357815640E+03 -0.13000908834E+03  0.21317894896E+03  0.12500000000E+03 0.  0.
</event>
<event>
 5    0  0.5452999E-005  0.3491831E+03  0.7546771E-02  0.1062951E+00
         21   -1    0    0  502  501  0.00000000000E+00  0.00000000000E+00  0.12438185352E+03  0.12438185352E+03  0.00000000000E+00 0.  1.
         21   -1    0    0  501  502 -0.00000000000E+00 -0.00000000000E+00 -0.98027819564E+03  0.98027819564E+03  0.00000000000E+00 0.  1.
         25    1    1    2    0    0  0.43441258182E+02  0.61196189809E+02 -0.71379143538E+03  0.72852956685E+03  0.12500000000E+03 0.  0.
         25    1    1    2    0    0 -0.33281785743E+02  0.81537809339E+02 -0.30975336167E+02  0.15601462452E+03  0.12500000000E+03 0.  0.
         25    1    1    2    0    0 -0.10159472440E+02 -0.14273399915E+03 -0.11112957057E+03  0.22011585779E+03  0.12500000000E+03 0.  0.
</event>
<event>
 5    0  0.5452999E-005  0.2175389E+03  0.7546771E-02  0.1135731E+00
         21   -1    0    0  502  501  0.00000000000E+00  0.00000000000E+00  0.16457490642E+04  0.16457490642E+04  0.00000000000E+00 0. -1.
         21   -1    0    0  501  502 -0.00000000000E+00 -0.00000000000E+00 -0.28754784345E+02  0.28754784345E+02  0.00000000000E+00 0. -1.
         25    1    1    2    0    0  0.12128728117E+01  0.12549025634E+02  0.37969068341E+03  0.39993620012E+03  0.12500000000E+03 0.  0.
         25    1    1    2    0    0  0.31956277451E+01 -0.56387928697E+02  0.92772929766E+03  0.93781472599E+03  0.12500000000E+03 0.  0.
         25    1    1    2    0    0 -0.44085005568E+01  0.43838903063E+02  0.30957429882E+03  0.33675292246E+03  0.12500000000E+03 0.  0.
</event>
<event>
 5    0  0.5452999E-005  0.2678894E+03  0.7546771E-02  0.1102494E+00
         21   -1    0    0  502  501  0.00000000000E+00  0.00000000000E+00  0.13751771287E+04  0.13751771287E+04  0.00000000000E+00 0.  1.
         21   -1    0    0  501  502 -0.00000000000E+00 -0.00000000000E+00 -0.52185823795E+02  0.52185823795E+02  0.00000000000E+00 0.  1.
         25    1    1    2    0    0  0.20103226252E+01  0.11050457365E+03  0.65198275808E+03  0.67299466494E+03  0.12500000000E+03 0.  0.
         25    1    1    2    0    0 -0.44194365263E+02  0.30335694361E+02  0.17154328775E+03  0.21891892528E+03  0.12500000000E+03 0.  0.
         25    1    1    2    0    0  0.42184042638E+02 -0.14084026801E+03  0.49946525906E+03  0.53544936227E+03  0.12500000000E+03 0.  0.
</event>
<event>
 5    0  0.5452999E-005  0.2417915E+03  0.7546771E-02  0.1118605E+00
         21   -1    0    0  502  501  0.00000000000E+00  0.00000000000E+00  0.21150851818E+03  0.21150851818E+03  0.00000000000E+00 0. -1.
         21   -1    0    0  501  502 -0.00000000000E+00 -0.00000000000E+00 -0.27641034330E+03  0.27641034330E+03  0.00000000000E+00 0. -1.
         25    1    1    2    0    0  0.34121199095E+02 -0.34505743183E+02  0.29872840512E+02  0.13737645046E+03  0.12500000000E+03 0.  0.
         25    1    1    2    0    0 -0.28818497547E+02  0.63807695138E+02 -0.15287679880E+03  0.20951907639E+03  0.12500000000E+03 0.  0.
         25    1    1    2    0    0 -0.53027015474E+01 -0.29301951954E+02  0.58102133161E+02  0.14102333463E+03  0.12500000000E+03 0.  0.
</event>
<event>
 5    0  0.5452999E-005  0.2591780E+03  0.7546771E-02  0.1107638E+00
         21   -1    0    0  502  501  0.00000000000E+00  0.00000000000E+00  0.93350603534E+03  0.93350603534E+03  0.00000000000E+00 0.  1.
         21   -1    0    0  501  502 -0.00000000000E+00 -0.00000000000E+00 -0.71958030227E+02  0.71958030227E+02  0.00000000000E+00 0.  1.
         25    1    1    2    0    0  0.34381840467E+02  0.12780025674E+03  0.16042636730E+03  0.24264508218E+03  0.12500000000E+03 0.  0.
         25    1    1    2    0    0  0.81444881895E+01 -0.13786157694E+02  0.28632531129E+03  0.31283154367E+03  0.12500000000E+03 0.  0.
         25    1    1    2    0    0 -0.42526328656E+02 -0.11401409905E+03  0.41479632653E+03  0.44998743973E+03  0.12500000000E+03 0.  0.
</event>
<event>
 5    0  0.5452999E-005  0.2569884E+03  0.7546771E-02  0.1108966E+00
         21   -1    0    0  502  501  0.00000000000E+00  0.00000000000E+00  0.95459739690E+03  0.95459739690E+03  0.00000000000E+00 0. -1.
         21   -1    0    0  501  502 -0.00000000000E+00 -0.00000000000E+00 -0.69184165988E+02  0.69184165988E+02  0.00000000000E+00 0. -1.
         25    1    1    2    0    0 -0.73870893608E+02  0.70098212467E+02  0.19337038296E+03  0.25176928589E+03  0.12500000000E+03 0.  0.
         25    1    1    2    0    0  0.86649053397E+02 -0.11419234716E+03  0.27605425097E+03  0.33522962291E+03  0.12500000000E+03 0.  0.
         25    1    1    2    0    0 -0.12778159789E+02  0.44094134688E+02  0.41598859699E+03  0.43678265408E+03  0.12500000000E+03 0.  0.
</event>
<event>
 5    0  0.5452999E-005  0.2569759E+03  0.7546771E-02  0.1108974E+00
         21   -1    0    0  502  501  0.00000000000E+00  0.00000000000E+00  0.33513220267E+03  0.33513220267E+03  0.00000000000E+00 0.  1.
         21   -1    0    0  501  502 -0.00000000000E+00 -0.00000000000E+00 -0.19704644221E+03  0.19704644221E+03  0.00000000000E+00 0.  1.
         25    1    1    2    0    0 -0.64020862046E+02 -0.17243823622E+02  0.12616373415E+03  0.18957401732E+03  0.12500000000E+03 0.  0.
         25    1    1    2    0    0 -0.59635826147E+02  0.34217329011E+01 -0.61480060933E+02  0.15156826155E+03  0.12500000000E+03 0.  0.
         25    1    1    2    0    0  0.12365668819E+03  0.13822090721E+02  0.73402087245E+02  0.19103636601E+03  0.12500000000E+03 0.  0.
</event>
<event>
 5    0  0.5452999E-005  0.2077762E+03  0.7546771E-02  0.1143339E+00
         21   -1    0    0  502  501  0.00000000000E+00  0.00000000000E+00  0.77835533863E+02  0.77835533863E+02  0.00000000000E+00 0. -1.
         21   -1    0    0  501  502 -0.00000000000E+00 -0.00000000000E+00 -0.55464320546E+03  0.55464320546E+03  0.00000000000E+00 0. -1.
         25    1    1    2    0    0 -0.61396081094E+02  0.42911472975E+02 -0.16003087205E+03  0.21643879804E+03  0.12500000000E+03 0.  0.
         25    1    1    2    0    0  0.55331721171E+02 -0.37494793101E+02 -0.13869517945E+03  0.19831493055E+03  0.12500000000E+03 0.  0.
         25    1    1    2    0    0  0.60643599233E+01 -0.54166798738E+01 -0.17808162010E+03  0.21772501074E+03  0.12500000000E+03 0.  0.
</event>
<event>
 5    0  0.5929193E-005  0.2783655E+03  0.7546771E-02  0.1096585E+00
         21   -1    0    0  502  501  0.00000000000E+00  0.00000000000E+00  0.50016903419E+03  0.50016903419E+03  0.00000000000E+00 0. -1.
         21   -1    0    0  501  502 -0.00000000000E+00 -0.00000000000E+00 -0.15492232377E+03  0.15492232377E+03  0.00000000000E+00 0. -1.
         25    1    1    2    0    0  0.58136625221E+02  0.60549371287E+02  0.63993518263E+02  0.16360398508E+03  0.12500000000E+03 0.  0.
         25    1    1    2    0    0  0.73466906888E+02 -0.19163608302E+00 -0.74337881691E+01  0.14518155647E+03  0.12500000000E+03 0.  0.
         25    1    1    2    0    0 -0.13160353211E+03 -0.60357735204E+02  0.28868698033E+03  0.34630581640E+03  0.12500000000E+03 0.  0.
</event>
<event>
 5    0  0.5452999E-005  0.5986188E+03  0.7546771E-02  0.9908276E-01
         21   -1    0    0  502  501  0.00000000000E+00  0.00000000000E+00  0.19422457739E+03  0.19422457739E+03  0.00000000000E+00 0. -1.
         21   -1    0    0  501  502 -0.00000000000E+00 -0.00000000000E+00 -0.18450008155E+04  0.18450008155E+04  0.00000000000E+00 0. -1.
         25    1    1    2    0    0  0.12435908196E+03 -0.31262441098E+03 -0.67158467317E+03  0.76147894051E+03  0.12500000000E+03 0.  0.
         25    1    1    2    0    0  0.29185477316E+03  0.80816011813E+02 -0.41726859618E+03  0.53051721719E+03  0.12500000000E+03 0.  0.
         25    1    1    2    0    0 -0.41621385512E+03  0.23180839917E+03 -0.56192296880E+03  0.74722923523E+03  0.12500000000E+03 0.  0.
</event>
<event>
 5    0  0.5452999E-005  0.2846695E+03  0.7546771E-02  0.1093166E+00
         21   -1    0    0  502  501  0.00000000000E+00  0.00000000000E+00  0.67473939447E+03  0.67473939447E+03  0.00000000000E+00 0. -1.
         21   -1    0    0  501  502 -0.00000000000E+00 -0.00000000000E+00 -0.12010076005E+03  0.12010076005E+03  0.00000000000E+00 0. -1.
         25    1    1    2    0    0 -0.17528131546E+02  0.24108935454E+02  0.15733037113E+03  0.20314113775E+03  0.12500000000E+03 0.  0.
         25    1    1    2    0    0  0.12388386007E+03  0.85233274895E+02  0.32950315255E+03  0.38315695149E+03  0.12500000000E+03 0.  0.
         25    1    1    2    0    0 -0.10635572852E+03 -0.10934221035E+03  0.67805110735E+02  0.20854206529E+03  0.12500000000E+03 0.  0.
</event>
<event>
 5    0  0.5452999E-005  0.2551777E+03  0.7546771E-02  0.1110076E+00
         21   -1    0    0  502  501  0.00000000000E+00  0.00000000000E+00  0.66314952465E+03  0.66314952465E+03  0.00000000000E+00 0.  1.
         21   -1    0    0  501  502 -0.00000000000E+00 -0.00000000000E+00 -0.98191532444E+02  0.98191532444E+02  0.00000000000E+00 0.  1.
         25    1    1    2    0    0  0.93070545402E+02 -0.90291544955E+01  0.22905969995E+03  0.27719487404E+03  0.12500000000E+03 0.  0.
         25    1    1    2    0    0 -0.75904851325E+02 -0.72482402525E+02  0.67607271620E+02  0.17666631911E+03  0.12500000000E+03 0.  0.
         25    1    1    2    0    0 -0.17165694077E+02  0.81511557020E+02  0.26829102065E+03  0.30747986396E+03  0.12500000000E+03 0.  0.
</event>
<event>
 5    0  0.5452999E-005  0.3343902E+03  0.7546771E-02  0.1069211E+00
         21   -1    0    0  502  501  0.00000000000E+00  0.00000000000E+00  0.10524291190E+04  0.10524291190E+04  0.00000000000E+00 0. -1.
         21   -1    0    0  501  502 -0.00000000000E+00 -0.00000000000E+00 -0.10624642087E+03  0.10624642087E+03  0.00000000000E+00 0. -1.
         25    1    1    2    0    0 -0.24020571288E+03  0.35272174166E+02  0.34743805356E+03  0.44190622516E+03  0.12500000000E+03 0.  0.
         25    1    1    2    0    0  0.92086365267E+02 -0.50010958382E+02  0.42808140350E+03  0.45810444513E+03  0.12500000000E+03 0.  0.
         25    1    1    2    0    0  0.14811934762E+03  0.14738784215E+02  0.17066324105E+03  0.25866486956E+03  0.12500000000E+03 0.  0.
</event>
<event>
 5    0  0.5452999E-005  0.2389003E+03  0.7546771E-02  0.1120528E+00
         21   -1    0    0  502  501  0.00000000000E+00  0.00000000000E+00  0.18096832063E+03  0.18096832063E+03  0.00000000000E+00 0.  1.
         21   -1    0    0  501  502 -0.00000000000E+00 -0.00000000000E+00 -0.31537753234E+03  0.31537753234E+03  0.00000000000E+00 0.  1.
         25    1    1    2    0    0  0.11660884026E+03  0.21731228952E+02 -0.34933738688E+02  0.17582728467E+03  0.12500000000E+03 0.  0.
         25    1    1    2    0    0 -0.51135139753E+02 -0.72430163819E+02 -0.34396713866E+02  0.15706388851E+03  0.12500000000E+03 0.  0.
         25    1    1    2    0    0 -0.65473700502E+02  0.50698934867E+02 -0.65078759156E+02  0.16345467980E+03  0.12500000000E+03 0.  0.
</event>
<event>
 5    0  0.5452999E-005  0.3885255E+03  0.7546771E-02  0.1047827E+00
         21   -1    0    0  502  501  0.00000000000E+00  0.00000000000E+00  0.56151438655E+03  0.56151438655E+03  0.00000000000E+00 0. -1.
         21   -1    0    0  501  502 -0.00000000000E+00 -0.00000000000E+00 -0.26883032070E+03  0.26883032070E+03  0.00000000000E+00 0. -1.
         25    1    1    2    0    0 -0.16863207814E+03  0.21945457183E+03  0.12991657617E+03  0.33030350231E+03  0.12500000000E+03 0.  0.
         25    1    1    2    0    0 -0.38290024149E+02  0.55588525603E+00  0.10592867992E+03  0.16826265238E+03  0.12500000000E+03 0.  0.
         25    1    1    2    0    0  0.20692210229E+03 -0.22001045708E+03  0.56838809757E+02  0.33177855255E+03  0.12500000000E+03 0.  0.
</event>
<event>
 5    0  0.5452999E-005  0.2685988E+03  0.7546771E-02  0.1102084E+00
         21   -1    0    0  502  501  0.00000000000E+00  0.00000000000E+00  0.16132277916E+03  0.16132277916E+03  0.00000000000E+00 0.  1.
         21   -1    0    0  501  502 -0.00000000000E+00 -0.00000000000E+00 -0.44721083222E+03  0.44721083222E+03  0.00000000000E+00 0.  1.
         25    1    1    2    0    0 -0.38810757992E+02 -0.73086426376E+01 -0.85797701907E+02  0.15667142958E+03  0.12500000000E+03 0.  0.
         25    1    1    2    0    0  0.16654761783E+03 -0.47620337446E+02 -0.14027605845E+03  0.25555464800E+03  0.12500000000E+03 0.  0.
         25    1    1    2    0    0 -0.12773685983E+03  0.54928980084E+02 -0.59814292713E+02  0.19630753380E+03  0.12500000000E+03 0.  0.
</event>
<event>
 5    0  0.5452999E-005  0.3458092E+03  0.7546771E-02  0.1064348E+00
         21   -1    0    0  502  501  0.00000000000E+00  0.00000000000E+00  0.18066575263E+03  0.18066575263E+03  0.00000000000E+00 0. -1.
         21   -1    0    0  501  502 -0.00000000000E+00 -0.00000000000E+00 -0.66190757736E+03  0.66190757736E+03  0.00000000000E+00 0. -1.
         25    1    1    2    0    0 -0.65499814037E+02  0.23786193621E+03 -0.14673591510E+03  0.31308937242E+03  0.12500000000E+03 0.  0.
         25    1    1    2    0    0  0.77269568461E+02 -0.62310942631E+02 -0.40345938077E+02  0.16463910380E+03  0.12500000000E+03 0.  0.
         25    1    1    2    0    0 -0.11769754424E+02 -0.17555099358E+03 -0.29415997155E+03  0.36484485378E+03  0.12500000000E+03 0.  0.
</event>
<event>
 5    0  0.5452999E-005  0.3658929E+03  0.7546771E-02  0.1056275E+00
         21   -1    0    0  502  501  0.00000000000E+00  0.00000000000E+00  0.37639604312E+03  0.37639604312E+03  0.00000000000E+00 0.  1.
         21   -1    0    0  501  502 -0.00000000000E+00 -0.00000000000E+00 -0.35568279902E+03  0.35568279902E+03  0.00000000000E+00 0.  1.
         25    1    1    2    0    0 -0.17496088653E+03 -0.11865883990E+03 -0.34636080214E+02  0.24802397092E+03  0.12500000000E+03 0.  0.
         25    1    1    2    0    0  0.74511660817E+01  0.16315509964E+03  0.14569810656E+03  0.25204770317E+03  0.12500000000E+03 0.  0.
         25    1    1    2    0    0  0.16750972044E+03 -0.44496259746E+02 -0.90348782243E+02  0.23200716805E+03  0.12500000000E+03 0.  0.
</event>
<event>
 5    0  0.5452999E-005  0.3320015E+03  0.7546771E-02  0.1070255E+00
         21   -1    0    0  502  501  0.00000000000E+00  0.00000000000E+00  0.12572013166E+03  0.12572013166E+03  0.00000000000E+00 0. -1.
         21   -1    0    0  501  502 -0.00000000000E+00 -0.00000000000E+00 -0.87674898306E+03  0.87674898306E+03  0.00000000000E+00 0. -1.
         25    1    1    2    0    0 -0.38317139089E+02  0.22984414965E+03 -0.20937825147E+03  0.33728443259E+03  0.12500000000E+03 0.  0.
         25    1    1    2    0    0 -0.87979908738E+01 -0.62233555568E+01 -0.16693070137E+03  0.20882287675E+03  0.12500000000E+03 0.  0.
         25    1    1    2    0    0  0.47115129963E+02 -0.22362079410E+03 -0.37471989856E+03  0.45636180537E+03  0.12500000000E+03 0.  0.
</event>
<event>
 5    0  0.5452999E-005  0.3348207E+03  0.7546771E-02  0.1069024E+00
         21   -1    0    0  502  501  0.00000000000E+00  0.00000000000E+00  0.13429521198E+03  0.13429521198E+03  0.00000000000E+00 0. -1.
         21   -1    0    0  501  502 -0.00000000000E+00 -0.00000000000E+00 -0.83476489400E+03  0.83476489400E+03  0.00000000000E+00 0. -1.
         25    1    1    2    0    0  0.40964148292E+01 -0.10691785862E+03 -0.18798429905E+03  0.24982254862E+03  0.12500000000E+03 0.  0.
         25    1    1    2    0    0 -0.87940609853E+02 -0.65391451239E+01  0.20093001059E+02  0.15428881998E+03  0.12500000000E+03 0.  0.
         25    1    1    2    0    0  0.83844195024E+02  0.11345700375E+03 -0.53257838402E+03  0.56494873738E+03  0.12500000000E+03 0.  0.
</event>
<event>
 5    0  0.5452999E-005  0.2670091E+03  0.7546771E-02  0.1103004E+00
         21   -1    0    0  502  501  0.00000000000E+00  0.00000000000E+00  0.60468938105E+03  0.60468938105E+03  0.00000000000E+00 0. -1.
         21   -1    0    0  501  502 -0.00000000000E+00 -0.00000000000E+00 -0.11790157911E+03  0.11790157911E+03  0.00000000000E+00 0. -1.
         25    1    1    2    0    0  0.37393268160E+02 -0.53979549350E+02  0.21178703051E+03  0.25454035936E+03  0.12500000000E+03 0.  0.
         25    1    1    2    0    0 -0.28003058863E+02 -0.45220891858E+02  0.27663108843E+03  0.30818640374E+03  0.12500000000E+03 0.  0.
         25    1    1    2    0    0 -0.93902092964E+01  0.99200441208E+02 -0.16303169902E+01  0.15986419705E+03  0.12500000000E+03 0.  0.
</event>
<event>
 5    0  0.5452999E-005  0.3730709E+03  0.7546771E-02  0.1053525E+00
         21   -1    0    0  502  501  0.00000000000E+00  0.00000000000E+00  0.19398281562E+03  0.19398281562E+03  0.00000000000E+00 0. -1.
         21   -1    0    0  501  502 -0.00000000000E+00 -0.00000000000E+00 -0.71749609058E+03  0.71749609058E+03  0.00000000000E+00 0. -1.
         25    1    1    2    0    0 -0.62334282037E+01  0.15572445990E+03 -0.40005688950E+03  0.44716828809E+03  0.12500000000E+03 0.  0.
         25    1    1    2    0    0  0.85561591512E+02 -0.10555018998E+03 -0.21481531741E+03  0.28325297729E+03  0.12500000000E+03 0.  0.
         25    1    1    2    0    0 -0.79328163309E+02 -0.50174269914E+02  0.91358931951E+02  0.18105764083E+03  0.12500000000E+03 0.  0.
</event>
<event>
 5    0  0.5452999E-005  0.2529182E+03  0.7546771E-02  0.1111474E+00
         21   -1    0    0  502  501  0.00000000000E+00  0.00000000000E+00  0.76199354260E+02  0.76199354260E+02  0.00000000000E+00 0. -1.
         21   -1    0    0  501  502 -0.00000000000E+00 -0.00000000000E+00 -0.83947735191E+03  0.83947735191E+03  0.00000000000E+00 0. -1.
         25    1    1    2    0    0 -0.41476698574E+02 -0.10785508924E+03 -0.16027087873E+03  0.23380502853E+03  0.12500000000E+03 0.  0.
         25    1    1    2    0    0 -0.29328582820E+02  0.11603621287E+03 -0.29750998488E+03  0.34418274154E+03  0.12500000000E+03 0.  0.
         25    1    1    2    0    0  0.70805281394E+02 -0.81811236291E+01 -0.30549713404E+03  0.33768893610E+03  0.12500000000E+03 0.  0.
</event>
<event>
 5    0  0.5452999E-005  0.3465783E+03  0.7546771E-02  0.1064028E+00
         21   -1    0    0  502  501  0.00000000000E+00  0.00000000000E+00  0.26872413621E+03  0.26872413621E+03  0.00000000000E+00 0. -1.
         21   -1    0    0  501  502 -0.00000000000E+00 -0.00000000000E+00 -0.44698811053E+03  0.44698811053E+03  0.00000000000E+00 0. -1.
         25    1    1    2    0    0  0.15781498774E+02  0.16713289471E+03 -0.94035762610E+02  0.22945628091E+03  0.12500000000E+03 0.  0.
         25    1    1    2    0    0 -0.16524699156E+03 -0.12939432299E+03 -0.13808696666E+03  0.28061088611E+03  0.12500000000E+03 0.  0.
         25    1    1    2    0    0  0.14946549278E+03 -0.37738571723E+02  0.53858754950E+02  0.20564507972E+03  0.12500000000E+03 0.  0.
</event>
<event>
 5    0  0.5452999E-005  0.3157205E+03  0.7546771E-02  0.1077636E+00
         21   -1    0    0  502  501  0.00000000000E+00  0.00000000000E+00  0.15621606797E+04  0.15621606797E+04  0.00000000000E+00 0.  1.
         21   -1    0    0  501  502 -0.00000000000E+00 -0.00000000000E+00 -0.63808699034E+02  0.63808699034E+02  0.00000000000E+00 0.  1.
         25    1    1    2    0    0  0.17153265846E+03 -0.18089613104E+02  0.35552270717E+03  0.41445395683E+03  0.12500000000E+03 0.  0.
         25    1    1    2    0    0  0.17150655576E+02 -0.80587223338E+02  0.53219964452E+03  0.55285613606E+03  0.12500000000E+03 0.  0.
         25    1    1    2    0    0 -0.18868331404E+03  0.98676836442E+02  0.61062962903E+03  0.65865928589E+03  0.12500000000E+03 0.  0.
</event>
<event>
 5    0  0.5452999E-005  0.2359260E+03  0.7546771E-02  0.1122537E+00
         21   -1    0    0  502  501  0.00000000000E+00  0.00000000000E+00  0.40718819514E+03  0.40718819514E+03  0.00000000000E+00 0.  1.
         21   -1    0    0  501  502 -0.00000000000E+00 -0.00000000000E+00 -0.13669614195E+03  0.13669614195E+03  0.00000000000E+00 0.  1.
         25    1    1    2    0    0 -0.35068971392E+02  0.11682400421E+02 -0.31305286292E+02  0.13405719743E+03  0.12500000000E+03 0.  0.
         25    1    1    2    0    0 -0.91890858445E+01  0.42657712108E+02  0.12328663719E+03  0.18091079186E+03  0.12500000000E+03 0.  0.
         25    1    1    2    0    0  0.44258057236E+02 -0.54340112529E+02  0.17851070228E+03  0.22891634780E+03  0.12500000000E+03 0.  0.
</event>
<event>
 5    0  0.5452999E-005  0.5437656E+03  0.7546771E-02  0.1002947E+00
         21   -1    0    0  502  501  0.00000000000E+00  0.00000000000E+00  0.21200294421E+03  0.21200294421E+03  0.00000000000E+00 0. -1.
         21   -1    0    0  501  502 -0.00000000000E+00 -0.00000000000E+00 -0.13947026429E+04  0.13947026429E+04  0.00000000000E+00 0. -1.
         25    1    1    2    0    0  0.75667064275E+02 -0.10324988659E+03 -0.84711213504E+03  0.86580021543E+03  0.12500000000E+03 0.  0.
         25    1    1    2    0    0  0.79386994456E+01 -0.33140773122E+01  0.16516359226E+03  0.20731140409E+03  0.12500000000E+03 0.  0.
         25    1    1    2    0    0 -0.83605763720E+02  0.10656396390E+03 -0.50075115595E+03  0.53359396765E+03  0.12500000000E+03 0.  0.
</event>
<event>
 5    0  0.5452999E-005  0.2952332E+03  0.7546771E-02  0.1087648E+00
         21   -1    0    0  502  501  0.00000000000E+00  0.00000000000E+00  0.25177811134E+03  0.25177811134E+03  0.00000000000E+00 0.  1.
         21   -1    0    0  501  502 -0.00000000000E+00 -0.00000000000E+00 -0.34618825294E+03  0.34618825294E+03  0.00000000000E+00 0.  1.
         25    1    1    2    0    0 -0.19563524988E+03  0.26540164673E+02  0.89481369520E+01  0.23384311085E+03  0.12500000000E+03 0.  0.
         25    1    1    2    0    0  0.10908452760E+03 -0.27106101691E+02 -0.12643021179E+03  0.21034203898E+03  0.12500000000E+03 0.  0.
         25    1    1    2    0    0  0.86550722284E+02  0.56593701794E+00  0.23071933234E+02  0.15378121444E+03  0.12500000000E+03 0.  0.
</event>
<event>
 5    0  0.5452999E-005  0.2967989E+03  0.7546771E-02  0.1086852E+00
         21   -1    0    0  502  501  0.00000000000E+00  0.00000000000E+00  0.12069076525E+03  0.12069076525E+03  0.00000000000E+00 0.  1.
         21   -1    0    0  501  502 -0.00000000000E+00 -0.00000000000E+00 -0.72987854168E+03  0.72987854168E+03  0.00000000000E+00 0.  1.
         25    1    1    2    0    0  0.13462148551E+03  0.10797427888E+02 -0.18339492338E+02  0.18493476090E+03  0.12500000000E+03 0.  0.
         25    1    1    2    0    0 -0.21232709247E+02 -0.39106209225E+02 -0.21471421081E+03  0.25240308212E+03  0.12500000000E+03 0.  0.
         25    1    1    2    0    0 -0.11338877626E+03  0.28308781337E+02 -0.37613407328E+03  0.41323146391E+03  0.12500000000E+03 0.  0.
</event>
<event>
 5    0  0.5452999E-005  0.2886923E+03  0.7546771E-02  0.1091034E+00
         21   -1    0    0  502  501  0.00000000000E+00  0.00000000000E+00  0.65200801857E+03  0.65200801857E+03  0.00000000000E+00 0.  1.
         21   -1    0    0  501  502 -0.00000000000E+00 -0.00000000000E+00 -0.12782548402E+03  0.12782548402E+03  0.00000000000E+00 0.  1.
         25    1    1    2    0    0 -0.91994396954E+02 -0.47961263319E+02  0.17784856186E+03  0.24087001226E+03  0.12500000000E+03 0.  0.
         25    1    1    2    0    0 -0.68152826647E+02 -0.89027210007E+02  0.13849903775E+03  0.21766404241E+03  0.12500000000E+03 0.  0.
         25    1    1    2    0    0  0.16014722360E+03  0.13698847333E+03  0.20783493494E+03  0.32129944792E+03  0.12500000000E+03 0.  0.
</event>
<event>
 5    0  0.5452999E-005  0.3595492E+03  0.7546771E-02  0.1058763E+00
         21   -1    0    0  502  501  0.00000000000E+00  0.00000000000E+00  0.19245103080E+04  0.19245103080E+04  0.00000000000E+00 0.  1.
         21   -1    0    0  501  502 -0.00000000000E+00 -0.00000000000E+00 -0.67173256421E+02  0.67173256421E+02  0.00000000000E+00 0.  1.
         25    1    1    2    0    0  0.89654439053E+02  0.22305172481E+03  0.51098809393E+03  0.57838034417E+03  0.12500000000E+03 0.  0.
         25    1    1    2    0    0  0.81631509244E+02 -0.55484301833E+02  0.52558135138E+03  0.54918391088E+03  0.12500000000E+03 0.  0.
         25    1    1    2    0    0 -0.17128594830E+03 -0.16756742298E+03  0.82076760628E+03  0.86411930938E+03  0.12500000000E+03 0.  0.
</event>
<event>
 5    0  0.5452999E-005  0.3582485E+03  0.7546771E-02  0.1059280E+00
         21   -1    0    0  502  501  0.00000000000E+00  0.00000000000E+00  0.34887848834E+03  0.34887848834E+03  0.00000000000E+00 0. -1.
         21   -1    0    0  501  502 -0.00000000000E+00 -0.00000000000E+00 -0.36787017579E+03  0.36787017579E+03  0.00000000000E+00 0. -1.
         25    1    1    2    0    0  0.13754929988E+03 -0.43998323913E+02 -0.99757127123E+02  0.21548119829E+03  0.12500000000E+03 0.  0.
         25    1    1    2    0    0  0.11080743148E+03  0.24352875170E+02 -0.71878912593E+02  0.18347459627E+03  0.12500000000E+03 0.  0.
         25    1    1    2    0    0 -0.24835673137E+03  0.19645448743E+02  0.15264435226E+03  0.31779286957E+03  0.12500000000E+03 0.  0.
</event>
<event>
 5    0  0.5452999E-005  0.2682108E+03  0.7546771E-02  0.1102308E+00
         21   -1    0    0  502  501  0.00000000000E+00  0.00000000000E+00  0.28978119406E+03  0.28978119406E+03  0.00000000000E+00 0.  1.
         21   -1    0    0  501  502 -0.00000000000E+00 -0.00000000000E+00 -0.24824612155E+03  0.24824612155E+03  0.00000000000E+00 0.  1.
         25    1    1    2    0    0 -0.31378825202E+02 -0.42356020793E+01 -0.97466251296E+02  0.16163923143E+03  0.12500000000E+03 0.  0.
         25    1    1    2    0    0 -0.10471411265E+03 -0.61431730908E+01  0.82672425154E+02  0.18292761914E+03  0.12500000000E+03 0.  0.
         25    1    1    2    0    0  0.13609293785E+03  0.10378775170E+02  0.56328898656E+02  0.19346046503E+03  0.12500000000E+03 0.  0.
</event>
<event>
 5    0  0.5452999E-005  0.6483698E+03  0.7546771E-02  0.9809843E-01
         21   -1    0    0  502  501  0.00000000000E+00  0.00000000000E+00  0.21463199951E+03  0.21463199951E+03  0.00000000000E+00 0.  1.
         21   -1    0    0  501  502 -0.00000000000E+00 -0.00000000000E+00 -0.19586240976E+04  0.19586240976E+04  0.00000000000E+00 0.  1.
         25    1    1    2    0    0  0.13628200067E+03 -0.11045137145E+03 -0.81085613527E+02  0.23015682888E+03  0.12500000000E+03 0.  0.
         25    1    1    2    0    0 -0.42499121088E+03  0.37939527864E+03 -0.10912146129E+04  0.12373086269E+04  0.12500000000E+03 0.  0.
         25    1    1    2    0    0  0.28870921022E+03 -0.26894390719E+03 -0.57169187165E+03  0.70579064133E+03  0.12500000000E+03 0.  0.
</event>
<event>
 5    0  0.5452999E-005  0.4083973E+03  0.7546771E-02  0.1040910E+00
         21   -1    0    0  502  501  0.00000000000E+00  0.00000000000E+00  0.59067749555E+03  0.59067749555E+03  0.00000000000E+00 0.  1.
         21   -1    0    0  501  502 -0.00000000000E+00 -0.00000000000E+00 -0.28236786972E+03  0.28236786972E+03  0.00000000000E+00 0.  1.
         25    1    1    2    0    0  0.20588349202E+03 -0.19620622921E+03  0.68525152840E+01  0.31073598702E+03  0.12500000000E+03 0.  0.
         25    1    1    2    0    0 -0.12339484715E+02  0.20827531039E+03  0.13902535141E+03  0.28014981017E+03  0.12500000000E+03 0.  0.
         25    1    1    2    0    0 -0.19354400730E+03 -0.12069081187E+02  0.16243175914E+03  0.28215956808E+03  0.12500000000E+03 0.  0.
</event>
<event>
 5    0  0.5452999E-005  0.4708578E+03  0.7546771E-02  0.1021678E+00
         21   -1    0    0  502  501  0.00000000000E+00  0.00000000000E+00  0.11296523275E+04  0.11296523275E+04  0.00000000000E+00 0. -1.
         21   -1    0    0  501  502 -0.00000000000E+00 -0.00000000000E+00 -0.19626134670E+03  0.19626134670E+03  0.00000000000E+00 0. -1.
         25    1    1    2    0    0  0.94831183312E+02 -0.21702689956E+03  0.29531306076E+03  0.39865829017E+03  0.12500000000E+03 0.  0.
         25    1    1    2    0    0 -0.23596750528E+03  0.18582978456E+03  0.76705068597E+02  0.33424847034E+03  0.12500000000E+03 0.  0.
         25    1    1    2    0    0  0.14113632196E+03  0.31197114996E+02  0.56137285148E+03  0.59300691374E+03  0.12500000000E+03 0.  0.
</event>
<event>
 5    0  0.5452999E-005  0.2784637E+03  0.7546771E-02  0.1096531E+00
         21   -1    0    0  502  501  0.00000000000E+00  0.00000000000E+00  0.12746007205E+04  0.12746007205E+04  0.00000000000E+00 0.  1.
         21   -1    0    0  501  502 -0.00000000000E+00 -0.00000000000E+00 -0.60836327198E+02  0.60836327198E+02  0.00000000000E+00 0.  1.
         25    1    1    2    0    0  0.13368472022E+03 -0.10046380167E+03  0.35990027837E+03  0.41607426049E+03  0.12500000000E+03 0.  0.
         25    1    1    2    0    0 -0.66913664091E+02  0.60177956374E+02  0.64897286666E+03  0.66700045468E+03  0.12500000000E+03 0.  0.
         25    1    1    2    0    0 -0.66771056133E+02  0.40285845300E+02  0.20489124831E+03  0.25236233257E+03  0.12500000000E+03 0.  0.
</event>
<event>
 5    0  0.5452999E-005  0.4932201E+03  0.7546771E-02  0.1015564E+00
         21   -1    0    0  502  501  0.00000000000E+00  0.00000000000E+00  0.73113283110E+03  0.73113283110E+03  0.00000000000E+00 0. -1.
         21   -1    0    0  501  502 -0.00000000000E+00 -0.00000000000E+00 -0.33272482930E+03  0.33272482930E+03  0.00000000000E+00 0. -1.
         25    1    1    2    0    0  0.31496094596E+03  0.23229099499E+03  0.19489767628E+03  0.45471926290E+03  0.12500000000E+03 0.  0.
         25    1    1    2    0    0 -0.78435928447E+02  0.16075769743E+02  0.19360314160E+03  0.24396270551E+03  0.12500000000E+03 0.  0.
         25    1    1    2    0    0 -0.23652501751E+03 -0.24836676473E+03  0.99071839294E+01  0.36517569200E+03  0.12500000000E+03 0.  0.
</event>
<event>
 5    0  0.5724989E-005  0.2822839E+03  0.7546771E-02  0.1094448E+00
         21   -1    0    0  502  501  0.00000000000E+00  0.00000000000E+00  0.70047167059E+03  0.70047167059E+03  0.00000000000E+00 0.  1.
         21   -1    0    0  501  502 -0.00000000000E+00 -0.00000000000E+00 -0.11375789882E+03  0.11375789882E+03  0.00000000000E+00 0.  1.
         25    1    1    2    0    0  0.10226760285E+03 -0.11747371038E+03  0.33079419064E+03  0.38640462185E+03  0.12500000000E+03 0.  0.
         25    1    1    2    0    0 -0.96212027561E+02 -0.17577370126E+02  0.11944183105E+03  0.19863803561E+03  0.12500000000E+03 0.  0.
         25    1    1    2    0    0 -0.60555752884E+01  0.13505108051E+03  0.13647775008E+03  0.22918691194E+03  0.12500000000E+03 0.  0.
</event>
<event>
 5    0  0.5452999E-005  0.3164054E+03  0.7546771E-02  0.1077316E+00
         21   -1    0    0  502  501  0.00000000000E+00  0.00000000000E+00  0.93137204683E+02  0.93137204683E+02  0.00000000000E+00 0.  1.
         21   -1    0    0  501  502 -0.00000000000E+00 -0.00000000000E+00 -0.10748914273E+04  0.10748914273E+04  0.00000000000E+00 0.  1.
         25    1    1    2    0    0  0.11694749172E+03 -0.22555422950E+02 -0.16535812151E+03  0.23906854932E+03  0.12500000000E+03 0.  0.
         25    1    1    2    0    0 -0.16701696905E+03 -0.10470671855E+03 -0.29854263358E+03  0.37896024716E+03  0.12500000000E+03 0.  0.
         25    1    1    2    0    0  0.50069477331E+02  0.12726214150E+03 -0.51785346750E+03  0.54999983547E+03  0.12500000000E+03 0.  0.
</event>
<event>
 5    0  0.5452999E-005  0.4169556E+03  0.7546771E-02  0.1038062E+00
         21   -1    0    0  502  501  0.00000000000E+00  0.00000000000E+00  0.68500776092E+03  0.68500776092E+03  0.00000000000E+00 0. -1.
         21   -1    0    0  501  502 -0.00000000000E+00 -0.00000000000E+00 -0.25379562774E+03  0.25379562774E+03  0.00000000000E+00 0. -1.
         25    1    1    2    0    0  0.11460335972E+03  0.16683441440E+03  0.11825205054E+03  0.26566181386E+03  0.12500000000E+03 0.  0.
         25    1    1    2    0    0  0.89668411235E+02  0.47348729006E+02  0.31287884343E+03  0.35185294766E+03  0.12500000000E+03 0.  0.
         25    1    1    2    0    0 -0.20427177095E+03 -0.21418314341E+03  0.81239204949E-01  0.32128862714E+03  0.12500000000E+03 0.  0.
</event>
<event>
 5    0  0.5452999E-005  0.2730809E+03  0.7546771E-02  0.1099529E+00
         21   -1    0    0  502  501  0.00000000000E+00  0.00000000000E+00  0.18095960323E+03  0.18095960323E+03  0.00000000000E+00 0. -1.
         21   -1    0    0  501  502 -0.00000000000E+00 -0.00000000000E+00 -0.41209859776E+03  0.41209859776E+03  0.00000000000E+00 0. -1.
         25    1    1    2    0    0  0.43349447513E+02 -0.30976370959E+02  0.28676787047E+02  0.13887428946E+03  0.12500000000E+03 0.  0.
         25    1    1    2    0    0 -0.43206088118E+02  0.11878784439E+03 -0.33131704505E+02  0.18083149026E+03  0.12500000000E+03 0.  0.
         25    1    1    2    0    0 -0.14335939519E+00 -0.87811473433E+02 -0.22668407707E+03  0.27335242127E+03  0.12500000000E+03 0.  0.
</event>
<event>
 5    0  0.5452999E-005  0.4500113E+03  0.7546771E-02  0.1027719E+00
         21   -1    0    0  502  501  0.00000000000E+00  0.00000000000E+00  0.23825564327E+03  0.23825564327E+03  0.00000000000E+00 0.  1.
         21   -1    0    0  501  502 -0.00000000000E+00 -0.00000000000E+00 -0.84997018327E+03  0.84997018327E+03  0.00000000000E+00 0.  1.
         25    1    1    2    0    0 -0.26162281086E+03  0.48396569911E+02 -0.87788969724E+02  0.30679085115E+03  0.12500000000E+03 0.  0.
         25    1    1    2    0    0 -0.85693480764E+02 -0.58930651312E+02 -0.31011579301E+02  0.16553825044E+03  0.12500000000E+03 0.  0.
         25    1    1    2    0    0  0.34731629163E+03  0.10534081402E+02 -0.49291399097E+03  0.61589672495E+03  0.12500000000E+03 0.  0.
</event>
<event>
 5    0  0.5452999E-005  0.2906993E+03  0.7546771E-02  0.1089985E+00
         21   -1    0    0  502  501  0.00000000000E+00  0.00000000000E+00  0.24958260821E+03  0.24958260821E+03  0.00000000000E+00 0.  1.
         21   -1    0    0  501  502 -0.00000000000E+00 -0.00000000000E+00 -0.33858969407E+03  0.33858969407E+03  0.00000000000E+00 0.  1.
         25    1    1    2    0    0  0.54762378001E+01 -0.49308459742E+02 -0.62791117588E+02  0.14842182397E+03  0.12500000000E+03 0.  0.
         25    1    1    2    0    0 -0.91876740153E+01 -0.14181848280E+03 -0.79383124046E+02  0.20524028796E+03  0.12500000000E+03 0.  0.
         25    1    1    2    0    0  0.37114362152E+01  0.19112694255E+03  0.53167155769E+02  0.23451019035E+03  0.12500000000E+03 0.  0.
</event>
<event>
 5    0  0.5452999E-005  0.3575940E+03  0.7546771E-02  0.1059541E+00
         21   -1    0    0  502  501  0.00000000000E+00  0.00000000000E+00  0.13168376789E+03  0.13168376789E+03  0.00000000000E+00 0. -1.
         21   -1    0    0  501  502 -0.00000000000E+00 -0.00000000000E+00 -0.97106487264E+03  0.97106487264E+03  0.00000000000E+00 0. -1.
         25    1    1    2    0    0  0.11856474135E+03  0.10877040098E+03 -0.18137548046E+03  0.27278317934E+03  0.12500000000E+03 0.  0.
         25    1    1    2    0    0 -0.13997297103E+03 -0.63439412646E+02 -0.66620967261E+03  0.69503763896E+03  0.12500000000E+03 0.  0.
         25    1    1    2    0    0  0.21408229679E+02 -0.45330988329E+02  0.82040483273E+01  0.13492782222E+03  0.12500000000E+03 0.  0.
</event>
<event>
 5    0  0.5452999E-005  0.2735387E+03  0.7546771E-02  0.1099271E+00
         21   -1    0    0  502  501  0.00000000000E+00  0.00000000000E+00  0.67248165534E+03  0.67248165534E+03  0.00000000000E+00 0.  1.
         21   -1    0    0  501  502 -0.00000000000E+00 -0.00000000000E+00 -0.11126464254E+03  0.11126464254E+03  0.00000000000E+00 0.  1.
         25    1    1    2    0    0 -0.10212434738E+03  0.79617610609E+02  0.16105038964E+03  0.24151723386E+03  0.12500000000E+03 0.  0.
         25    1    1    2    0    0  0.93329100121E+02  0.58186336939E+02  0.11776628047E+03  0.20393593982E+03  0.12500000000E+03 0.  0.
         25    1    1    2    0    0  0.87952472580E+01 -0.13780394755E+03  0.28240034268E+03  0.33829312420E+03  0.12500000000E+03 0.  0.
</event>
<event>
 5    0  0.5452999E-005  0.2322696E+03  0.7546771E-02  0.1125052E+00
         21   -1    0    0  502  501  0.00000000000E+00  0.00000000000E+00  0.19890612110E+04  0.19890612110E+04  0.00000000000E+00 0.  1.
         21   -1    0    0  501  502 -0.00000000000E+00 -0.00000000000E+00 -0.27122941174E+02  0.27122941174E+02  0.00000000000E+00 0.  1.
         25    1    1    2    0    0 -0.12054905142E+02 -0.66801835517E+02  0.87300981083E+03  0.88452186846E+03  0.12500000000E+03 0.  0.
         25    1    1    2    0    0  0.38340312755E+02 -0.13286724691E+02  0.73964152906E+03  0.75122640272E+03  0.12500000000E+03 0.  0.
         25    1    1    2    0    0 -0.26285407613E+02  0.80088560208E+02  0.34928692995E+03  0.38043588102E+03  0.12500000000E+03 0.  0.
</event>
<event>
 5    0  0.5452999E-005  0.2820678E+03  0.7546771E-02  0.1094565E+00
         21   -1    0    0  502  501  0.00000000000E+00  0.00000000000E+00  0.77347173352E+02  0.77347173352E+02  0.00000000000E+00 0. -1.
         21   -1    0    0  501  502 -0.00000000000E+00 -0.00000000000E+00 -0.10286379914E+04  0.10286379914E+04  0.00000000000E+00 0. -1.
         25    1    1    2    0    0  0.13651445018E+03  0.12304300218E+03 -0.43258843102E+03  0.48634712516E+03  0.12500000000E+03 0.  0.
         25    1    1    2    0    0 -0.11055618620E+03 -0.56341203949E+02 -0.38381901176E+03  0.42230206648E+03  0.12500000000E+03 0.  0.
         25    1    1    2    0    0 -0.25958263983E+02 -0.66701798227E+02 -0.13488337523E+03  0.19733597308E+03  0.12500000000E+03 0.  0.
</event>
<event>
 5    0  0.5452999E-005  0.2372054E+03  0.7546771E-02  0.1121669E+00
         21   -1    0    0  502  501  0.00000000000E+00  0.00000000000E+00  0.26335776530E+03  0.26335776530E+03  0.00000000000E+00 0. -1.
         21   -1    0    0  501  502 -0.00000000000E+00 -0.00000000000E+00 -0.21365007853E+03  0.21365007853E+03  0.00000000000E+00 0. -1.
         25    1    1    2    0    0 -0.90122545695E+02 -0.12398446092E+02 -0.29740542280E+02  0.15743346075E+03  0.12500000000E+03 0.  0.
         25    1    1    2    0    0 -0.19788676472E+01  0.60817625044E+02  0.72481792497E+02  0.15678427752E+03  0.12500000000E+03 0.  0.
         25    1    1    2    0    0  0.92101413342E+02 -0.48419178952E+02  0.69664365561E+01  0.16279010556E+03  0.12500000000E+03 0.  0.
</event>
<event>
 5    0  0.5452999E-005  0.2605539E+03  0.7546771E-02  0.1106811E+00
         21   -1    0    0  502  501  0.00000000000E+00  0.00000000000E+00  0.69239206552E+02  0.69239206552E+02  0.00000000000E+00 0. -1.
         21   -1    0    0  501  502 -0.00000000000E+00 -0.00000000000E+00 -0.98048987528E+03  0.98048987528E+03  0.00000000000E+00 0. -1.
         25    1    1    2    0    0  0.88586240564E+01  0.69732762584E+02 -0.16993228695E+03  0.22235807956E+03  0.12500000000E+03 0.  0.
         25    1    1    2    0    0  0.35060225749E+01 -0.12397550342E+03 -0.61996191393E+03  0.64448428403E+03  0.12500000000E+03 0.  0.
         25    1    1    2    0    0 -0.12364646631E+02  0.54242740836E+02 -0.12135646785E+03  0.18288671824E+03  0.12500000000E+03 0.  0.
</event>
<event>
 5    0  0.5452999E-005  0.2939517E+03  0.7546771E-02  0.1088304E+00
         21   -1    0    0  502  501  0.00000000000E+00  0.00000000000E+00  0.14783134473E+03  0.14783134473E+03  0.00000000000E+00 0. -1.
         21   -1    0    0  501  502 -0.00000000000E+00 -0.00000000000E+00 -0.58450140546E+03  0.58450140546E+03  0.00000000000E+00 0. -1.
         25    1    1    2    0    0 -0.13691505584E+03  0.11994554791E+02 -0.29513491601E+03  0.34873947369E+03  0.12500000000E+03 0.  0.
         25    1    1    2    0    0  0.26004780079E-01  0.22548091780E+02 -0.14785556559E+03  0.19492225474E+03  0.12500000000E+03 0.  0.
         25    1    1    2    0    0  0.13688905106E+03 -0.34542646571E+02  0.63204208681E+01  0.18867102176E+03  0.12500000000E+03 0.  0.
</event>
<event>
 5    0  0.5452999E-005  0.2783477E+03  0.7546771E-02  0.1096595E+00
         21   -1    0    0  502  501  0.00000000000E+00  0.00000000000E+00  0.81540343097E+03  0.81540343097E+03  0.00000000000E+00 0.  1.
         21   -1    0    0  501  502 -0.00000000000E+00 -0.00000000000E+00 -0.95017345731E+02  0.95017345731E+02  0.00000000000E+00 0.  1.
         25    1    1    2    0    0 -0.73590059153E+02  0.69369296527E+02  0.14222582353E+03  0.21466434494E+03  0.12500000000E+03 0.  0.
         25    1    1    2    0    0  0.16693014492E+03  0.87626603936E+01  0.36313275800E+03  0.41884705733E+03  0.12500000000E+03 0.  0.
         25    1    1    2    0    0 -0.93340085764E+02 -0.78131956921E+02  0.21502750370E+03  0.27690937444E+03  0.12500000000E+03 0.  0.
</event>
<event>
 5    0  0.5452999E-005  0.5042818E+03  0.7546771E-02  0.1012667E+00
         21   -1    0    0  502  501  0.00000000000E+00  0.00000000000E+00  0.42092696317E+03  0.42092696317E+03  0.00000000000E+00 0.  1.
         21   -1    0    0  501  502 -0.00000000000E+00 -0.00000000000E+00 -0.60414302984E+03  0.60414302984E+03  0.00000000000E+00 0.  1.
         25    1    1    2    0    0 -0.15042469347E+03  0.15937732165E+03 -0.12292827783E+02  0.25259618500E+03  0.12500000000E+03 0.  0.
         25    1    1    2    0    0  0.63478344352E+01  0.20403265376E+03 -0.25903579352E+03  0.35269556437E+03  0.12500000000E+03 0.  0.
         25    1    1    2    0    0  0.14407685903E+03 -0.36340997541E+03  0.88112554637E+02  0.41977824363E+03  0.12500000000E+03 0.  0.
</event>
<event>
 5    0  0.5452999E-005  0.3646331E+03  0.7546771E-02  0.1056764E+00
         21   -1    0    0  502  501  0.00000000000E+00  0.00000000000E+00  0.21861926601E+03  0.21861926601E+03  0.00000000000E+00 0.  1.
         21   -1    0    0  501  502 -0.00000000000E+00 -0.00000000000E+00 -0.60816814746E+03  0.60816814746E+03  0.00000000000E+00 0.  1.
         25    1    1    2    0    0  0.10923759730E+03  0.44643251442E+00  0.37410689046E+01  0.16604832900E+03  0.12500000000E+03 0.  0.
         25    1    1    2    0    0  0.12295802867E+03 -0.98172696206E+02 -0.30635136337E+03  0.36637782811E+03  0.12500000000E+03 0.  0.
         25    1    1    2    0    0 -0.23219562598E+03  0.97726263692E+02 -0.86938586993E+02  0.29436125636E+03  0.12500000000E+03 0.  0.
</event>
<event>
 5    0  0.5452999E-005  0.3663972E+03  0.7546771E-02  0.1056079E+00
         21   -1    0    0  502  501  0.00000000000E+00  0.00000000000E+00  0.11385631820E+03  0.11385631820E+03  0.00000000000E+00 0. -1.
         21   -1    0    0  501  502 -0.00000000000E+00 -0.00000000000E+00 -0.11790906012E+04  0.11790906012E+04  0.00000000000E+00 0. -1.
         25    1    1    2    0    0  0.19386851710E+03  0.35293514551E+02 -0.52679746507E+03  0.57616942239E+03  0.12500000000E+03 0.  0.
         25    1    1    2    0    0 -0.19801061982E+03 -0.14401131367E+03 -0.20004024997E+03  0.33998318434E+03  0.12500000000E+03 0.  0.
         25    1    1    2    0    0  0.41421027235E+01  0.10871779911E+03 -0.33839656801E+03  0.37679431272E+03  0.12500000000E+03 0.  0.
</event>
<event>
 5    0  0.5452999E-005  0.2716868E+03  0.7546771E-02  0.1100318E+00
         21   -1    0    0  502  501  0.00000000000E+00  0.00000000000E+00  0.12078252571E+04  0.12078252571E+04  0.00000000000E+00 0.  1.
         21   -1    0    0  501  502 -0.00000000000E+00 -0.00000000000E+00 -0.61112918081E+02  0.61112918081E+02  0.00000000000E+00 0.  1.
         25    1    1    2    0    0 -0.28168498650E+02 -0.10465126373E+03  0.69579239518E+03  0.71519047009E+03  0.12500000000E+03 0.  0.
         25    1    1    2    0    0  0.44786842255E+02  0.13725611546E+03  0.27754413613E+03  0.33689887202E+03  0.12500000000E+03 0.  0.
         25    1    1    2    0    0 -0.16618343605E+02 -0.32604851726E+02  0.17337580766E+03  0.21684883302E+03  0.12500000000E+03 0.  0.
</event>
<event>
 5    0  0.5452999E-005  0.2159544E+03  0.7546771E-02  0.1136936E+00
         21   -1    0    0  502  501  0.00000000000E+00  0.00000000000E+00  0.88078755139E+03  0.88078755139E+03  0.00000000000E+00 0.  1.
         21   -1    0    0  501  502 -0.00000000000E+00 -0.00000000000E+00 -0.52948427706E+02  0.52948427706E+02  0.00000000000E+00 0.  1.
         25    1    1    2    0    0 -0.39327342325E+02 -0.20536043429E+02  0.30369943162E+03  0.33140113715E+03  0.12500000000E+03 0.  0.
         25    1    1    2    0    0  0.50974911449E+02  0.42977541816E+02  0.14673477472E+03  0.20396471462E+03  0.12500000000E+03 0.  0.
         25    1    1    2    0    0 -0.11647569123E+02 -0.22441498388E+02  0.37740491733E+03  0.39837012732E+03  0.12500000000E+03 0.  0.
</event>
<event>
 5    0  0.5452999E-005  0.4732898E+03  0.7546771E-02  0.1020996E+00
         21   -1    0    0  502  501  0.00000000000E+00  0.00000000000E+00  0.11936970028E+03  0.11936970028E+03  0.00000000000E+00 0. -1.
         21   -1    0    0  501  502 -0.00000000000E+00 -0.00000000000E+00 -0.18765504466E+04  0.18765504466E+04  0.00000000000E+00 0. -1.
         25    1    1    2    0    0 -0.26406608815E+03  0.19126046483E+03 -0.49242151621E+03  0.60366829795E+03  0.12500000000E+03 0.  0.
         25    1    1    2    0    0 -0.94388114805E+02 -0.93364118341E+02 -0.30272649861E+03  0.35340388760E+03  0.12500000000E+03 0.  0.
         25    1    1    2    0    0  0.35845420296E+03 -0.97896346491E+02 -0.96203273155E+03  0.10388479614E+04  0.12500000000E+03 0.  0.
</event>
<event>
 5    0  0.5452999E-005  0.3996685E+03  0.7546771E-02  0.1043895E+00
         21   -1    0    0  502  501  0.00000000000E+00  0.00000000000E+00  0.11064460983E+04  0.11064460983E+04  0.00000000000E+00 0.  1.
         21   -1    0    0  501  502 -0.00000000000E+00 -0.00000000000E+00 -0.14436755049E+03  0.14436755049E+03  0.00000000000E+00 0.  1.
         25    1    1    2    0    0  0.17272519001E+03  0.12219840930E+02  0.29735938124E+03  0.36610233186E+03  0.12500000000E+03 0.  0.
         25    1    1    2    0    0 -0.65533319330E+02 -0.23943700272E+03  0.20213449744E+03  0.34366851655E+03  0.12500000000E+03 0.  0.
         25    1    1    2    0    0 -0.10719187068E+03  0.22721716179E+03  0.46258466916E+03  0.54104280043E+03  0.12500000000E+03 0.  0.
</event>
<event>
 5    0  0.5452999E-005  0.2440954E+03  0.7546771E-02  0.1117094E+00
         21   -1    0    0  502  501  0.00000000000E+00  0.00000000000E+00  0.64190738971E+02  0.64190738971E+02  0.00000000000E+00 0.  1.
         21   -1    0    0  501  502 -0.00000000000E+00 -0.00000000000E+00 -0.92821085770E+03  0.92821085770E+03  0.00000000000E+00 0.  1.
         25    1    1    2    0    0  0.34896975845E+02 -0.26771053093E+02 -0.42535162707E+03  0.44551486491E+03  0.12500000000E+03 0.  0.
         25    1    1    2    0    0 -0.19763994137E+02  0.56250642153E+02 -0.67953923847E+02  0.15426433798E+03  0.12500000000E+03 0.  0.
         25    1    1    2    0    0 -0.15132981708E+02 -0.29479589060E+02 -0.37071456782E+03  0.39262239378E+03  0.12500000000E+03 0.  0.
</event>
<event>
 5    0  0.5452999E-005  0.4033812E+03  0.7546771E-02  0.1042615E+00
         21   -1    0    0  502  501  0.00000000000E+00  0.00000000000E+00  0.49862019153E+03  0.49862019153E+03  0.00000000000E+00 0.  1.
         21   -1    0    0  501  502 -0.00000000000E+00 -0.00000000000E+00 -0.32633340564E+03  0.32633340564E+03  0.00000000000E+00 0.  1.
         25    1    1    2    0    0 -0.57839995786E+02  0.19661038601E+03 -0.25832491565E+02  0.24144031689E+03  0.12500000000E+03 0.  0.
         25    1    1    2    0    0 -0.16871835971E+03 -0.17449070176E+03  0.17159705220E+03  0.32246463097E+03  0.12500000000E+03 0.  0.
         25    1    1    2    0    0  0.22655835549E+03 -0.22119684249E+02  0.26522225260E+02  0.26104864931E+03  0.12500000000E+03 0.  0.
</event>
<event>
 5    0  0.5452999E-005  0.3045607E+03  0.7546771E-02  0.1082983E+00
         21   -1    0    0  502  501  0.00000000000E+00  0.00000000000E+00  0.26516132491E+03  0.26516132491E+03  0.00000000000E+00 0.  1.
         21   -1    0    0  501  502 -0.00000000000E+00 -0.00000000000E+00 -0.34981425068E+03  0.34981425068E+03  0.00000000000E+00 0.  1.
         25    1    1    2    0    0 -0.84867380107E+02 -0.95768952412E+01  0.60644240740E+02  0.16308560042E+03  0.12500000000E+03 0.  0.
         25    1    1    2    0    0  0.19882120469E+03 -0.61681164408E+02 -0.63739328206E+02  0.25104210690E+03  0.12500000000E+03 0.  0.
         25    1    1    2    0    0 -0.11395382458E+03  0.71258059650E+02 -0.81557838302E+02  0.20084786827E+03  0.12500000000E+03 0.  0.
</event>
<event>
 5    0  0.5452999E-005  0.3095834E+03  0.7546771E-02  0.1080546E+00
         21   -1    0    0  502  501  0.00000000000E+00  0.00000000000E+00  0.41998727800E+02  0.41998727800E+02  0.00000000000E+00 0. -1.
         21   -1    0    0  501  502 -0.00000000000E+00 -0.00000000000E+00 -0.22820182350E+04  0.22820182350E+04  0.00000000000E+00 0. -1.
         25    1    1    2    0    0 -0.52086181008E+02  0.41352914153E+01 -0.42096952494E+03  0.44223343589E+03  0.12500000000E+03 0.  0.
         25    1    1    2    0    0  0.13205095338E+03 -0.92982592397E+02 -0.15399934520E+04  0.15534761179E+04  0.12500000000E+03 0.  0.
         25    1    1    2    0    0 -0.79964772376E+02  0.88847300981E+02 -0.27905653025E+03  0.32830740898E+03  0.12500000000E+03 0.  0.
</event>
<event>
 5    0  0.5452999E-005  0.5032126E+03  0.7546771E-02  0.1012944E+00
         21   -1    0    0  502  501  0.00000000000E+00  0.00000000000E+00  0.48053390606E+03  0.48053390606E+03  0.00000000000E+00 0. -1.
         21   -1    0    0  501  502 -0.00000000000E+00 -0.00000000000E+00 -0.52696165545E+03  0.52696165545E+03  0.00000000000E+00 0.  1.
         25    1    1    2    0    0 -0.37626743721E+03 -0.18120232968E+02  0.12797083026E+02  0.39710740673E+03  0.12500000000E+03 0.  0.
         25    1    1    2    0    0  0.35549429052E+03  0.12560096721E+03 -0.14567996970E+03  0.42308326264E+03  0.12500000000E+03 0.  0.
         25    1    1    2    0    0  0.20773146693E+02 -0.10748073424E+03  0.86455137289E+02  0.18730489214E+03  0.12500000000E+03 0.  0.
</event>
<event>
 5    0  0.5452999E-005  0.3259216E+03  0.7546771E-02  0.1072956E+00
         21   -1    0    0  502  501  0.00000000000E+00  0.00000000000E+00  0.25016123608E+03  0.25016123608E+03  0.00000000000E+00 0.  1.
         21   -1    0    0  501  502 -0.00000000000E+00 -0.00000000000E+00 -0.42462561076E+03  0.42462561076E+03  0.00000000000E+00 0.  1.
         25    1    1    2    0    0 -0.46777304751E+02  0.17433536478E+03 -0.16158116409E+03  0.27260669148E+03  0.12500000000E+03 0.  0.
         25    1    1    2    0    0  0.23343648040E+02 -0.14731725876E+03  0.10977727574E+03  0.22343533942E+03  0.12500000000E+03 0.  0.
         25    1    1    2    0    0  0.23433656711E+02 -0.27018106022E+02 -0.12266048633E+03  0.17874481595E+03  0.12500000000E+03 0.  0.
</event>
<event>
 5    0  0.5725796E-005  0.3765011E+03  0.7546771E-02  0.1052235E+00
         21   -1    0    0  502  501  0.00000000000E+00  0.00000000000E+00  0.48912342643E+03  0.48912342643E+03  0.00000000000E+00 0.  1.
         21   -1    0    0  501  502 -0.00000000000E+00 -0.00000000000E+00 -0.28981051400E+03  0.28981051400E+03  0.00000000000E+00 0.  1.
         25    1    1    2    0    0 -0.15454811328E+03 -0.85723534880E+02  0.11054388338E+03  0.24306088518E+03  0.12500000000E+03 0.  0.
         25    1    1    2    0    0  0.47734139799E+00  0.14767905559E+03  0.21772415967E+03  0.29126987661E+03  0.12500000000E+03 0.  0.
         25    1    1    2    0    0  0.15407077188E+03 -0.61955520708E+02 -0.12895513062E+03  0.24460317865E+03  0.12500000000E+03 0.  0.
</event>
<event>
 5    0  0.5452999E-005  0.2277842E+03  0.7546771E-02  0.1128209E+00
         21   -1    0    0  502  501  0.00000000000E+00  0.00000000000E+00  0.96798729989E+03  0.96798729989E+03  0.00000000000E+00 0.  1.
         21   -1    0    0  501  502 -0.00000000000E+00 -0.00000000000E+00 -0.53601565348E+02  0.53601565348E+02  0.00000000000E+00 0.  1.
         25    1    1    2    0    0  0.21943122573E+01  0.44450692192E+02  0.15771462646E+03  0.20610575548E+03  0.12500000000E+03 0.  0.
         25    1    1    2    0    0  0.79129423820E+01  0.22217943822E+02  0.17271514147E+03  0.21450354724E+03  0.12500000000E+03 0.  0.
         25    1    1    2    0    0 -0.10107254639E+02 -0.66668636015E+02  0.58395596661E+03  0.60097956251E+03  0.12500000000E+03 0.  0.
</event>
<event>
 5    0  0.5452999E-005  0.3822483E+03  0.7546771E-02  0.1050106E+00
         21   -1    0    0  502  501  0.00000000000E+00  0.00000000000E+00  0.12996341190E+04  0.12996341190E+04  0.00000000000E+00 0. -1.
         21   -1    0    0  501  502 -0.00000000000E+00 -0.00000000000E+00 -0.11242682425E+03  0.11242682425E+03  0.00000000000E+00 0. -1.
         25    1    1    2    0    0 -0.81936851237E+02 -0.13286949913E+02 -0.28138972585E+02  0.15266627790E+03  0.12500000000E+03 0.  0.
         25    1    1    2    0    0 -0.24358761527E+02 -0.61615410600E+01  0.83541242985E+03  0.84508593752E+03  0.12500000000E+03 0.  0.
         25    1    1    2    0    0  0.10629561276E+03  0.19448490974E+02  0.37993383752E+03  0.41430872787E+03  0.12500000000E+03 0.  0.
</event>
<event>
 5    0  0.5452999E-005  0.2770472E+03  0.7546771E-02  0.1097313E+00
         21   -1    0    0  502  501  0.00000000000E+00  0.00000000000E+00  0.25176699596E+03  0.25176699596E+03  0.00000000000E+00 0.  1.
         21   -1    0    0  501  502 -0.00000000000E+00 -0.00000000000E+00 -0.30486582390E+03  0.30486582390E+03  0.00000000000E+00 0.  1.
         25    1    1    2    0    0 -0.10897374028E+03 -0.31425304455E+02 -0.11895827760E+03  0.20649188275E+03  0.12500000000E+03 0.  0.
         25    1    1    2    0    0  0.83035570740E+02  0.74171363892E+02 -0.47650649591E+02  0.17404563090E+03  0.12500000000E+03 0.  0.
         25    1    1    2    0    0  0.25938169542E+02 -0.42746059437E+02  0.11351009925E+03  0.17609530621E+03  0.12500000000E+03 0.  0.
</event>
<event>
 5    0  0.5452999E-005  0.2684690E+03  0.7546771E-02  0.1102159E+00
         21   -1    0    0  502  501  0.00000000000E+00  0.00000000000E+00  0.24304955728E+03  0.24304955728E+03  0.00000000000E+00 0. -1.
         21   -1    0    0  501  502 -0.00000000000E+00 -0.00000000000E+00 -0.29654695720E+03  0.29654695720E+03  0.00000000000E+00 0. -1.
         25    1    1    2    0    0 -0.55521270683E+02  0.68550467866E+02  0.35742802893E+02  0.15711246323E+03  0.12500000000E+03 0.  0.
         25    1    1    2    0    0 -0.75108686365E+02 -0.40335366981E+02 -0.12472472567E+03  0.19608547572E+03  0.12500000000E+03 0.  0.
         25    1    1    2    0    0  0.13062995705E+03 -0.28215100886E+02  0.35484522849E+02  0.18639857553E+03  0.12500000000E+03 0.  0.
</event>
<event>
 5    0  0.5452999E-005  0.2907430E+03  0.7546771E-02  0.1089962E+00
         21   -1    0    0  502  501  0.00000000000E+00  0.00000000000E+00  0.10797745257E+03  0.10797745257E+03  0.00000000000E+00 0.  1.
         21   -1    0    0  501  502 -0.00000000000E+00 -0.00000000000E+00 -0.78286221748E+03  0.78286221748E+03  0.00000000000E+00 0.  1.
         25    1    1    2    0    0  0.53752197439E+02  0.12695802071E+03 -0.35059900787E+03  0.39692858561E+03  0.12500000000E+03 0.  0.
         25    1    1    2    0    0  0.30497788943E+02 -0.16369224819E+03 -0.13073288899E+03  0.24584823674E+03  0.12500000000E+03 0.  0.
         25    1    1    2    0    0 -0.84249986382E+02  0.36734227474E+02 -0.19355286805E+03  0.24806284769E+03  0.12500000000E+03 0.  0.
</event>
<event>
 5    0  0.5452999E-005  0.6020709E+03  0.7546771E-02  0.9901119E-01
         21   -1    0    0  502  501  0.00000000000E+00  0.00000000000E+00  0.88829705525E+03  0.88829705525E+03  0.00000000000E+00 0.  1.
         21   -1    0    0  501  502 -0.00000000000E+00 -0.00000000000E+00 -0.40807227958E+03  0.40807227958E+03  0.00000000000E+00 0.  1.
         25    1    1    2    0    0  0.30491845568E+02 -0.42848233416E+03  0.38668855247E+03  0.59133738250E+03  0.12500000000E+03 0.  0.
         25    1    1    2    0    0  0.19136123671E+03  0.76698787225E+02  0.12126056972E+03  0.26987210424E+03  0.12500000000E+03 0.  0.
         25    1    1    2    0    0 -0.22185308228E+03  0.35178354693E+03 -0.27724346522E+02  0.43515984810E+03  0.12500000000E+03 0.  0.
</event>
<event>
 5    0  0.5452999E-005  0.3705747E+03  0.7546771E-02  0.1054473E+00
         21   -1    0    0  502  501  0.00000000000E+00  0.00000000000E+00  0.28403337445E+04  0.28403337445E+04  0.00000000000E+00 0. -1.
         21   -1    0    0  501  502 -0.00000000000E+00 -0.00000000000E+00 -0.48348397177E+02  0.48348397177E+02  0.00000000000E+00 0. -1.
         25    1    1    2    0    0  0.75572711443E+02 -0.97283568254E+02  0.18858217164E+03  0.25761126300E+03  0.12500000000E+03 0.  0.
         25    1    1    2    0    0 -0.10007894220E+03  0.11330475910E+03  0.82337813558E+03  0.84642206804E+03  0.12500000000E+03 0.  0.
         25    1    1    2    0    0  0.24506230758E+02 -0.16021190848E+02  0.17800250401E+04  0.17846488107E+04  0.12500000000E+03 0.  0.
</event>
<event>
 5    0  0.5452999E-005  0.2921063E+03  0.7546771E-02  0.1089254E+00
         21   -1    0    0  502  501  0.00000000000E+00  0.00000000000E+00  0.51067741756E+02  0.51067741756E+02  0.00000000000E+00 0.  1.
         21   -1    0    0  501  502 -0.00000000000E+00 -0.00000000000E+00 -0.16708418288E+04  0.16708418288E+04  0.00000000000E+00 0.  1.
         25    1    1    2    0    0 -0.38478895913E+02 -0.65418780510E+02 -0.18308603862E+03  0.23431973842E+03  0.12500000000E+03 0.  0.
         25    1    1    2    0    0  0.11713683064E+03 -0.40979600894E+02 -0.43171030420E+03  0.46626081922E+03  0.12500000000E+03 0.  0.
         25    1    1    2    0    0 -0.78657934724E+02  0.10639838140E+03 -0.10049777443E+04  0.10213290130E+04  0.12500000000E+03 0.  0.
</event>
<event>
 5    0  0.5452999E-005  0.3296020E+03  0.7546771E-02  0.1071313E+00
         21   -1    0    0  502  501  0.00000000000E+00  0.00000000000E+00  0.67132467696E+02  0.67132467696E+02  0.00000000000E+00 0.  1.
         21   -1    0    0  501  502 -0.00000000000E+00 -0.00000000000E+00 -0.16182554598E+04  0.16182554598E+04  0.00000000000E+00 0.  1.
         25    1    1    2    0    0  0.11582734954E+03 -0.72510711716E+02 -0.27720011421E+03  0.33337468640E+03  0.12500000000E+03 0.  0.
         25    1    1    2    0    0  0.10471223110E+03  0.10759335958E+03 -0.60759599676E+03  0.63823105350E+03  0.12500000000E+03 0.  0.
         25    1    1    2    0    0 -0.22053958064E+03 -0.35082647864E+02 -0.66632688112E+03  0.71378218759E+03  0.12500000000E+03 0.  0.
</event>
<event>
 5    0  0.5452999E-005  0.3118188E+03  0.7546771E-02  0.1079477E+00
         21   -1    0    0  502  501  0.00000000000E+00  0.00000000000E+00  0.15006384930E+03  0.15006384930E+03  0.00000000000E+00 0.  1.
         21   -1    0    0  501  502 -0.00000000000E+00 -0.00000000000E+00 -0.64793047357E+03  0.64793047357E+03  0.00000000000E+00 0.  1.
         25    1    1    2    0    0 -0.92448279043E+02  0.28295735111E+02  0.88157687423E+01  0.15827207809E+03  0.12500000000E+03 0.  0.
         25    1    1    2    0    0  0.34316148596E+02 -0.13201049907E+03 -0.13212685347E+03  0.22734747706E+03  0.12500000000E+03 0.  0.
         25    1    1    2    0    0  0.58132130447E+02  0.10371476396E+03 -0.37455553954E+03  0.41237476772E+03  0.12500000000E+03 0.  0.
</event>
<event>
 5    0  0.5452999E-005  0.2920196E+03  0.7546771E-02  0.1089299E+00
         21   -1    0    0  502  501  0.00000000000E+00  0.00000000000E+00  0.25100328192E+03  0.25100328192E+03  0.00000000000E+00 0. -1.
         21   -1    0    0  501  502 -0.00000000000E+00 -0.00000000000E+00 -0.33973836144E+03  0.33973836144E+03  0.00000000000E+00 0. -1.
         25    1    1    2    0    0 -0.14645660346E+03  0.11566187090E+03 -0.64333903330E+01  0.22470779601E+03  0.12500000000E+03 0.  0.
         25    1    1    2    0    0 -0.14723594539E+02 -0.98363883639E+01 -0.39581016431E+02  0.13230720175E+03  0.12500000000E+03 0.  0.
         25    1    1    2    0    0  0.16118019800E+03 -0.10582548254E+03 -0.42720672761E+02  0.23372664560E+03  0.12500000000E+03 0.  0.
</event>
<event>
 5    0  0.5640326E-005  0.3571080E+03  0.7546771E-02  0.1059735E+00
         21   -1    0    0  502  501  0.00000000000E+00  0.00000000000E+00  0.21803826133E+03  0.21803826133E+03  0.00000000000E+00 0. -1.
         21   -1    0    0  501  502 -0.00000000000E+00 -0.00000000000E+00 -0.58487951551E+03  0.58487951551E+03  0.00000000000E+00 0. -1.
         25    1    1    2    0    0 -0.23734295506E+03  0.87764883890E+02 -0.90037261500E+02  0.29625337403E+03  0.12500000000E+03 0.  0.
         25    1    1    2    0    0  0.11540557811E+03  0.40545018366E+02 -0.28666035119E+02  0.17722609160E+03  0.12500000000E+03 0.  0.
         25    1    1    2    0    0  0.12193737695E+03 -0.12830990226E+03 -0.24813795756E+03  0.32943831122E+03  0.12500000000E+03 0.  0.
</event>
<event>
 5    0  0.5452999E-005  0.2191741E+03  0.7546771E-02  0.1134500E+00
         21   -1    0    0  502  501  0.00000000000E+00  0.00000000000E+00  0.12745531514E+04  0.12745531514E+04  0.00000000000E+00 0. -1.
         21   -1    0    0  501  502 -0.00000000000E+00 -0.00000000000E+00 -0.37689494788E+02  0.37689494788E+02  0.00000000000E+00 0. -1.
         25    1    1    2    0    0 -0.33977189227E+02  0.24184702376E+00  0.44240783406E+03  0.46098177785E+03  0.12500000000E+03 0.  0.
         25    1    1    2    0    0  0.25168687086E+02 -0.84085179488E+01  0.16135728508E+03  0.20582842231E+03  0.12500000000E+03 0.  0.
         25    1    1    2    0    0  0.88085021415E+01  0.81666709250E+01  0.63309853750E+03  0.64543244605E+03  0.12500000000E+03 0.  0.
</event>
<event>
 5    0  0.5452999E-005  0.2201442E+03  0.7546771E-02  0.1133776E+00
         21   -1    0    0  502  501  0.00000000000E+00  0.00000000000E+00  0.82983006066E+02  0.82983006066E+02  0.00000000000E+00 0.  1.
         21   -1    0    0  501  502 -0.00000000000E+00 -0.00000000000E+00 -0.58401680750E+03  0.58401680750E+03  0.00000000000E+00 0.  1.
         25    1    1    2    0    0  0.63139095053E+02  0.78054716882E+02 -0.15917543304E+03  0.22592233762E+03  0.12500000000E+03 0.  0.
         25    1    1    2    0    0 -0.22730008460E+02 -0.73823791309E+02 -0.19125088455E+03  0.24118147999E+03  0.12500000000E+03 0.  0.
         25    1    1    2    0    0 -0.40409086593E+02 -0.42309255731E+01 -0.15060748384E+03  0.19989599596E+03  0.12500000000E+03 0.  0.
</event>
<event>
 5    0  0.5452999E-005  0.5164436E+03  0.7546771E-02  0.1009574E+00
         21   -1    0    0  502  501  0.00000000000E+00  0.00000000000E+00  0.59369580230E+03  0.59369580230E+03  0.00000000000E+00 0.  1.
         21   -1    0    0  501  502 -0.00000000000E+00 -0.00000000000E+00 -0.44924349006E+03  0.44924349006E+03  0.00000000000E+00 0.  1.
         25    1    1    2    0    0 -0.24307823301E+03  0.38872174699E+03 -0.30454263305E+02  0.47617652830E+03  0.12500000000E+03 0.  0.
         25    1    1    2    0    0  0.14579395763E+03 -0.28349067475E+03  0.69704580154E+02  0.34943750406E+03  0.12500000000E+03 0.  0.
         25    1    1    2    0    0  0.97284275387E+02 -0.10523107224E+03  0.10520199538E+03  0.21732526000E+03  0.12500000000E+03 0.  0.
</event>
<event>
 5    0  0.5452999E-005  0.2099568E+03  0.7546771E-02  0.1141600E+00
         21   -1    0    0  502  501  0.00000000000E+00  0.00000000000E+00  0.11356535270E+03  0.11356535270E+03  0.00000000000E+00 0.  1.
         21   -1    0    0  501  502 -0.00000000000E+00 -0.00000000000E+00 -0.38816299582E+03  0.38816299582E+03  0.00000000000E+00 0.  1.
         25    1    1    2    0    0 -0.40143275859E+02  0.14329742771E+01 -0.86225172552E+02  0.15707742165E+03  0.12500000000E+03 0.  0.
         25    1    1    2    0    0 -0.37915735363E+02  0.11794747198E+01 -0.42733299958E+02  0.13744136595E+03  0.12500000000E+03 0.  0.
         25    1    1    2    0    0  0.78059011222E+02 -0.26124489969E+01 -0.14563917061E+03  0.20720956092E+03  0.12500000000E+03 0.  0.
</event>
<event>
 5    0  0.5452999E-005  0.3183633E+03  0.7546771E-02  0.1076405E+00
         21   -1    0    0  502  501  0.00000000000E+00  0.00000000000E+00  0.79851992408E+02  0.79851992408E+02  0.00000000000E+00 0.  1.
         21   -1    0    0  501  502 -0.00000000000E+00 -0.00000000000E+00 -0.12692878908E+04  0.12692878908E+04  0.00000000000E+00 0.  1.
         25    1    1    2    0    0  0.22377545243E+03  0.10699051687E+03 -0.46077640742E+03  0.53801702710E+03  0.12500000000E+03 0.  0.
         25    1    1    2    0    0 -0.14436309106E+03 -0.70069714665E+02 -0.39969846963E+03  0.44848002587E+03  0.12500000000E+03 0.  0.
         25    1    1    2    0    0 -0.79412361364E+02 -0.36920802205E+02 -0.32896102138E+03  0.36264283029E+03  0.12500000000E+03 0.  0.
</event>
<event>
 5    0  0.5452999E-005  0.3534764E+03  0.7546771E-02  0.1061197E+00
         21   -1    0    0  502  501  0.00000000000E+00  0.00000000000E+00  0.64681528049E+03  0.64681528049E+03  0.00000000000E+00 0.  1.
         21   -1    0    0  501  502 -0.00000000000E+00 -0.00000000000E+00 -0.19317040783E+03  0.19317040783E+03  0.00000000000E+00 0.  1.
         25    1    1    2    0    0  0.14244777597E+03  0.11823440545E+03  0.32668935808E+03  0.39575457065E+03  0.12500000000E+03 0.  0.
         25    1    1    2    0    0  0.70205337373E+02 -0.22616185472E+02 -0.11577624052E+02  0.14559987163E+03  0.12500000000E+03 0.  0.
         25    1    1    2    0    0 -0.21265311334E+03 -0.95618219980E+02  0.13853313864E+03  0.29863124603E+03  0.12500000000E+03 0.  0.
</event>
<event>
 5    0  0.5452999E-005  0.2806050E+03  0.7546771E-02  0.1095359E+00
         21   -1    0    0  502  501  0.00000000000E+00  0.00000000000E+00  0.34606071261E+03  0.34606071261E+03  0.00000000000E+00 0. -1.
         21   -1    0    0  501  502 -0.00000000000E+00 -0.00000000000E+00 -0.22752993416E+03  0.22752993416E+03  0.00000000000E+00 0. -1.
         25    1    1    2    0    0 -0.25723853526E+02  0.12032109595E+03 -0.10787810976E+03  0.20591641347E+03  0.12500000000E+03 0.  0.
         25    1    1    2    0    0  0.15256544010E+01 -0.54446484241E+02  0.62713477170E+02  0.15008240232E+03  0.12500000000E+03 0.  0.
         25    1    1    2    0    0  0.24198199125E+02 -0.65874611713E+02  0.16369541104E+03  0.21759183097E+03  0.12500000000E+03 0.  0.
</event>
<event>
 5    0  0.5452999E-005  0.3299982E+03  0.7546771E-02  0.1071138E+00
         21   -1    0    0  502  501  0.00000000000E+00  0.00000000000E+00  0.16448498233E+03  0.16448498233E+03  0.00000000000E+00 0. -1.
         21   -1    0    0  501  502 -0.00000000000E+00 -0.00000000000E+00 -0.66205916855E+03  0.66205916855E+03  0.00000000000E+00 0. -1.
         25    1    1    2    0    0  0.16319048211E+02 -0.79643415196E+02  0.10007142397E+02  0.14944740820E+03  0.12500000000E+03 0.  0.
         25    1    1    2    0    0 -0.30762046131E+02 -0.75100140378E+02 -0.20089080127E+02  0.15038253126E+03  0.12500000000E+03 0.  0.
         25    1    1    2    0    0  0.14442997921E+02  0.15474355557E+03 -0.48749224848E+03  0.52671421142E+03  0.12500000000E+03 0.  0.
</event>
<event>
 5    0  0.5452999E-005  0.2818895E+03  0.7546771E-02  0.1094661E+00
         21   -1    0    0  502  501  0.00000000000E+00  0.00000000000E+00  0.25357338883E+03  0.25357338883E+03  0.00000000000E+00 0.  1.
         21   -1    0    0  501  502 -0.00000000000E+00 -0.00000000000E+00 -0.31336772391E+03  0.31336772391E+03  0.00000000000E+00 0.  1.
         25    1    1    2    0    0 -0.64787398516E+02  0.36542310467E+02 -0.87394502638E+02  0.16969250588E+03  0.12500000000E+03 0.  0.
         25    1    1    2    0    0  0.17328449601E+03 -0.32842521300E+02  0.68395894252E+02  0.22673585097E+03  0.12500000000E+03 0.  0.
         25    1    1    2    0    0 -0.10849709750E+03 -0.36997891666E+01 -0.40795726693E+02  0.17051275589E+03  0.12500000000E+03 0.  0.
</event>
<event>
 5    0  0.5452999E-005  0.2571021E+03  0.7546771E-02  0.1108897E+00
         21   -1    0    0  502  501  0.00000000000E+00  0.00000000000E+00  0.65222690982E+02  0.65222690982E+02  0.00000000000E+00 0. -1.
         21   -1    0    0  501  502 -0.00000000000E+00 -0.00000000000E+00 -0.10134740141E+04  0.10134740141E+04  0.00000000000E+00 0. -1.
         25    1    1    2    0    0  0.34360513485E+02  0.78926511454E+02 -0.12725361651E+03  0.19806191460E+03  0.12500000000E+03 0.  0.
         25    1    1    2    0    0  0.32969467264E+02 -0.34387143019E+02 -0.59638962188E+03  0.61120785536E+03  0.12500000000E+03 0.  0.
         25    1    1    2    0    0 -0.67329980749E+02 -0.44539368435E+02 -0.22460808477E+03  0.26942693516E+03  0.12500000000E+03 0.  0.
</event>
<event>
 5    0  0.5452999E-005  0.2511778E+03  0.7546771E-02  0.1112563E+00
         21   -1    0    0  502  501  0.00000000000E+00  0.00000000000E+00  0.36602706111E+03  0.36602706111E+03  0.00000000000E+00 0.  1.
         21   -1    0    0  501  502 -0.00000000000E+00 -0.00000000000E+00 -0.17236507708E+03  0.17236507708E+03  0.00000000000E+00 0.  1.
         25    1    1    2    0    0  0.17618243452E+02  0.31443422516E+00  0.19529540365E+03  0.23254203074E+03  0.12500000000E+03 0.  0.
         25    1    1    2    0    0  0.15215630195E+02 -0.80312335473E+02 -0.26933722186E+02  0.15176301269E+03  0.12500000000E+03 0.  0.
         25    1    1    2    0    0 -0.32833873647E+02  0.79997901248E+02  0.25300302568E+02  0.15408709476E+03  0.12500000000E+03 0.  0.
</event>
<event>
 5    0  0.5452999E-005  0.6063235E+03  0.7546771E-02  0.9892373E-01
         21   -1    0    0  502  501  0.00000000000E+00  0.00000000000E+00  0.10360804721E+04  0.10360804721E+04  0.00000000000E+00 0.  1.
         21   -1    0    0  501  502 -0.00000000000E+00 -0.00000000000E+00 -0.35482588752E+03  0.35482588752E+03  0.00000000000E+00 0.  1.
         25    1    1    2    0    0 -0.21744727293E+03 -0.35070358449E+03  0.84626162108E+02  0.43938924428E+03  0.12500000000E+03 0.  0.
         25    1    1    2    0    0 -0.53367606985E+02  0.81999273235E+01 -0.63499091950E+02  0.15024138898E+03  0.12500000000E+03 0.  0.
         25    1    1    2    0    0  0.27081487992E+03  0.34250365716E+03  0.66012751443E+03  0.80127572637E+03  0.12500000000E+03 0.  0.
</event>
<event>
 5    0  0.6342743E-005  0.4511580E+03  0.7546771E-02  0.1027377E+00
         21   -1    0    0  502  501  0.00000000000E+00  0.00000000000E+00  0.72659797404E+03  0.72659797404E+03  0.00000000000E+00 0. -1.
         21   -1    0    0  501  502 -0.00000000000E+00 -0.00000000000E+00 -0.28013228433E+03  0.28013228433E+03  0.00000000000E+00 0. -1.
         25    1    1    2    0    0  0.18200199019E+03  0.55988280068E+02 -0.19089620747E+02  0.22858002003E+03  0.12500000000E+03 0.  0.
         25    1    1    2    0    0 -0.21419991892E+03 -0.23149655196E+03  0.10190835976E+03  0.35423519393E+03  0.12500000000E+03 0.  0.
         25    1    1    2    0    0  0.32197928729E+02  0.17550827189E+03  0.36364695069E+03  0.42391504439E+03  0.12500000000E+03 0.  0.
</event>
<event>
 5    0  0.5452999E-005  0.2335606E+03  0.7546771E-02  0.1124158E+00
         21   -1    0    0  502  501  0.00000000000E+00  0.00000000000E+00  0.17524972966E+02  0.17524972966E+02  0.00000000000E+00 0. -1.
         21   -1    0    0  501  502 -0.00000000000E+00 -0.00000000000E+00 -0.31127338006E+04  0.31127338006E+04  0.00000000000E+00 0. -1.
         25    1    1    2    0    0  0.39543414424E+02 -0.92181211532E+02 -0.92975839223E+03  0.94347057469E+03  0.12500000000E+03 0.  0.
         25    1    1    2    0    0  0.44352682515E+02  0.34598309426E+02 -0.12225790185E+04  0.12302392694E+04  0.12500000000E+03 0.  0.
         25    1    1    2    0    0 -0.83896096939E+02  0.57582902106E+02 -0.94287141688E+03  0.95654892946E+03  0.12500000000E+03 0.  0.
</event>
<event>
 5    0  0.5452999E-005  0.2653883E+03  0.7546771E-02  0.1103948E+00
         21   -1    0    0  502  501  0.00000000000E+00  0.00000000000E+00  0.73226131679E+02  0.73226131679E+02  0.00000000000E+00 0.  1.
         21   -1    0    0  501  502 -0.00000000000E+00 -0.00000000000E+00 -0.96182841832E+03  0.96182841832E+03  0.00000000000E+00 0.  1.
         25    1    1    2    0    0  0.41579609667E+02  0.20955288171E+02 -0.27525566847E+03  0.30587361944E+03  0.12500000000E+03 0.  0.
         25    1    1    2    0    0  0.66582592976E+02 -0.13064421865E+03 -0.34922784686E+03  0.39885616778E+03  0.12500000000E+03 0.  0.
         25    1    1    2    0    0 -0.10816220264E+03  0.10968893047E+03 -0.26411877131E+03  0.33032476278E+03  0.12500000000E+03 0.  0.
</event>
<event>
 5    0  0.5452999E-005  0.2831880E+03  0.7546771E-02  0.1093960E+00
         21   -1    0    0  502  501  0.00000000000E+00  0.00000000000E+00  0.38853364154E+03  0.38853364154E+03  0.00000000000E+00 0.  1.
         21   -1    0    0  501  502 -0.00000000000E+00 -0.00000000000E+00 -0.20640542996E+03  0.20640542996E+03  0.00000000000E+00 0.  1.
         25    1    1    2    0    0  0.40188596023E+02 -0.16947306081E+01  0.15875792422E+03  0.20602687656E+03  0.12500000000E+03 0.  0.
         25    1    1    2    0    0 -0.10574494716E+03 -0.87162447065E+02 -0.69421481306E+02  0.19804955969E+03  0.12500000000E+03 0.  0.
         25    1    1    2    0    0  0.65556351138E+02  0.88857177673E+02  0.92791768668E+02  0.19086263524E+03  0.12500000000E+03 0.  0.
</event>
<event>
 5    0  0.5452999E-005  0.3223139E+03  0.7546771E-02  0.1074589E+00
         21   -1    0    0  502  501  0.00000000000E+00  0.00000000000E+00  0.66424575305E+02  0.66424575305E+02  0.00000000000E+00 0. -1.
         21   -1    0    0  501  502 -0.00000000000E+00 -0.00000000000E+00 -0.15639728794E+04  0.15639728794E+04  0.00000000000E+00 0. -1.
         25    1    1    2    0    0  0.82668525949E+02 -0.12152735647E+03 -0.13974955644E+03  0.23823921188E+03  0.12500000000E+03 0.  0.
         25    1    1    2    0    0 -0.43320742846E+02  0.56178575218E+01 -0.59325094923E+03  0.60784861260E+03  0.12500000000E+03 0.  0.
         25    1    1    2    0    0 -0.39347783102E+02  0.11590949894E+03 -0.76454779847E+03  0.78430963026E+03  0.12500000000E+03 0.  0.
</event>
<event>
 5    0  0.5452999E-005  0.3209923E+03  0.7546771E-02  0.1075194E+00
         21   -1    0    0  502  501  0.00000000000E+00  0.00000000000E+00  0.17069344813E+04  0.17069344813E+04  0.00000000000E+00 0.  1.
         21   -1    0    0  501  502 -0.00000000000E+00 -0.00000000000E+00 -0.60363222809E+02  0.60363222809E+02  0.00000000000E+00 0.  1.
         25    1    1    2    0    0  0.38342992209E+02 -0.39846677943E+02  0.11801881316E+04  0.11880770046E+04  0.12500000000E+03 0.  0.
         25    1    1    2    0    0  0.16775044760E+02  0.12651286337E+03  0.20598120812E+03  0.27265392868E+03  0.12500000000E+03 0.  0.
         25    1    1    2    0    0 -0.55118036968E+02 -0.86666185426E+02  0.26040191869E+03  0.30656677079E+03  0.12500000000E+03 0.  0.
</event>
<event>
 5    0  0.5452999E-005  0.2402908E+03  0.7546771E-02  0.1119599E+00
         21   -1    0    0  502  501  0.00000000000E+00  0.00000000000E+00  0.37643730150E+03  0.37643730150E+03  0.00000000000E+00 0.  1.
         21   -1    0    0  501  502 -0.00000000000E+00 -0.00000000000E+00 -0.15338458294E+03  0.15338458294E+03  0.00000000000E+00 0.  1.
         25    1    1    2    0    0  0.22250376890E+02  0.66239891288E+02 -0.20192359778E+02  0.14462203796E+03  0.12500000000E+03 0.  0.
         25    1    1    2    0    0  0.27646715661E+02  0.18125762191E+02  0.16047285234E+03  0.20608110170E+03  0.12500000000E+03 0.  0.
         25    1    1    2    0    0 -0.49897092551E+02 -0.84365653479E+02  0.82772226004E+02  0.17911874477E+03  0.12500000000E+03 0.  0.
</event>
<event>
 5    0  0.5452999E-005  0.3170044E+03  0.7546771E-02  0.1077036E+00
         21   -1    0    0  502  501  0.00000000000E+00  0.00000000000E+00  0.36081865692E+03  0.36081865692E+03  0.00000000000E+00 0. -1.
         21   -1    0    0  501  502 -0.00000000000E+00 -0.00000000000E+00 -0.27851055367E+03  0.27851055367E+03  0.00000000000E+00 0. -1.
         25    1    1    2    0    0  0.78229144422E+02 -0.20677946833E+03 -0.37348839122E+02  0.25670505126E+03  0.12500000000E+03 0.  0.
         25    1    1    2    0    0 -0.47810753765E+01  0.13030790988E+03  0.12324497861E+03  0.21867175129E+03  0.12500000000E+03 0.  0.
         25    1    1    2    0    0 -0.73448069045E+02  0.76471558453E+02 -0.35880362422E+01  0.16395240804E+03  0.12500000000E+03 0.  0.
</event>
<event>
 5    0  0.5452999E-005  0.3118470E+03  0.7546771E-02  0.1079464E+00
         21   -1    0    0  502  501  0.00000000000E+00  0.00000000000E+00  0.21026410643E+03  0.21026410643E+03  0.00000000000E+00 0. -1.
         21   -1    0    0  501  502 -0.00000000000E+00 -0.00000000000E+00 -0.46250673211E+03  0.46250673211E+03  0.00000000000E+00 0. -1.
         25    1    1    2    0    0 -0.57724886397E+02  0.13004587909E+03 -0.15653289577E+03  0.24570641147E+03  0.12500000000E+03 0.  0.
         25    1    1    2    0    0  0.92590006683E+02  0.32201947468E+02 -0.14328111357E+03  0.21392604391E+03  0.12500000000E+03 0.  0.
         25    1    1    2    0    0 -0.34865120286E+02 -0.16224782655E+03  0.47571383663E+02  0.21313838316E+03  0.12500000000E+03 0.  0.
</event>
<event>
 5    0  0.5452999E-005  0.3220783E+03  0.7546771E-02  0.1074697E+00
         21   -1    0    0  502  501  0.00000000000E+00  0.00000000000E+00  0.70233187866E+03  0.70233187866E+03  0.00000000000E+00 0. -1.
         21   -1    0    0  501  502 -0.00000000000E+00 -0.00000000000E+00 -0.14770003077E+03  0.14770003077E+03  0.00000000000E+00 0. -1.
         25    1    1    2    0    0 -0.14699202522E+03  0.89698444102E+02  0.25329138813E+03  0.33080809188E+03  0.12500000000E+03 0.  0.
         25    1    1    2    0    0  0.13517373082E+02  0.89827550405E+02  0.17517771347E+03  0.23358925378E+03  0.12500000000E+03 0.  0.
         25    1    1    2    0    0  0.13347465214E+03 -0.17952599451E+03  0.12616274630E+03  0.28563456377E+03  0.12500000000E+03 0.  0.
</event>
<event>
 5    0  0.5452999E-005  0.3076023E+03  0.7546771E-02  0.1081501E+00
         21   -1    0    0  502  501  0.00000000000E+00  0.00000000000E+00  0.78371387372E+02  0.78371387372E+02  0.00000000000E+00 0. -1.
         21   -1    0    0  501  502 -0.00000000000E+00 -0.00000000000E+00 -0.12073175828E+04  0.12073175828E+04  0.00000000000E+00 0. -1.
         25    1    1    2    0    0  0.13091927953E+03  0.93152801452E+02 -0.28762344946E+03  0.35237700103E+03  0.12500000000E+03 0.  0.
         25    1    1    2    0    0  0.21173339797E+02  0.71000829949E+02 -0.25689339264E+03  0.29514173435E+03  0.12500000000E+03 0.  0.
         25    1    1    2    0    0 -0.15209261933E+03 -0.16415363140E+03 -0.58442935334E+03  0.63817023481E+03  0.12500000000E+03 0.  0.
</event>
<event>
 5    0  0.5452999E-005  0.2322345E+03  0.7546771E-02  0.1125077E+00
         21   -1    0    0  502  501  0.00000000000E+00  0.00000000000E+00  0.32940887178E+02  0.32940887178E+02  0.00000000000E+00 0. -1.
         21   -1    0    0  501  502 -0.00000000000E+00 -0.00000000000E+00 -0.16372620185E+04  0.16372620185E+04  0.00000000000E+00 0. -1.
         25    1    1    2    0    0 -0.42109160472E+02 -0.34177774831E+02 -0.47171517118E+03  0.49100051366E+03  0.12500000000E+03 0.  0.
         25    1    1    2    0    0 -0.28117979006E+02 -0.74014125234E+02 -0.54807730248E+03  0.56769925222E+03  0.12500000000E+03 0.  0.
         25    1    1    2    0    0  0.70227139478E+02  0.10819190007E+03 -0.58452865764E+03  0.61150313978E+03  0.12500000000E+03 0.  0.
</event>
<event>
 5    0  0.5452999E-005  0.3021948E+03  0.7546771E-02  0.1084149E+00
         21   -1    0    0  502  501  0.00000000000E+00  0.00000000000E+00  0.16609591255E+03  0.16609591255E+03  0.00000000000E+00 0. -1.
         21   -1    0    0  501  502 -0.00000000000E+00 -0.00000000000E+00 -0.54981286901E+03  0.54981286901E+03  0.00000000000E+00 0. -1.
         25    1    1    2    0    0  0.30502571766E+02  0.82592240445E+02 -0.96654724043E+02  0.18088399804E+03  0.12500000000E+03 0.  0.
         25    1    1    2    0    0  0.15544937506E+02 -0.20957805023E+03 -0.24519917456E+03  0.34628346687E+03  0.12500000000E+03 0.  0.
         25    1    1    2    0    0 -0.46047509272E+02  0.12698580979E+03 -0.41863057862E+02  0.18874131665E+03  0.12500000000E+03 0.  0.
</event>
<event>
 5    0  0.5452999E-005  0.3015204E+03  0.7546771E-02  0.1084483E+00
         21   -1    0    0  502  501  0.00000000000E+00  0.00000000000E+00  0.61610721645E+03  0.61610721645E+03  0.00000000000E+00 0. -1.
         21   -1    0    0  501  502 -0.00000000000E+00 -0.00000000000E+00 -0.14756286582E+03  0.14756286582E+03  0.00000000000E+00 0. -1.
         25    1    1    2    0    0  0.69189947672E+02  0.56190365669E+02  0.25746893039E+03  0.29976633595E+03  0.12500000000E+03 0.  0.
         25    1    1    2    0    0 -0.11996252075E+01  0.12167742133E+03  0.39845228299E+02  0.17893986750E+03  0.12500000000E+03 0.  0.
         25    1    1    2    0    0 -0.67990322464E+02 -0.17786778700E+03  0.17123019194E+03  0.28496387882E+03  0.12500000000E+03 0.  0.
</event>
<event>
 5    0  0.7694547E-005  0.3029426E+03  0.7546771E-02  0.1083779E+00
         21   -1    0    0  502  501  0.00000000000E+00  0.00000000000E+00  0.58775071964E+03  0.58775071964E+03  0.00000000000E+00 0.  1.
         21   -1    0    0  501  502 -0.00000000000E+00 -0.00000000000E+00 -0.15614477567E+03  0.15614477567E+03  0.00000000000E+00 0.  1.
         25    1    1    2    0    0  0.49125242781E+02  0.45505567889E+02  0.26922497944E+03  0.30428791586E+03  0.12500000000E+03 0.  0.
         25    1    1    2    0    0 -0.18031202328E+02  0.12232202383E+03  0.14397465265E+03  0.22724766748E+03  0.12500000000E+03 0.  0.
         25    1    1    2    0    0 -0.31094040453E+02 -0.16782759172E+03  0.18406311883E+02  0.21235991197E+03  0.12500000000E+03 0.  0.
</event>
<event>
 5    0  0.5452999E-005  0.3410238E+03  0.7546771E-02  0.1066361E+00
         21   -1    0    0  502  501  0.00000000000E+00  0.00000000000E+00  0.19359585308E+03  0.19359585308E+03  0.00000000000E+00 0. -1.
         21   -1    0    0  501  502 -0.00000000000E+00 -0.00000000000E+00 -0.60072170795E+03  0.60072170795E+03  0.00000000000E+00 0. -1.
         25    1    1    2    0    0 -0.17656221983E+03  0.15065847346E+03 -0.27985885617E+02  0.26510451315E+03  0.12500000000E+03 0.  0.
         25    1    1    2    0    0  0.16985968389E+03 -0.10703113796E+03 -0.25012062261E+03  0.34422856151E+03  0.12500000000E+03 0.  0.
         25    1    1    2    0    0  0.67025359461E+01 -0.43627335502E+02 -0.12901934664E+03  0.18498448637E+03  0.12500000000E+03 0.  0.
</event>
<event>
 5    0  0.5452999E-005  0.2682412E+03  0.7546771E-02  0.1102290E+00
         21   -1    0    0  502  501  0.00000000000E+00  0.00000000000E+00  0.13268985518E+04  0.13268985518E+04  0.00000000000E+00 0. -1.
         21   -1    0    0  501  502 -0.00000000000E+00 -0.00000000000E+00 -0.54226719557E+02  0.54226719557E+02  0.00000000000E+00 0. -1.
         25    1    1    2    0    0  0.38485372002E+02 -0.15328481952E+03  0.38417241057E+03  0.43380963659E+03  0.12500000000E+03 0.  0.
         25    1    1    2    0    0 -0.64206347557E+02  0.70619508422E+02  0.29108890074E+03  0.33085845640E+03  0.12500000000E+03 0.  0.
         25    1    1    2    0    0  0.25720975555E+02  0.82665311100E+02  0.59741052094E+03  0.61645717838E+03  0.12500000000E+03 0.  0.
</event>
<event>
 5    0  0.5452999E-005  0.5659539E+03  0.7546771E-02  0.9978672E-01
         21   -1    0    0  502  501  0.00000000000E+00  0.00000000000E+00  0.36226851856E+03  0.36226851856E+03  0.00000000000E+00 0. -1.
         21   -1    0    0  501  502 -0.00000000000E+00 -0.00000000000E+00 -0.88416145748E+03  0.88416145748E+03  0.00000000000E+00 0. -1.
         25    1    1    2    0    0  0.15704455485E+03 -0.44715182117E+03 -0.17954068031E+03  0.52198429025E+03  0.12500000000E+03 0.  0.
         25    1    1    2    0    0 -0.10114046234E+03  0.38258136269E+03 -0.38613066667E+03  0.56685075985E+03  0.12500000000E+03 0.  0.
         25    1    1    2    0    0 -0.55904092511E+02  0.64570458480E+02  0.43778408068E+02  0.15759492594E+03  0.12500000000E+03 0.  0.
</event>
<event>
 5    0  0.5452999E-005  0.4551878E+03  0.7546771E-02  0.1026186E+00
         21   -1    0    0  502  501  0.00000000000E+00  0.00000000000E+00  0.28281621655E+03  0.28281621655E+03  0.00000000000E+00 0.  1.
         21   -1    0    0  501  502 -0.00000000000E+00 -0.00000000000E+00 -0.73261682478E+03  0.73261682478E+03  0.00000000000E+00 0.  1.
         25    1    1    2    0    0 -0.30266609734E+02 -0.92161774121E+02 -0.28954767821E+03  0.32995866140E+03  0.12500000000E+03 0.  0.
         25    1    1    2    0    0 -0.23966276813E+03  0.20758821236E+03 -0.13074917221E+03  0.36503623707E+03  0.12500000000E+03 0.  0.
         25    1    1    2    0    0  0.26992937786E+03 -0.11542643824E+03 -0.29503757809E+02  0.32043814286E+03  0.12500000000E+03 0.  0.
</event>
<event>
 5    0  0.5452999E-005  0.2302416E+03  0.7546771E-02  0.1126470E+00
         21   -1    0    0  502  501  0.00000000000E+00  0.00000000000E+00  0.14620385307E+03  0.14620385307E+03  0.00000000000E+00 0.  1.
         21   -1    0    0  501  502 -0.00000000000E+00 -0.00000000000E+00 -0.36258409317E+03  0.36258409317E+03  0.00000000000E+00 0.  1.
         25    1    1    2    0    0  0.51138278191E+01  0.32140340507E+02 -0.14879177183E+03  0.19703589543E+03  0.12500000000E+03 0.  0.
         25    1    1    2    0    0 -0.53824725018E+02 -0.20033637054E+02  0.35570987065E+02  0.14208709568E+03  0.12500000000E+03 0.  0.
         25    1    1    2    0    0  0.48710897198E+02 -0.12106703453E+02 -0.10315945534E+03  0.16966495513E+03  0.12500000000E+03 0.  0.
</event>
<event>
 5    0  0.5452999E-005  0.3276786E+03  0.7546771E-02  0.1072169E+00
         21   -1    0    0  502  501  0.00000000000E+00  0.00000000000E+00  0.20482940263E+03  0.20482940263E+03  0.00000000000E+00 0. -1.
         21   -1    0    0  501  502 -0.00000000000E+00 -0.00000000000E+00 -0.52420828275E+03  0.52420828275E+03  0.00000000000E+00 0. -1.
         25    1    1    2    0    0 -0.75591764234E+02  0.32285858566E+02 -0.23409922510E+03  0.27781997530E+03  0.12500000000E+03 0.  0.
         25    1    1    2    0    0  0.16417055326E+03  0.96268831547E+02  0.13630334660E+02  0.22810182926E+03  0.12500000000E+03 0.  0.
         25    1    1    2    0    0 -0.88578789031E+02 -0.12855469011E+03 -0.98909989678E+02  0.22311588082E+03  0.12500000000E+03 0.  0.
</event>
<event>
 5    0  0.5452999E-005  0.2583797E+03  0.7546771E-02  0.1108121E+00
         21   -1    0    0  502  501  0.00000000000E+00  0.00000000000E+00  0.17059915586E+03  0.17059915586E+03  0.00000000000E+00 0. -1.
         21   -1    0    0  501  502 -0.00000000000E+00 -0.00000000000E+00 -0.39132713523E+03  0.39132713523E+03  0.00000000000E+00 0. -1.
         25    1    1    2    0    0  0.81690837666E+02  0.34836904887E+02  0.47573041930E+02  0.16054655779E+03  0.12500000000E+03 0.  0.
         25    1    1    2    0    0 -0.69528593740E+02 -0.69557811049E+02 -0.19582089710E+03  0.25227631313E+03  0.12500000000E+03 0.  0.
         25    1    1    2    0    0 -0.12162243925E+02  0.34720906162E+02 -0.72480124204E+02  0.14910342017E+03  0.12500000000E+03 0.  0.
</event>
<event>
 5    0  0.6036072E-005  0.3607792E+03  0.7546771E-02  0.1058276E+00
         21   -1    0    0  502  501  0.00000000000E+00  0.00000000000E+00  0.22486454771E+03  0.22486454771E+03  0.00000000000E+00 0.  1.
         21   -1    0    0  501  502 -0.00000000000E+00 -0.00000000000E+00 -0.57884457436E+03  0.57884457436E+03  0.00000000000E+00 0.  1.
         25    1    1    2    0    0  0.30736579337E+02  0.21521228960E+03 -0.21857020167E+03  0.33265447534E+03  0.12500000000E+03 0.  0.
         25    1    1    2    0    0 -0.34945053816E+02 -0.18782084427E+03 -0.22043810805E+03  0.31735750473E+03  0.12500000000E+03 0.  0.
         25    1    1    2    0    0  0.42084744785E+01 -0.27391445334E+02  0.85028283072E+02  0.15369714199E+03  0.12500000000E+03 0.  0.
</event>
<event>
 5    0  0.5452999E-005  0.2871870E+03  0.7546771E-02  0.1091827E+00
         21   -1    0    0  502  501  0.00000000000E+00  0.00000000000E+00  0.24513918860E+03  0.24513918860E+03  0.00000000000E+00 0.  1.
         21   -1    0    0  501  502 -0.00000000000E+00 -0.00000000000E+00 -0.33644719776E+03  0.33644719776E+03  0.00000000000E+00 0.  1.
         25    1    1    2    0    0 -0.86424532894E+02 -0.72947793751E+02 -0.11658275456E+02  0.16897187898E+03  0.12500000000E+03 0.  0.
         25    1    1    2    0    0  0.72245776559E+02  0.15608738774E+03  0.44574669310E+02  0.21724324152E+03  0.12500000000E+03 0.  0.
         25    1    1    2    0    0  0.14178756336E+02 -0.83139593994E+02 -0.12422440301E+03  0.19537126586E+03  0.12500000000E+03 0.  0.
</event>
<event>
 5    0  0.5452999E-005  0.3167795E+03  0.7546771E-02  0.1077141E+00
         21   -1    0    0  502  501  0.00000000000E+00  0.00000000000E+00  0.31562753293E+04  0.31562753293E+04  0.00000000000E+00 0.  1.
         21   -1    0    0  501  502 -0.00000000000E+00 -0.00000000000E+00 -0.31793564174E+02  0.31793564174E+02  0.00000000000E+00 0.  1.
         25    1    1    2    0    0  0.93967671648E+02  0.29413208804E+02  0.11706376852E+04  0.11814028315E+04  0.12500000000E+03 0.  0.
         25    1    1    2    0    0 -0.17448601006E+03  0.10713575888E+03  0.79629920017E+03  0.83164947829E+03  0.12500000000E+03 0.  0.
         25    1    1    2    0    0  0.80518338414E+02 -0.13654896768E+03  0.11575448797E+04  0.11750165837E+04  0.12500000000E+03 0.  0.
</event>
<event>
 5    0  0.5783505E-005  0.3443952E+03  0.7546771E-02  0.1064939E+00
         21   -1    0    0  502  501  0.00000000000E+00  0.00000000000E+00  0.61891865199E+03  0.61891865199E+03  0.00000000000E+00 0. -1.
         21   -1    0    0  501  502 -0.00000000000E+00 -0.00000000000E+00 -0.19163753021E+03  0.19163753021E+03  0.00000000000E+00 0. -1.
         25    1    1    2    0    0  0.30638047065E+02  0.82010917052E+01  0.45438545462E+03  0.47233154585E+03  0.12500000000E+03 0.  0.
         25    1    1    2    0    0 -0.22127074335E+02  0.10572173722E+03 -0.34329314333E+02  0.16873113216E+03  0.12500000000E+03 0.  0.
         25    1    1    2    0    0 -0.85109727297E+01 -0.11392282892E+03  0.72249814944E+01  0.16949350419E+03  0.12500000000E+03 0.  0.
</event>
<event>
 5    0  0.5452999E-005  0.4714685E+03  0.7546771E-02  0.1021507E+00
         21   -1    0    0  502  501  0.00000000000E+00  0.00000000000E+00  0.50938354471E+03  0.50938354471E+03  0.00000000000E+00 0.  1.
         21   -1    0    0  501  502 -0.00000000000E+00 -0.00000000000E+00 -0.43637551666E+03  0.43637551666E+03  0.00000000000E+00 0.  1.
         25    1    1    2    0    0  0.88614132865E+02  0.13979077875E+02  0.87482560971E+02  0.17699174454E+03  0.12500000000E+03 0.  0.
         25    1    1    2    0    0  0.32566442567E+02  0.27060284587E+03  0.21052107330E+03  0.36637493866E+03  0.12500000000E+03 0.  0.
         25    1    1    2    0    0 -0.12118057543E+03 -0.28458192375E+03 -0.22499560622E+03  0.40239237816E+03  0.12500000000E+03 0.  0.
</event>
<event>
 5    0  0.5452999E-005  0.2466138E+03  0.7546771E-02  0.1115464E+00
         21   -1    0    0  502  501  0.00000000000E+00  0.00000000000E+00  0.16405228597E+04  0.16405228597E+04  0.00000000000E+00 0.  1.
         21   -1    0    0  501  502 -0.00000000000E+00 -0.00000000000E+00 -0.37072548969E+02  0.37072548969E+02  0.00000000000E+00 0.  1.
         25    1    1    2    0    0 -0.57326830963E+02 -0.28114231506E+02  0.77600382200E+03  0.78859603557E+03  0.12500000000E+03 0.  0.
         25    1    1    2    0    0  0.89643520448E+02  0.87639475688E+02  0.37394141255E+03  0.41373157781E+03  0.12500000000E+03 0.  0.
         25    1    1    2    0    0 -0.32316689485E+02 -0.59525244182E+02  0.45350507616E+03  0.47526779526E+03  0.12500000000E+03 0.  0.
</event>
<event>
 5    0  0.5452999E-005  0.2858662E+03  0.7546771E-02  0.1092527E+00
         21   -1    0    0  502  501  0.00000000000E+00  0.00000000000E+00  0.29809734462E+03  0.29809734462E+03  0.00000000000E+00 0. -1.
         21   -1    0    0  501  502 -0.00000000000E+00 -0.00000000000E+00 -0.27413686778E+03  0.27413686778E+03  0.00000000000E+00 0. -1.
         25    1    1    2    0    0 -0.48224467598E+02  0.15024540355E+02 -0.54829766545E+02  0.14554256899E+03  0.12500000000E+03 0.  0.
         25    1    1    2    0    0 -0.12338315120E+03 -0.16161708486E+02  0.11605548451E+03  0.21113616058E+03  0.12500000000E+03 0.  0.
         25    1    1    2    0    0  0.17160761880E+03  0.11371681316E+01 -0.37265241126E+02  0.21555548283E+03  0.12500000000E+03 0.  0.
</event>
<event>
 5    0  0.5452999E-005  0.2707374E+03  0.7546771E-02  0.1100858E+00
         21   -1    0    0  502  501  0.00000000000E+00  0.00000000000E+00  0.64169989575E+03  0.64169989575E+03  0.00000000000E+00 0.  1.
         21   -1    0    0  501  502 -0.00000000000E+00 -0.00000000000E+00 -0.11422585243E+03  0.11422585243E+03  0.00000000000E+00 0.  1.
         25    1    1    2    0    0  0.55687259538E+02  0.32562159624E+02  0.78548361260E+02  0.16110931125E+03  0.12500000000E+03 0.  0.
         25    1    1    2    0    0  0.76783352270E+02  0.88533991785E+02  0.18882562185E+03  0.25497856058E+03  0.12500000000E+03 0.  0.
         25    1    1    2    0    0 -0.13247061181E+03 -0.12109615141E+03  0.26010006020E+03  0.33983787634E+03  0.12500000000E+03 0.  0.
</event>
<event>
 5    0  0.5452999E-005  0.3380171E+03  0.7546771E-02  0.1067644E+00
         21   -1    0    0  502  501  0.00000000000E+00  0.00000000000E+00  0.12444064159E+04  0.12444064159E+04  0.00000000000E+00 0.  1.
         21   -1    0    0  501  502 -0.00000000000E+00 -0.00000000000E+00 -0.91815287988E+02  0.91815287988E+02  0.00000000000E+00 0.  1.
         25    1    1    2    0    0 -0.85856427907E+02 -0.90674146181E+02  0.15768252115E+03  0.23681618288E+03  0.12500000000E+03 0.  0.
         25    1    1    2    0    0  0.98882988094E+02  0.21957503261E+03  0.44935245911E+03  0.52491301449E+03  0.12500000000E+03 0.  0.
         25    1    1    2    0    0 -0.13026560188E+02 -0.12890088643E+03  0.54555614765E+03  0.57449250651E+03  0.12500000000E+03 0.  0.
</event>
<event>
 5    0  0.5452999E-005  0.3732268E+03  0.7546771E-02  0.1053466E+00
         21   -1    0    0  502  501  0.00000000000E+00  0.00000000000E+00  0.10943612671E+03  0.10943612671E+03  0.00000000000E+00 0.  1.
         21   -1    0    0  501  502 -0.00000000000E+00 -0.00000000000E+00 -0.12728727856E+04  0.12728727856E+04  0.00000000000E+00 0.  1.
         25    1    1    2    0    0  0.13724249799E+03 -0.13583278608E+01 -0.46910245594E+03  0.50449921950E+03  0.12500000000E+03 0.  0.
         25    1    1    2    0    0  0.14139563722E+03  0.53929425710E+02 -0.42139123389E+03  0.46486200230E+03  0.12500000000E+03 0.  0.
         25    1    1    2    0    0 -0.27863813522E+03 -0.52571097849E+02 -0.27294296906E+03  0.41294769049E+03  0.12500000000E+03 0.  0.
</event>
<event>
 5    0  0.5452999E-005  0.2741381E+03  0.7546771E-02  0.1098934E+00
         21   -1    0    0  502  501  0.00000000000E+00  0.00000000000E+00  0.25285172026E+03  0.25285172026E+03  0.00000000000E+00 0. -1.
         21   -1    0    0  501  502 -0.00000000000E+00 -0.00000000000E+00 -0.29721656344E+03  0.29721656344E+03  0.00000000000E+00 0. -1.
         25    1    1    2    0    0 -0.33159382701E+02  0.87571362506E+02 -0.12063793101E+03  0.19734943271E+03  0.12500000000E+03 0.  0.
         25    1    1    2    0    0  0.40597917865E+01 -0.88687559671E+02  0.14159854493E+03  0.20870340935E+03  0.12500000000E+03 0.  0.
         25    1    1    2    0    0  0.29099590915E+02  0.11161971658E+01 -0.65325457090E+02  0.14401544164E+03  0.12500000000E+03 0.  0.
</event>
<event>
 5    0  0.5452999E-005  0.2845201E+03  0.7546771E-02  0.1093245E+00
         21   -1    0    0  502  501  0.00000000000E+00  0.00000000000E+00  0.48167137861E+03  0.48167137861E+03  0.00000000000E+00 0.  1.
         21   -1    0    0  501  502 -0.00000000000E+00 -0.00000000000E+00 -0.16806414379E+03  0.16806414379E+03  0.00000000000E+00 0.  1.
         25    1    1    2    0    0  0.93143177954E+00 -0.13568017110E+03  0.49156334518E+02  0.19092229210E+03  0.12500000000E+03 0.  0.
         25    1    1    2    0    0  0.57011614008E+02  0.12888737046E+03  0.35766996327E+02  0.19174607277E+03  0.12500000000E+03 0.  0.
         25    1    1    2    0    0 -0.57943045788E+02  0.67928006383E+01  0.22868390397E+03  0.26706715753E+03  0.12500000000E+03 0.  0.
</event>
<event>
 5    0  0.5452999E-005  0.3283093E+03  0.7546771E-02  0.1071887E+00
         21   -1    0    0  502  501  0.00000000000E+00  0.00000000000E+00  0.27854238742E+03  0.27854238742E+03  0.00000000000E+00 0. -1.
         21   -1    0    0  501  502 -0.00000000000E+00 -0.00000000000E+00 -0.38696791558E+03  0.38696791558E+03  0.00000000000E+00 0. -1.
         25    1    1    2    0    0  0.45788888560E+02  0.91444694310E+02  0.96832764831E+02  0.18830915745E+03  0.12500000000E+03 0.  0.
         25    1    1    2    0    0 -0.56930230510E+02  0.11185387622E+03 -0.27151321846E+02  0.17920528745E+03  0.12500000000E+03 0.  0.
         25    1    1    2    0    0  0.11141341950E+02 -0.20329857053E+03 -0.17810697115E+03  0.29799585811E+03  0.12500000000E+03 0.  0.
</event>
<event>
 5    0  0.5452999E-005  0.2497166E+03  0.7546771E-02  0.1113484E+00
         21   -1    0    0  502  501  0.00000000000E+00  0.00000000000E+00  0.81735023585E+02  0.81735023585E+02  0.00000000000E+00 0.  1.
         21   -1    0    0  501  502 -0.00000000000E+00 -0.00000000000E+00 -0.76293327875E+03  0.76293327875E+03  0.00000000000E+00 0.  1.
         25    1    1    2    0    0 -0.72863907357E+02  0.13691026098E+02 -0.43536351226E+03  0.45898037103E+03  0.12500000000E+03 0.  0.
         25    1    1    2    0    0 -0.34041793459E+02 -0.21564820083E+02 -0.92098932379E+02  0.16040915969E+03  0.12500000000E+03 0.  0.
         25    1    1    2    0    0  0.10690570082E+03  0.78737939846E+01 -0.15373581053E+03  0.22527877161E+03  0.12500000000E+03 0.  0.
</event>
<event>
 5    0  0.5452999E-005  0.3223680E+03  0.7546771E-02  0.1074565E+00
         21   -1    0    0  502  501  0.00000000000E+00  0.00000000000E+00  0.50745195019E+03  0.50745195019E+03  0.00000000000E+00 0. -1.
         21   -1    0    0  501  502 -0.00000000000E+00 -0.00000000000E+00 -0.20479010346E+03  0.20479010346E+03  0.00000000000E+00 0. -1.
         25    1    1    2    0    0 -0.65545065611E+01 -0.16642418891E+02  0.19609120693E+03  0.23323098657E+03  0.12500000000E+03 0.  0.
         25    1    1    2    0    0  0.10670677234E+03 -0.55840670534E+02  0.21201282243E+03  0.27400538795E+03  0.12500000000E+03 0.  0.
         25    1    1    2    0    0 -0.10015226578E+03  0.72483089425E+02 -0.10544218264E+03  0.20500567912E+03  0.12500000000E+03 0.  0.
</event>
<event>
 5    0  0.5452999E-005  0.2503012E+03  0.7546771E-02  0.1113115E+00
         21   -1    0    0  502  501  0.00000000000E+00  0.00000000000E+00  0.11886389001E+04  0.11886389001E+04  0.00000000000E+00 0. -1.
         21   -1    0    0  501  502 -0.00000000000E+00 -0.00000000000E+00 -0.52707918022E+02  0.52707918022E+02  0.00000000000E+00 0. -1.
         25    1    1    2    0    0  0.39879905705E+02 -0.47554253241E+02  0.56147635029E+03  0.57856071922E+03  0.12500000000E+03 0.  0.
         25    1    1    2    0    0 -0.25115387781E+01 -0.79704255401E+02  0.26414719349E+03  0.30291552615E+03  0.12500000000E+03 0.  0.
         25    1    1    2    0    0 -0.37368366926E+02  0.12725850864E+03  0.31030743826E+03  0.35987057272E+03  0.12500000000E+03 0.  0.
</event>
<event>
 5    0  0.6600763E-005  0.3034548E+03  0.7546771E-02  0.1083526E+00
         21   -1    0    0  502  501  0.00000000000E+00  0.00000000000E+00  0.52873629696E+03  0.52873629696E+03  0.00000000000E+00 0.  1.
         21   -1    0    0  501  502 -0.00000000000E+00 -0.00000000000E+00 -0.17416024660E+03  0.17416024660E+03  0.00000000000E+00 0.  1.
         25    1    1    2    0    0 -0.15578261672E+02 -0.94453229575E+02  0.45018306667E+02  0.16375513045E+03  0.12500000000E+03 0.  0.
         25    1    1    2    0    0 -0.83979376540E+02 -0.96106129686E+02  0.19767326385E+03  0.26643694017E+03  0.12500000000E+03 0.  0.
         25    1    1    2    0    0  0.99557638212E+02  0.19055935926E+03  0.11188447984E+03  0.27270447293E+03  0.12500000000E+03 0.  0.
</event>
<event>
 5    0  0.5452999E-005  0.4194888E+03  0.7546771E-02  0.1037233E+00
         21   -1    0    0  502  501  0.00000000000E+00  0.00000000000E+00  0.22673659849E+03  0.22673659849E+03  0.00000000000E+00 0.  1.
         21   -1    0    0  501  502 -0.00000000000E+00 -0.00000000000E+00 -0.77610257439E+03  0.77610257439E+03  0.00000000000E+00 0.  1.
         25    1    1    2    0    0 -0.18927679832E+02  0.31808402265E+02 -0.88114129521E+02  0.15735034585E+03  0.12500000000E+03 0.  0.
         25    1    1    2    0    0 -0.27783623337E+03 -0.10247173704E+03 -0.61384363416E+02  0.32724069053E+03  0.12500000000E+03 0.  0.
         25    1    1    2    0    0  0.29676391320E+03  0.70663334776E+02 -0.39986748296E+03  0.51824813651E+03  0.12500000000E+03 0.  0.
</event>
<event>
 5    0  0.5452999E-005  0.4049547E+03  0.7546771E-02  0.1042077E+00
         21   -1    0    0  502  501  0.00000000000E+00  0.00000000000E+00  0.11727961364E+04  0.11727961364E+04  0.00000000000E+00 0. -1.
         21   -1    0    0  501  502 -0.00000000000E+00 -0.00000000000E+00 -0.13982680439E+03  0.13982680439E+03  0.00000000000E+00 0. -1.
         25    1    1    2    0    0  0.21772589823E+03  0.87731148684E+02  0.62345454921E+03  0.67780668051E+03  0.12500000000E+03 0.  0.
         25    1    1    2    0    0 -0.27816421913E+03 -0.28418609047E+02  0.36689605125E+03  0.47793374286E+03  0.12500000000E+03 0.  0.
         25    1    1    2    0    0  0.60438320899E+02 -0.59312539637E+02  0.42618731540E+02  0.15688251741E+03  0.12500000000E+03 0.  0.
</event>
<event>
 5    0  0.5452999E-005  0.2839272E+03  0.7546771E-02  0.1093563E+00
         21   -1    0    0  502  501  0.00000000000E+00  0.00000000000E+00  0.30259186216E+03  0.30259186216E+03  0.00000000000E+00 0.  1.
         21   -1    0    0  501  502 -0.00000000000E+00 -0.00000000000E+00 -0.26641379820E+03  0.26641379820E+03  0.00000000000E+00 0.  1.
         25    1    1    2    0    0 -0.66271740472E+02 -0.18360415609E+02 -0.12357161827E+03  0.18874319402E+03  0.12500000000E+03 0.  0.
         25    1    1    2    0    0  0.75147814864E+02 -0.51252517237E+02 -0.13749289149E+02  0.15520327817E+03  0.12500000000E+03 0.  0.
         25    1    1    2    0    0 -0.88760743926E+01  0.69612932847E+02  0.17349897138E+03  0.22505918818E+03  0.12500000000E+03 0.  0.
</event>
<event>
 5    0  0.5452999E-005  0.3779762E+03  0.7546771E-02  0.1051684E+00
         21   -1    0    0  502  501  0.00000000000E+00  0.00000000000E+00  0.25122317983E+03  0.25122317983E+03  0.00000000000E+00 0. -1.
         21   -1    0    0  501  502 -0.00000000000E+00 -0.00000000000E+00 -0.56868171835E+03  0.56868171835E+03  0.00000000000E+00 0. -1.
         25    1    1    2    0    0  0.81436042005E+02  0.19920514667E+03 -0.14831504805E+03  0.28971860982E+03  0.12500000000E+03 0.  0.
         25    1    1    2    0    0  0.75331024506E+02  0.41937421584E+02 -0.15390603598E+03  0.21620725819E+03  0.12500000000E+03 0.  0.
         25    1    1    2    0    0 -0.15676706651E+03 -0.24114256826E+03 -0.15237454488E+02  0.31397903017E+03  0.12500000000E+03 0.  0.
</event>
<event>
 5    0  0.5452999E-005  0.3836351E+03  0.7546771E-02  0.1049598E+00
         21   -1    0    0  502  501  0.00000000000E+00  0.00000000000E+00  0.27013290232E+03  0.27013290232E+03  0.00000000000E+00 0. -1.
         21   -1    0    0  501  502 -0.00000000000E+00 -0.00000000000E+00 -0.54482776558E+03  0.54482776558E+03  0.00000000000E+00 0. -1.
         25    1    1    2    0    0 -0.29455809852E+03  0.34266275090E+02 -0.17023746307E+03  0.36406653904E+03  0.12500000000E+03 0.  0.
         25    1    1    2    0    0  0.36796379147E+02 -0.71554104237E+02 -0.20577001853E+02  0.15007456932E+03  0.12500000000E+03 0.  0.
         25    1    1    2    0    0  0.25776171938E+03  0.37287829147E+02 -0.83880398344E+02  0.30081955954E+03  0.12500000000E+03 0.  0.
</event>
<event>
 5    0  0.5452999E-005  0.3348763E+03  0.7546771E-02  0.1068999E+00
         21   -1    0    0  502  501  0.00000000000E+00  0.00000000000E+00  0.13334362693E+03  0.13334362693E+03  0.00000000000E+00 0.  1.
         21   -1    0    0  501  502 -0.00000000000E+00 -0.00000000000E+00 -0.84100103981E+03  0.84100103981E+03  0.00000000000E+00 0. -1.
         25    1    1    2    0    0  0.20051246184E+03  0.73707536459E+02 -0.21882052595E+03  0.33037171619E+03  0.12500000000E+03 0.  0.
         25    1    1    2    0    0 -0.37149153917E+02 -0.35951111853E+02 -0.28332373805E+02  0.13820371010E+03  0.12500000000E+03 0.  0.
         25    1    1    2    0    0 -0.16336330792E+03 -0.37756424606E+02 -0.46050451313E+03  0.50576924045E+03  0.12500000000E+03 0.  0.
</event>
<event>
 5    0  0.5452999E-005  0.2198054E+03  0.7546771E-02  0.1134028E+00
         21   -1    0    0  502  501  0.00000000000E+00  0.00000000000E+00  0.90662892185E+02  0.90662892185E+02  0.00000000000E+00 0.  1.
         21   -1    0    0  501  502 -0.00000000000E+00 -0.00000000000E+00 -0.53290190205E+03  0.53290190205E+03  0.00000000000E+00 0.  1.
         25    1    1    2    0    0 -0.14577247936E+02  0.70992016256E+02 -0.17268144894E+03  0.22515826731E+03  0.12500000000E+03 0.  0.
         25    1    1    2    0    0  0.11827078456E+02 -0.10459038312E+03 -0.13890188377E+03  0.21447088693E+03  0.12500000000E+03 0.  0.
         25    1    1    2    0    0  0.27501694808E+01  0.33598366862E+02 -0.13065567715E+03  0.18393563999E+03  0.12500000000E+03 0.  0.
</event>
<event>
 5    0  0.5452999E-005  0.2630848E+03  0.7546771E-02  0.1105304E+00
         21   -1    0    0  502  501  0.00000000000E+00  0.00000000000E+00  0.19717109735E+03  0.19717109735E+03  0.00000000000E+00 0.  1.
         21   -1    0    0  501  502 -0.00000000000E+00 -0.00000000000E+00 -0.35103322963E+03  0.35103322963E+03  0.00000000000E+00 0.  1.
         25    1    1    2    0    0  0.30583497367E+02 -0.33400467206E+02  0.59996083739E+02  0.14586113802E+03  0.12500000000E+03 0.  0.
         25    1    1    2    0    0 -0.15201211490E+02  0.39639333168E+01  0.27102193806E+02  0.12886550550E+03  0.12500000000E+03 0.  0.
         25    1    1    2    0    0 -0.15382285878E+02  0.29436533889E+02 -0.24096040983E+03  0.27347768346E+03  0.12500000000E+03 0.  0.
</event>
<event>
 5    0  0.5452999E-005  0.2960608E+03  0.7546771E-02  0.1087227E+00
         21   -1    0    0  502  501  0.00000000000E+00  0.00000000000E+00  0.14793185072E+04  0.14793185072E+04  0.00000000000E+00 0. -1.
         21   -1    0    0  501  502 -0.00000000000E+00 -0.00000000000E+00 -0.59251591640E+02  0.59251591640E+02  0.00000000000E+00 0. -1.
         25    1    1    2    0    0  0.10695050349E+03  0.17146139511E+03  0.77329704182E+03  0.80898129465E+03  0.12500000000E+03 0.  0.
         25    1    1    2    0    0 -0.10574463492E+03 -0.11204865421E+03  0.40567253617E+03  0.45158834720E+03  0.12500000000E+03 0.  0.
         25    1    1    2    0    0 -0.12058685650E+01 -0.59412740906E+02  0.24109733756E+03  0.27800045698E+03  0.12500000000E+03 0.  0.
</event>
<event>
 5    0  0.5452999E-005  0.3480192E+03  0.7546771E-02  0.1063431E+00
         21   -1    0    0  502  501  0.00000000000E+00  0.00000000000E+00  0.79184599069E+02  0.79184599069E+02  0.00000000000E+00 0.  1.
         21   -1    0    0  501  502 -0.00000000000E+00 -0.00000000000E+00 -0.15295569358E+04  0.15295569358E+04  0.00000000000E+00 0.  1.
         25    1    1    2    0    0 -0.28461400567E+02 -0.13052197622E+03 -0.13178100659E+03  0.22547122055E+03  0.12500000000E+03 0.  0.
         25    1    1    2    0    0  0.14404133504E+03  0.70627839710E+02 -0.41893502448E+03  0.46569061906E+03  0.12500000000E+03 0.  0.
         25    1    1    2    0    0 -0.11557993447E+03  0.59894136513E+02 -0.89965630562E+03  0.91757969522E+03  0.12500000000E+03 0.  0.
</event>
<event>
 5    0  0.6140219E-005  0.2816573E+03  0.7546771E-02  0.1094787E+00
         21   -1    0    0  502  501  0.00000000000E+00  0.00000000000E+00  0.13815115330E+03  0.13815115330E+03  0.00000000000E+00 0.  1.
         21   -1    0    0  501  502 -0.00000000000E+00 -0.00000000000E+00 -0.57423205950E+03  0.57423205950E+03  0.00000000000E+00 0.  1.
         25    1    1    2    0    0  0.50669936462E+02 -0.73234083158E+02 -0.19262776030E+02  0.15468266851E+03  0.12500000000E+03 0.  0.
         25    1    1    2    0    0 -0.18671182709E+02  0.13177158174E+03 -0.36263270808E+03  0.40600473370E+03  0.12500000000E+03 0.  0.
         25    1    1    2    0    0 -0.31998753754E+02 -0.58537498584E+02 -0.54185422092E+02  0.15169581059E+03  0.12500000000E+03 0.  0.
</event>
<event>
 5    0  0.5452999E-005  0.3352558E+03  0.7546771E-02  0.1068835E+00
         21   -1    0    0  502  501  0.00000000000E+00  0.00000000000E+00  0.72116286030E+03  0.72116286030E+03  0.00000000000E+00 0. -1.
         21   -1    0    0  501  502 -0.00000000000E+00 -0.00000000000E+00 -0.15585447772E+03  0.15585447772E+03  0.00000000000E+00 0. -1.
         25    1    1    2    0    0  0.61286189129E+02  0.15188157381E+03  0.26888486289E+03  0.33874485816E+03  0.12500000000E+03 0.  0.
         25    1    1    2    0    0 -0.73469378501E+02 -0.21798338420E+03  0.29756959855E+03  0.39634224017E+03  0.12500000000E+03 0.  0.
         25    1    1    2    0    0  0.12183189372E+02  0.66101810388E+02 -0.11460788525E+01  0.14193023968E+03  0.12500000000E+03 0.  0.
</event>
<event>
 5    0  0.5452999E-005  0.7489178E+03  0.7546771E-02  0.9637050E-01
         21   -1    0    0  502  501  0.00000000000E+00  0.00000000000E+00  0.55397394064E+03  0.55397394064E+03  0.00000000000E+00 0. -1.
         21   -1    0    0  501  502 -0.00000000000E+00 -0.00000000000E+00 -0.10124625154E+04  0.10124625154E+04  0.00000000000E+00 0. -1.
         25    1    1    2    0    0  0.26409916616E+03 -0.56415777327E+02  0.45123606410E+02  0.30098546369E+03  0.12500000000E+03 0.  0.
         25    1    1    2    0    0 -0.12293482914E+03 -0.38116276182E+03  0.15955119556E+03  0.44886479837E+03  0.12500000000E+03 0.  0.
         25    1    1    2    0    0 -0.14116433702E+03  0.43757853914E+03 -0.66316337675E+03  0.81658619400E+03  0.12500000000E+03 0.  0.
</event>
<event>
 5    0  0.5452999E-005  0.4330995E+03  0.7546771E-02  0.1032885E+00
         21   -1    0    0  502  501  0.00000000000E+00  0.00000000000E+00  0.69535517667E+03  0.69535517667E+03  0.00000000000E+00 0.  1.
         21   -1    0    0  501  502 -0.00000000000E+00 -0.00000000000E+00 -0.26975446132E+03  0.26975446132E+03  0.00000000000E+00 0.  1.
         25    1    1    2    0    0  0.94450820533E+02 -0.18138117194E+02  0.11145439398E+03  0.19312439186E+03  0.12500000000E+03 0.  0.
         25    1    1    2    0    0  0.21843053101E+03 -0.18308461960E+03  0.11389020969E+03  0.33140285858E+03  0.12500000000E+03 0.  0.
         25    1    1    2    0    0 -0.31288135154E+03  0.20122273680E+03  0.20025611169E+03  0.44058238755E+03  0.12500000000E+03 0.  0.
</event>
<event>
 5    0  0.5452999E-005  0.3228214E+03  0.7546771E-02  0.1074358E+00
         21   -1    0    0  502  501  0.00000000000E+00  0.00000000000E+00  0.14526060774E+04  0.14526060774E+04  0.00000000000E+00 0.  1.
         21   -1    0    0  501  502 -0.00000000000E+00 -0.00000000000E+00 -0.71742557340E+02  0.71742557340E+02  0.00000000000E+00 0.  1.
         25    1    1    2    0    0 -0.58815531640E+02  0.14931073272E+02  0.78220519387E+02  0.15945423596E+03  0.12500000000E+03 0.  0.
         25    1    1    2    0    0 -0.30912176209E+02 -0.73471032869E+01  0.13342773609E+03  0.18557344455E+03  0.12500000000E+03 0.  0.
         25    1    1    2    0    0  0.89727707849E+02 -0.75839699854E+01  0.11692152646E+04  0.11793209543E+04  0.12500000000E+03 0.  0.
</event>
<event>
 5    0  0.5597662E-005  0.3401179E+03  0.7546771E-02  0.1066746E+00
         21   -1    0    0  502  501  0.00000000000E+00  0.00000000000E+00  0.32955713623E+03  0.32955713623E+03  0.00000000000E+00 0.  1.
         21   -1    0    0  501  502 -0.00000000000E+00 -0.00000000000E+00 -0.35101717622E+03  0.35101717622E+03  0.00000000000E+00 0.  1.
         25    1    1    2    0    0 -0.49815415892E+02 -0.40393481986E+01  0.10663299001E+03  0.17173667795E+03  0.12500000000E+03 0.  0.
         25    1    1    2    0    0  0.10475381038E+02 -0.14470786517E+03 -0.21885171734E+03  0.29081123437E+03  0.12500000000E+03 0.  0.
         25    1    1    2    0    0  0.39340034854E+02  0.14874721337E+03  0.90758687339E+02  0.21802640013E+03  0.12500000000E+03 0.  0.
</event>
<event>
 5    0  0.5452999E-005  0.3649860E+03  0.7546771E-02  0.1056627E+00
         21   -1    0    0  502  501  0.00000000000E+00  0.00000000000E+00  0.30452249978E+03  0.30452249978E+03  0.00000000000E+00 0. -1.
         21   -1    0    0  501  502 -0.00000000000E+00 -0.00000000000E+00 -0.43745458668E+03  0.43745458668E+03  0.00000000000E+00 0. -1.
         25    1    1    2    0    0 -0.19703664889E+02 -0.27512556067E+02 -0.14307499277E+03  0.19297831149E+03  0.12500000000E+03 0.  0.
         25    1    1    2    0    0  0.18041849810E+03 -0.12389468783E+03 -0.10160409675E+03  0.27175194683E+03  0.12500000000E+03 0.  0.
         25    1    1    2    0    0 -0.16071483321E+03  0.15140724390E+03  0.11174700262E+03  0.27724682814E+03  0.12500000000E+03 0.  0.
</event>
<event>
 5    0  0.5452999E-005  0.3220702E+03  0.7546771E-02  0.1074700E+00
         21   -1    0    0  502  501  0.00000000000E+00  0.00000000000E+00  0.51201306146E+03  0.51201306146E+03  0.00000000000E+00 0. -1.
         21   -1    0    0  501  502 -0.00000000000E+00 -0.00000000000E+00 -0.20259092638E+03  0.20259092638E+03  0.00000000000E+00 0. -1.
         25    1    1    2    0    0  0.39471820663E+02 -0.97951794163E+02  0.29333840958E+03  0.33589433032E+03  0.12500000000E+03 0.  0.
         25    1    1    2    0    0  0.23000768084E+02  0.13662716984E+03  0.99456403339E+02  0.21145352926E+03  0.12500000000E+03 0.  0.
         25    1    1    2    0    0 -0.62472588747E+02 -0.38675375681E+02 -0.83372677835E+02  0.16725612825E+03  0.12500000000E+03 0.  0.
</event>
<event>
 5    0  0.5452999E-005  0.2468318E+03  0.7546771E-02  0.1115324E+00
         21   -1    0    0  502  501  0.00000000000E+00  0.00000000000E+00  0.14068876119E+03  0.14068876119E+03  0.00000000000E+00 0.  1.
         21   -1    0    0  501  502 -0.00000000000E+00 -0.00000000000E+00 -0.43305479206E+03  0.43305479206E+03  0.00000000000E+00 0.  1.
         25    1    1    2    0    0 -0.64697450054E+02 -0.29234619970E+02 -0.44692135221E+01  0.14382418753E+03  0.12500000000E+03 0.  0.
         25    1    1    2    0    0 -0.50915503223E+02 -0.19854109470E+02 -0.16586288661E+03  0.21476049750E+03  0.12500000000E+03 0.  0.
         25    1    1    2    0    0  0.11561295328E+03  0.49088729439E+02 -0.12203393073E+03  0.21515886822E+03  0.12500000000E+03 0.  0.
</event>
<event>
 5    0  0.5452999E-005  0.2517210E+03  0.7546771E-02  0.1112222E+00
         21   -1    0    0  502  501  0.00000000000E+00  0.00000000000E+00  0.26409098710E+03  0.26409098710E+03  0.00000000000E+00 0. -1.
         21   -1    0    0  501  502 -0.00000000000E+00 -0.00000000000E+00 -0.23993035641E+03  0.23993035641E+03  0.00000000000E+00 0. -1.
         25    1    1    2    0    0 -0.89714761343E+01 -0.62573290497E+02  0.10795630428E+03  0.17684871416E+03  0.12500000000E+03 0.  0.
         25    1    1    2    0    0  0.58397805724E+02  0.63442232834E+02 -0.11340757654E+03  0.18952967851E+03  0.12500000000E+03 0.  0.
         25    1    1    2    0    0 -0.49426329590E+02 -0.86894233742E+00  0.29611902949E+02  0.13764295083E+03  0.12500000000E+03 0.  0.
</event>
<event>
 5    0  0.5452999E-005  0.3552297E+03  0.7546771E-02  0.1060489E+00
         21   -1    0    0  502  501  0.00000000000E+00  0.00000000000E+00  0.50944496253E+03  0.50944496253E+03  0.00000000000E+00 0. -1.
         21   -1    0    0  501  502 -0.00000000000E+00 -0.00000000000E+00 -0.24769734503E+03  0.24769734503E+03  0.00000000000E+00 0. -1.
         25    1    1    2    0    0 -0.44190156977E+02 -0.11224663042E+02 -0.20483000152E+02  0.13462286704E+03  0.12500000000E+03 0.  0.
         25    1    1    2    0    0  0.13200867528E+03  0.77523917783E+02 -0.88162530018E+02  0.21641136725E+03  0.12500000000E+03 0.  0.
         25    1    1    2    0    0 -0.87818518304E+02 -0.66299254741E+02  0.37039314766E+03  0.40610807327E+03  0.12500000000E+03 0.  0.
</event>
<event>
 5    0  0.5452999E-005  0.3250165E+03  0.7546771E-02  0.1073363E+00
         21   -1    0    0  502  501  0.00000000000E+00  0.00000000000E+00  0.30315963821E+03  0.30315963821E+03  0.00000000000E+00 0.  1.
         21   -1    0    0  501  502 -0.00000000000E+00 -0.00000000000E+00 -0.34844916254E+03  0.34844916254E+03  0.00000000000E+00 0. -1.
         25    1    1    2    0    0  0.77639576415E+00 -0.15845841470E+02  0.13951382568E+03  0.18799149193E+03  0.12500000000E+03 0.  0.
         25    1    1    2    0    0 -0.99658750553E+02 -0.27889425332E+02 -0.23969853174E+03  0.28946514941E+03  0.12500000000E+03 0.  0.
         25    1    1    2    0    0  0.98882354789E+02  0.43735266802E+02  0.54895181723E+02  0.17415215941E+03  0.12500000000E+03 0.  0.
</event>
<event>
 5    0  0.5452999E-005  0.7956466E+03  0.7546771E-02  0.9566340E-01
         21   -1    0    0  502  501  0.00000000000E+00  0.00000000000E+00  0.23336119361E+04  0.23336119361E+04  0.00000000000E+00 0.  1.
         21   -1    0    0  501  502 -0.00000000000E+00 -0.00000000000E+00 -0.27127622359E+03  0.27127622359E+03  0.00000000000E+00 0.  1.
         25    1    1    2    0    0  0.61306280674E+03 -0.23980140836E+03  0.13995613941E+04  0.15516919206E+04  0.12500000000E+03 0.  0.
         25    1    1    2    0    0 -0.38325621040E+03  0.91411792459E+02  0.62605110050E+03  0.75020425155E+03  0.12500000000E+03 0.  0.
         25    1    1    2    0    0 -0.22980659634E+03  0.14838961590E+03  0.36723217957E+02  0.30299198763E+03  0.12500000000E+03 0.  0.
</event>
<event>
 5    0  0.5452999E-005  0.3053362E+03  0.7546771E-02  0.1082603E+00
         21   -1    0    0  502  501  0.00000000000E+00  0.00000000000E+00  0.10760074296E+04  0.10760074296E+04  0.00000000000E+00 0. -1.
         21   -1    0    0  501  502 -0.00000000000E+00 -0.00000000000E+00 -0.86644557663E+02  0.86644557663E+02  0.00000000000E+00 0. -1.
         25    1    1    2    0    0  0.12006486983E+03  0.50025864325E+02  0.29908398022E+03  0.34927694927E+03  0.12500000000E+03 0.  0.
         25    1    1    2    0    0  0.20961543359E+02  0.11610707487E+03  0.35493406783E+03  0.39436459228E+03  0.12500000000E+03 0.  0.
         25    1    1    2    0    0 -0.14102641319E+03 -0.16613293920E+03  0.33534482384E+03  0.41901044567E+03  0.12500000000E+03 0.  0.
</event>
<event>
 5    0  0.5452999E-005  0.3371455E+03  0.7546771E-02  0.1068018E+00
         21   -1    0    0  502  501  0.00000000000E+00  0.00000000000E+00  0.40312284238E+03  0.40312284238E+03  0.00000000000E+00 0.  1.
         21   -1    0    0  501  502 -0.00000000000E+00 -0.00000000000E+00 -0.28196640265E+03  0.28196640265E+03  0.00000000000E+00 0.  1.
         25    1    1    2    0    0  0.10068786549E+03  0.13452301928E+03 -0.54374497906E+02  0.21637022668E+03  0.12500000000E+03 0.  0.
         25    1    1    2    0    0  0.90040766700E+02 -0.12241820628E+03  0.13007574470E+03  0.23587762984E+03  0.12500000000E+03 0.  0.
         25    1    1    2    0    0 -0.19072863219E+03 -0.12104812997E+02  0.45455192934E+02  0.23284138851E+03  0.12500000000E+03 0.  0.
</event>
<event>
 5    0  0.6033187E-005  0.3826798E+03  0.7546771E-02  0.1049948E+00
         21   -1    0    0  502  501  0.00000000000E+00  0.00000000000E+00  0.10306600777E+03  0.10306600777E+03  0.00000000000E+00 0.  1.
         21   -1    0    0  501  502 -0.00000000000E+00 -0.00000000000E+00 -0.14208745096E+04  0.14208745096E+04  0.00000000000E+00 0.  1.
         25    1    1    2    0    0 -0.83005313064E+02  0.12550162486E+03 -0.10943601515E+03  0.22414678505E+03  0.12500000000E+03 0.  0.
         25    1    1    2    0    0  0.14464295957E+03 -0.20348331394E+03 -0.49072688281E+03  0.56459270126E+03  0.12500000000E+03 0.  0.
         25    1    1    2    0    0 -0.61637646505E+02  0.77981689083E+02 -0.71764560385E+03  0.73520103103E+03  0.12500000000E+03 0.  0.
</event>
<event>
 5    0  0.5965216E-005  0.3113412E+03  0.7546771E-02  0.1079705E+00
         21   -1    0    0  502  501  0.00000000000E+00  0.00000000000E+00  0.56627682343E+03  0.56627682343E+03  0.00000000000E+00 0. -1.
         21   -1    0    0  501  502 -0.00000000000E+00 -0.00000000000E+00 -0.17117656860E+03  0.17117656860E+03  0.00000000000E+00 0. -1.
         25    1    1    2    0    0  0.14849021849E+03  0.50642020849E+02  0.47404450296E+02  0.20612166594E+03  0.12500000000E+03 0.  0.
         25    1    1    2    0    0 -0.12753077858E+03 -0.82366348293E+02  0.34908820143E+03  0.40066929904E+03  0.12500000000E+03 0.  0.
         25    1    1    2    0    0 -0.20959439908E+02  0.31724327444E+02 -0.13923969025E+01  0.13066242705E+03  0.12500000000E+03 0.  0.
</event>
<event>
 5    0  0.5452999E-005  0.3170083E+03  0.7546771E-02  0.1077034E+00
         21   -1    0    0  502  501  0.00000000000E+00  0.00000000000E+00  0.65753869128E+02  0.65753869128E+02  0.00000000000E+00 0. -1.
         21   -1    0    0  501  502 -0.00000000000E+00 -0.00000000000E+00 -0.15283400639E+04  0.15283400639E+04  0.00000000000E+00 0. -1.
         25    1    1    2    0    0  0.13566038741E+03 -0.55513428076E+02 -0.14804212882E+03  0.24295463222E+03  0.12500000000E+03 0.  0.
         25    1    1    2    0    0 -0.10807346775E+03 -0.11329019846E+02 -0.62007364844E+03  0.64181348585E+03  0.12500000000E+03 0.  0.
         25    1    1    2    0    0 -0.27586919661E+02  0.66842447922E+02 -0.69447041753E+03  0.70932581499E+03  0.12500000000E+03 0.  0.
</event>
<event>
 5    0  0.5452999E-005  0.2274440E+03  0.7546771E-02  0.1128452E+00
         21   -1    0    0  502  501  0.00000000000E+00  0.00000000000E+00  0.12458259628E+04  0.12458259628E+04  0.00000000000E+00 0.  1.
         21   -1    0    0  501  502 -0.00000000000E+00 -0.00000000000E+00 -0.41523286618E+02  0.41523286618E+02  0.00000000000E+00 0.  1.
         25    1    1    2    0    0 -0.72425610390E+01 -0.63268320817E+02  0.21715316955E+03  0.25852627363E+03  0.12500000000E+03 0.  0.
         25    1    1    2    0    0  0.87971790983E+01 -0.33486946522E+02  0.50658483950E+03  0.52292634812E+03  0.12500000000E+03 0.  0.
         25    1    1    2    0    0 -0.15546180593E+01  0.96755267339E+02  0.48056466716E+03  0.50589662770E+03  0.12500000000E+03 0.  0.
</event>
<event>
 5    0  0.5452999E-005  0.2668301E+03  0.7546771E-02  0.1103108E+00
         21   -1    0    0  502  501  0.00000000000E+00  0.00000000000E+00  0.88576899872E+02  0.88576899872E+02  0.00000000000E+00 0. -1.
         21   -1    0    0  501  502 -0.00000000000E+00 -0.00000000000E+00 -0.80380218144E+03  0.80380218144E+03  0.00000000000E+00 0. -1.
         25    1    1    2    0    0 -0.58023760834E+02 -0.60708540062E+01 -0.21765485167E+03  0.25768633364E+03  0.12500000000E+03 0.  0.
         25    1    1    2    0    0 -0.10809803490E+03  0.54188802818E+02 -0.28234815204E+03  0.33161286233E+03  0.12500000000E+03 0.  0.
         25    1    1    2    0    0  0.16612179573E+03 -0.48117948811E+02 -0.21522227785E+03  0.30307988534E+03  0.12500000000E+03 0.  0.
</event>
<event>
 5    0  0.5452999E-005  0.3582249E+03  0.7546771E-02  0.1059289E+00
         21   -1    0    0  502  501  0.00000000000E+00  0.00000000000E+00  0.16983237632E+04  0.16983237632E+04  0.00000000000E+00 0.  1.
         21   -1    0    0  501  502 -0.00000000000E+00 -0.00000000000E+00 -0.75559856520E+02  0.75559856520E+02  0.00000000000E+00 0.  1.
         25    1    1    2    0    0  0.96588370064E+02 -0.18198887875E+03  0.63836250058E+03  0.68233492316E+03  0.12500000000E+03 0.  0.
         25    1    1    2    0    0 -0.13134169945E+03  0.23844996895E+03  0.46432691951E+03  0.55256992127E+03  0.12500000000E+03 0.  0.
         25    1    1    2    0    0  0.34753329388E+02 -0.56461090201E+02  0.52007448654E+03  0.53897877524E+03  0.12500000000E+03 0.  0.
</event>
<event>
 5    0  0.5452999E-005  0.3605784E+03  0.7546771E-02  0.1058355E+00
         21   -1    0    0  502  501  0.00000000000E+00  0.00000000000E+00  0.20533435477E+03  0.20533435477E+03  0.00000000000E+00 0.  1.
         21   -1    0    0  501  502 -0.00000000000E+00 -0.00000000000E+00 -0.63319563170E+03  0.63319563170E+03  0.00000000000E+00 0.  1.
         25    1    1    2    0    0  0.55730369282E+02 -0.18791420143E+02 -0.29604781914E+03  0.32669297934E+03  0.12500000000E+03 0.  0.
         25    1    1    2    0    0  0.53408748989E+02  0.27521643474E+02  0.13755570852E+03  0.19533690966E+03  0.12500000000E+03 0.  0.
         25    1    1    2    0    0 -0.10913911827E+03 -0.87302233312E+01 -0.26936916632E+03  0.31650009747E+03  0.12500000000E+03 0.  0.
</event>
<event>
 5    0  0.5452999E-005  0.3198467E+03  0.7546771E-02  0.1075720E+00
         21   -1    0    0  502  501  0.00000000000E+00  0.00000000000E+00  0.24136871472E+03  0.24136871472E+03  0.00000000000E+00 0.  1.
         21   -1    0    0  501  502 -0.00000000000E+00 -0.00000000000E+00 -0.42384077962E+03  0.42384077962E+03  0.00000000000E+00 0.  1.
         25    1    1    2    0    0  0.83789885137E+02 -0.16362762018E+03 -0.19146695859E+03  0.29339280695E+03  0.12500000000E+03 0.  0.
         25    1    1    2    0    0  0.11195296086E+02 -0.12482061823E+02  0.43433389768E+02  0.13338888960E+03  0.12500000000E+03 0.  0.
         25    1    1    2    0    0 -0.94985181223E+02  0.17610968201E+03 -0.34438496070E+02  0.23842779779E+03  0.12500000000E+03 0.  0.
</event>
<event>
 5    0  0.5452999E-005  0.2584869E+03  0.7546771E-02  0.1108056E+00
         21   -1    0    0  502  501  0.00000000000E+00  0.00000000000E+00  0.44673006347E+02  0.44673006347E+02  0.00000000000E+00 0.  1.
         21   -1    0    0  501  502 -0.00000000000E+00 -0.00000000000E+00 -0.14956569637E+04  0.14956569637E+04  0.00000000000E+00 0.  1.
         25    1    1    2    0    0  0.11316918255E+03 -0.73716164838E+02 -0.82287120982E+03  0.84319829506E+03  0.12500000000E+03 0.  0.
         25    1    1    2    0    0 -0.83325724153E+02  0.86366757560E+02 -0.35628901344E+03  0.39619345555E+03  0.12500000000E+03 0.  0.
         25    1    1    2    0    0 -0.29843458394E+02 -0.12650592723E+02 -0.27182373406E+03  0.30093821941E+03  0.12500000000E+03 0.  0.
</event>
<event>
 5    0  0.5452999E-005  0.2857058E+03  0.7546771E-02  0.1092613E+00
         21   -1    0    0  502  501  0.00000000000E+00  0.00000000000E+00  0.24415845226E+03  0.24415845226E+03  0.00000000000E+00 0.  1.
         21   -1    0    0  501  502 -0.00000000000E+00 -0.00000000000E+00 -0.33432312165E+03  0.33432312165E+03  0.00000000000E+00 0.  1.
         25    1    1    2    0    0 -0.26931068748E+02 -0.86910729341E+02 -0.10606158622E+03  0.18749084620E+03  0.12500000000E+03 0.  0.
         25    1    1    2    0    0 -0.56235285301E+02  0.57569404787E+02  0.13210405897E+03  0.19887967738E+03  0.12500000000E+03 0.  0.
         25    1    1    2    0    0  0.83166354049E+02  0.29341324553E+02 -0.11620714215E+03  0.19211105033E+03  0.12500000000E+03 0.  0.
</event>
<event>
 5    0  0.5452999E-005  0.2600878E+03  0.7546771E-02  0.1107090E+00
         21   -1    0    0  502  501  0.00000000000E+00  0.00000000000E+00  0.21868988438E+03  0.21868988438E+03  0.00000000000E+00 0. -1.
         21   -1    0    0  501  502 -0.00000000000E+00 -0.00000000000E+00 -0.30932239643E+03  0.30932239643E+03  0.00000000000E+00 0. -1.
         25    1    1    2    0    0 -0.33686897372E+02 -0.10574384413E+03 -0.66867345759E+02  0.18003557858E+03  0.12500000000E+03 0.  0.
         25    1    1    2    0    0  0.52424954671E+02  0.46804172642E+01 -0.10056515220E+03  0.16884499405E+03  0.12500000000E+03 0.  0.
         25    1    1    2    0    0 -0.18738057299E+02  0.10106342686E+03  0.76799985918E+02  0.17913170819E+03  0.12500000000E+03 0.  0.
</event>
<event>
 5    0  0.5452999E-005  0.2757664E+03  0.7546771E-02  0.1098024E+00
         21   -1    0    0  502  501  0.00000000000E+00  0.00000000000E+00  0.84906679530E+02  0.84906679530E+02  0.00000000000E+00 0. -1.
         21   -1    0    0  501  502 -0.00000000000E+00 -0.00000000000E+00 -0.89565508511E+03  0.89565508511E+03  0.00000000000E+00 0. -1.
         25    1    1    2    0    0 -0.10320943277E+03  0.80746269684E+02 -0.18451724207E+03  0.25854160149E+03  0.12500000000E+03 0.  0.
         25    1    1    2    0    0  0.92657478181E+02 -0.59330699570E+02 -0.13440981942E+03  0.21400126105E+03  0.12500000000E+03 0.  0.
         25    1    1    2    0    0  0.10551954592E+02 -0.21415570114E+02 -0.49182134408E+03  0.50801890209E+03  0.12500000000E+03 0.  0.
</event>
<event>
 5    0  0.5505899E-005  0.2841837E+03  0.7546771E-02  0.1093426E+00
         21   -1    0    0  502  501  0.00000000000E+00  0.00000000000E+00  0.13786580872E+03  0.13786580872E+03  0.00000000000E+00 0.  1.
         21   -1    0    0  501  502 -0.00000000000E+00 -0.00000000000E+00 -0.58578982680E+03  0.58578982680E+03  0.00000000000E+00 0.  1.
         25    1    1    2    0    0 -0.64800146589E+02 -0.39506599372E+02 -0.29565992910E+02  0.14919443129E+03  0.12500000000E+03 0.  0.
         25    1    1    2    0    0  0.88122624908E+02 -0.25706155561E+02 -0.40168981414E+03  0.43058809812E+03  0.12500000000E+03 0.  0.
         25    1    1    2    0    0 -0.23322478318E+02  0.65212754933E+02 -0.16668211028E+02  0.14387310610E+03  0.12500000000E+03 0.  0.
</event>
<event>
 5    0  0.5452999E-005  0.4113711E+03  0.7546771E-02  0.1039912E+00
         21   -1    0    0  502  501  0.00000000000E+00  0.00000000000E+00  0.62876168912E+03  0.62876168912E+03  0.00000000000E+00 0. -1.
         21   -1    0    0  501  502 -0.00000000000E+00 -0.00000000000E+00 -0.26914203113E+03  0.26914203113E+03  0.00000000000E+00 0. -1.
         25    1    1    2    0    0  0.11193982520E+03  0.17222074656E+03  0.44622157629E+02  0.24455397556E+03  0.12500000000E+03 0.  0.
         25    1    1    2    0    0 -0.23108422645E+01  0.79782343317E+02  0.31859060853E+03  0.35141931953E+03  0.12500000000E+03 0.  0.
         25    1    1    2    0    0 -0.10962898293E+03 -0.25200308988E+03 -0.35931081635E+01  0.30193042515E+03  0.12500000000E+03 0.  0.
</event>
<event>
 5    0  0.5452999E-005  0.3743901E+03  0.7546771E-02  0.1053027E+00
         21   -1    0    0  502  501  0.00000000000E+00  0.00000000000E+00  0.15997155804E+04  0.15997155804E+04  0.00000000000E+00 0. -1.
         21   -1    0    0  501  502 -0.00000000000E+00 -0.00000000000E+00 -0.87620564917E+02  0.87620564917E+02  0.00000000000E+00 0. -1.
         25    1    1    2    0    0 -0.70339184530E+02  0.38942537403E+02  0.36810987234E+03  0.39698110813E+03  0.12500000000E+03 0.  0.
         25    1    1    2    0    0 -0.15258963166E+03 -0.64050138048E+02  0.13094637441E+03  0.24527121488E+03  0.12500000000E+03 0.  0.
         25    1    1    2    0    0  0.22292881619E+03  0.25107600645E+02  0.10130387687E+04  0.10450838223E+04  0.12500000000E+03 0.  0.
</event>
<event>
 5    0  0.5452999E-005  0.2750821E+03  0.7546771E-02  0.1098406E+00
         21   -1    0    0  502  501  0.00000000000E+00  0.00000000000E+00  0.49456702070E+02  0.49456702070E+02  0.00000000000E+00 0.  1.
         21   -1    0    0  501  502 -0.00000000000E+00 -0.00000000000E+00 -0.15300288941E+04  0.15300288941E+04  0.00000000000E+00 0.  1.
         25    1    1    2    0    0 -0.89780458147E+02  0.87172694286E+02 -0.24816610409E+03  0.30474747664E+03  0.12500000000E+03 0.  0.
         25    1    1    2    0    0 -0.27300451365E+02 -0.51602820408E+02 -0.72546322554E+03  0.73846466221E+03  0.12500000000E+03 0.  0.
         25    1    1    2    0    0  0.11708090951E+03 -0.35569873878E+02 -0.50694286239E+03  0.53627345732E+03  0.12500000000E+03 0.  0.
</event>
<event>
 5    0  0.5452999E-005  0.2141852E+03  0.7546771E-02  0.1138294E+00
         21   -1    0    0  502  501  0.00000000000E+00  0.00000000000E+00  0.44164329477E+03  0.44164329477E+03  0.00000000000E+00 0.  1.
         21   -1    0    0  501  502 -0.00000000000E+00 -0.00000000000E+00 -0.10387408726E+03  0.10387408726E+03  0.00000000000E+00 0.  1.
         25    1    1    2    0    0 -0.53873723796E+02 -0.29650066560E+02  0.10658135245E+03  0.17540264893E+03  0.12500000000E+03 0.  0.
         25    1    1    2    0    0  0.68555153834E+02 -0.66367218940E+01  0.17944325633E+03  0.22927873307E+03  0.12500000000E+03 0.  0.
         25    1    1    2    0    0 -0.14681430038E+02  0.36286788454E+02  0.51744598732E+02  0.14083600002E+03  0.12500000000E+03 0.  0.
</event>
<event>
 5    0  0.5452999E-005  0.2039848E+03  0.7546771E-02  0.1146420E+00
         21   -1    0    0  502  501  0.00000000000E+00  0.00000000000E+00  0.62839789949E+02  0.62839789949E+02  0.00000000000E+00 0.  1.
         21   -1    0    0  501  502 -0.00000000000E+00 -0.00000000000E+00 -0.66215686463E+03  0.66215686463E+03  0.00000000000E+00 0.  1.
         25    1    1    2    0    0 -0.16256884624E+02  0.35601359489E+02 -0.13338077466E+03  0.18694163299E+03  0.12500000000E+03 0.  0.
         25    1    1    2    0    0  0.40892139711E+02  0.45426138207E+01 -0.27696090329E+03  0.30663519756E+03  0.12500000000E+03 0.  0.
         25    1    1    2    0    0 -0.24635255087E+02 -0.40143973310E+02 -0.18897539673E+03  0.23141982403E+03  0.12500000000E+03 0.  0.
</event>
<event>
 5    0  0.5452999E-005  0.3288578E+03  0.7546771E-02  0.1071643E+00
         21   -1    0    0  502  501  0.00000000000E+00  0.00000000000E+00  0.83958853351E+03  0.83958853351E+03  0.00000000000E+00 0. -1.
         21   -1    0    0  501  502 -0.00000000000E+00 -0.00000000000E+00 -0.12881005732E+03  0.12881005732E+03  0.00000000000E+00 0. -1.
         25    1    1    2    0    0 -0.12184047070E+03  0.90221547486E+02  0.30567832547E+02  0.19885778918E+03  0.12500000000E+03 0.  0.
         25    1    1    2    0    0 -0.13709496633E+02 -0.11913613381E+03  0.32959459729E+03  0.37234254020E+03  0.12500000000E+03 0.  0.
         25    1    1    2    0    0  0.13554996733E+03  0.28914586323E+02  0.35061604635E+03  0.39719826145E+03  0.12500000000E+03 0.  0.
</event>
<event>
 5    0  0.5452999E-005  0.2373801E+03  0.7546771E-02  0.1121550E+00
         21   -1    0    0  502  501  0.00000000000E+00  0.00000000000E+00  0.10065319367E+03  0.10065319367E+03  0.00000000000E+00 0. -1.
         21   -1    0    0  501  502 -0.00000000000E+00 -0.00000000000E+00 -0.55983652660E+03  0.55983652660E+03  0.00000000000E+00 0. -1.
         25    1    1    2    0    0  0.72129026673E+02 -0.96014460057E+02 -0.20837823512E+03  0.27104955617E+03  0.12500000000E+03 0.  0.
         25    1    1    2    0    0 -0.48145493930E+02  0.10504752181E+03 -0.14827145705E+03  0.22574852248E+03  0.12500000000E+03 0.  0.
         25    1    1    2    0    0 -0.23983532742E+02 -0.90330617531E+01 -0.10253364076E+03  0.16369164161E+03  0.12500000000E+03 0.  0.
</event>
<event>
 5    0  0.5452999E-005  0.4109001E+03  0.7546771E-02  0.1040069E+00
         21   -1    0    0  502  501  0.00000000000E+00  0.00000000000E+00  0.11742881326E+04  0.11742881326E+04  0.00000000000E+00 0.  1.
         21   -1    0    0  501  502 -0.00000000000E+00 -0.00000000000E+00 -0.14377976604E+03  0.14377976604E+03  0.00000000000E+00 0.  1.
         25    1    1    2    0    0 -0.10527963347E+02  0.28384939751E+03  0.40296502783E+03  0.50861294924E+03  0.12500000000E+03 0.  0.
         25    1    1    2    0    0 -0.16279508478E+03 -0.95674742094E+02  0.27051260857E+03  0.35278600780E+03  0.12500000000E+03 0.  0.
         25    1    1    2    0    0  0.17332304813E+03 -0.18817465542E+03  0.35703073015E+03  0.45666894160E+03  0.12500000000E+03 0.  0.
</event>
<event>
 5    0  0.5452999E-005  0.4139863E+03  0.7546771E-02  0.1039042E+00
         21   -1    0    0  502  501  0.00000000000E+00  0.00000000000E+00  0.17555644449E+04  0.17555644449E+04  0.00000000000E+00 0. -1.
         21   -1    0    0  501  502 -0.00000000000E+00 -0.00000000000E+00 -0.97623677984E+02  0.97623677984E+02  0.00000000000E+00 0. -1.
         25    1    1    2    0    0  0.25922561900E+03 -0.56535683758E+02  0.40826464641E+03  0.50269197984E+03  0.12500000000E+03 0.  0.
         25    1    1    2    0    0 -0.21469681491E+03  0.21920867770E+02  0.29622363293E+03  0.38723208478E+03  0.12500000000E+03 0.  0.
         25    1    1    2    0    0 -0.44528804092E+02  0.34614815988E+02  0.95345248756E+03  0.96326405825E+03  0.12500000000E+03 0.  0.
</event>
<event>
 5    0  0.5452999E-005  0.2533298E+03  0.7546771E-02  0.1111218E+00
         21   -1    0    0  502  501  0.00000000000E+00  0.00000000000E+00  0.28586586523E+03  0.28586586523E+03  0.00000000000E+00 0. -1.
         21   -1    0    0  501  502 -0.00000000000E+00 -0.00000000000E+00 -0.22449686794E+03  0.22449686794E+03  0.00000000000E+00 0. -1.
         25    1    1    2    0    0 -0.71607684246E+02  0.34281747728E+02 -0.51407925517E+02  0.15675035399E+03  0.12500000000E+03 0.  0.
         25    1    1    2    0    0 -0.15775948506E+02  0.24528100712E+02 -0.35226174621E+02  0.13310293631E+03  0.12500000000E+03 0.  0.
         25    1    1    2    0    0  0.87383632752E+02 -0.58809848441E+02  0.14800309743E+03  0.22050944287E+03  0.12500000000E+03 0.  0.
</event>
<event>
 5    0  0.5452999E-005  0.3777989E+03  0.7546771E-02  0.1051750E+00
         21   -1    0    0  502  501  0.00000000000E+00  0.00000000000E+00  0.12282911154E+04  0.12282911154E+04  0.00000000000E+00 0.  1.
         21   -1    0    0  501  502 -0.00000000000E+00 -0.00000000000E+00 -0.11620374684E+03  0.11620374684E+03  0.00000000000E+00 0.  1.
         25    1    1    2    0    0 -0.19583671238E+02 -0.16899099652E+03  0.54016666760E+03  0.57995388253E+03  0.12500000000E+03 0.  0.
         25    1    1    2    0    0 -0.96849866145E+02 -0.18722590391E+02  0.46068512230E+03  0.48742816278E+03  0.12500000000E+03 0.  0.
         25    1    1    2    0    0  0.11643353738E+03  0.18771358691E+03  0.11123557864E+03  0.27711281691E+03  0.12500000000E+03 0.  0.
</event>
<event>
 5    0  0.5452999E-005  0.2462724E+03  0.7546771E-02  0.1115684E+00
         21   -1    0    0  502  501  0.00000000000E+00  0.00000000000E+00  0.94087242960E+02  0.94087242960E+02  0.00000000000E+00 0.  1.
         21   -1    0    0  501  502 -0.00000000000E+00 -0.00000000000E+00 -0.64461531841E+03  0.64461531841E+03  0.00000000000E+00 0.  1.
         25    1    1    2    0    0  0.75001460186E+00 -0.89357666784E+02 -0.58313881088E+02  0.16434982161E+03  0.12500000000E+03 0.  0.
         25    1    1    2    0    0  0.16657819734E+02  0.55619514408E+02 -0.13063964122E+03  0.18990189362E+03  0.12500000000E+03 0.  0.
         25    1    1    2    0    0 -0.17407834336E+02  0.33738152376E+02 -0.36157455314E+03  0.38445084615E+03  0.12500000000E+03 0.  0.
</event>
<event>
 5    0  0.5452999E-005  0.3072051E+03  0.7546771E-02  0.1081693E+00
         21   -1    0    0  502  501  0.00000000000E+00  0.00000000000E+00  0.33293763223E+03  0.33293763223E+03  0.00000000000E+00 0. -1.
         21   -1    0    0  501  502 -0.00000000000E+00 -0.00000000000E+00 -0.28346137837E+03  0.28346137837E+03  0.00000000000E+00 0. -1.
         25    1    1    2    0    0  0.54165555534E+02 -0.12381038117E+02 -0.31726292548E+02  0.14042348504E+03  0.12500000000E+03 0.  0.
         25    1    1    2    0    0  0.15187713952E+03  0.28171416535E+02 -0.44614746262E+02  0.20365600851E+03  0.12500000000E+03 0.  0.
         25    1    1    2    0    0 -0.20604269505E+03 -0.15790378418E+02  0.12581729267E+03  0.27231951705E+03  0.12500000000E+03 0.  0.
</event>
<event>
 5    0  0.5452999E-005  0.5140292E+03  0.7546771E-02  0.1010181E+00
         21   -1    0    0  502  501  0.00000000000E+00  0.00000000000E+00  0.33408140170E+03  0.33408140170E+03  0.00000000000E+00 0.  1.
         21   -1    0    0  501  502 -0.00000000000E+00 -0.00000000000E+00 -0.79090311443E+03  0.79090311443E+03  0.00000000000E+00 0.  1.
         25    1    1    2    0    0 -0.28428984074E+03 -0.12524589800E+03 -0.31850359841E+03  0.46214369055E+03  0.12500000000E+03 0.  0.
         25    1    1    2    0    0  0.21113228122E+03  0.31419318765E+03 -0.25694783798E+02  0.39947393063E+03  0.12500000000E+03 0.  0.
         25    1    1    2    0    0  0.73157559518E+02 -0.18894728964E+03 -0.11262333053E+03  0.26336689495E+03  0.12500000000E+03 0.  0.
</event>
<event>
 5    0  0.5452999E-005  0.2672906E+03  0.7546771E-02  0.1102840E+00
         21   -1    0    0  502  501  0.00000000000E+00  0.00000000000E+00  0.47995764848E+03  0.47995764848E+03  0.00000000000E+00 0. -1.
         21   -1    0    0  501  502 -0.00000000000E+00 -0.00000000000E+00 -0.14885538029E+03  0.14885538029E+03  0.00000000000E+00 0. -1.
         25    1    1    2    0    0  0.68687770677E+02  0.29935572911E+02  0.46372923321E+02  0.15293657634E+03  0.12500000000E+03 0.  0.
         25    1    1    2    0    0  0.40317560795E+02 -0.96205660358E+02  0.24294331132E+03  0.29245082887E+03  0.12500000000E+03 0.  0.
         25    1    1    2    0    0 -0.10900533147E+03  0.66270087448E+02  0.41786033549E+02  0.18342562356E+03  0.12500000000E+03 0.  0.
</event>
<event>
 5    0  0.5452999E-005  0.2736871E+03  0.7546771E-02  0.1099188E+00
         21   -1    0    0  502  501  0.00000000000E+00  0.00000000000E+00  0.23304393890E+03  0.23304393890E+03  0.00000000000E+00 0.  1.
         21   -1    0    0  501  502 -0.00000000000E+00 -0.00000000000E+00 -0.32141852874E+03  0.32141852874E+03  0.00000000000E+00 0.  1.
         25    1    1    2    0    0  0.26373073527E+02  0.66028076560E+02 -0.19217762214E+03  0.24002600766E+03  0.12500000000E+03 0.  0.
         25    1    1    2    0    0 -0.63136108875E+02 -0.34677247411E+02 -0.10591928437E+01  0.14427335728E+03  0.12500000000E+03 0.  0.
         25    1    1    2    0    0  0.36763035348E+02 -0.31350829149E+02  0.10486222515E+03  0.17016310270E+03  0.12500000000E+03 0.  0.
</event>
<event>
 5    0  0.5452999E-005  0.2920954E+03  0.7546771E-02  0.1089260E+00
         21   -1    0    0  502  501  0.00000000000E+00  0.00000000000E+00  0.31793953672E+03  0.31793953672E+03  0.00000000000E+00 0. -1.
         21   -1    0    0  501  502 -0.00000000000E+00 -0.00000000000E+00 -0.26835197567E+03  0.26835197567E+03  0.00000000000E+00 0. -1.
         25    1    1    2    0    0  0.11820755072E+03  0.54582690967E+02 -0.67121631327E+02  0.19256845171E+03  0.12500000000E+03 0.  0.
         25    1    1    2    0    0 -0.19013952904E+03 -0.39867631106E+02  0.74690611647E+02  0.24278829457E+03  0.12500000000E+03 0.  0.
         25    1    1    2    0    0  0.71931978319E+02 -0.14715059861E+02  0.42018580731E+02  0.15093476610E+03  0.12500000000E+03 0.  0.
</event>
<event>
 5    0  0.5452999E-005  0.2287253E+03  0.7546771E-02  0.1127540E+00
         21   -1    0    0  502  501  0.00000000000E+00  0.00000000000E+00  0.50248362570E+03  0.50248362570E+03  0.00000000000E+00 0. -1.
         21   -1    0    0  501  502 -0.00000000000E+00 -0.00000000000E+00 -0.10411339719E+03  0.10411339719E+03  0.00000000000E+00 0. -1.
         25    1    1    2    0    0  0.76480207392E+02  0.53440566110E+02  0.59325917682E+02  0.16688223614E+03  0.12500000000E+03 0.  0.
         25    1    1    2    0    0  0.53013911056E+01 -0.21626437160E+02  0.14377279732E+03  0.19181090892E+03  0.12500000000E+03 0.  0.
         25    1    1    2    0    0 -0.81781598498E+02 -0.31814128950E+02  0.19527151352E+03  0.24790387784E+03  0.12500000000E+03 0.  0.
</event>
<event>
 5    0  0.5929515E-005  0.4470415E+03  0.7546771E-02  0.1028608E+00
         21   -1    0    0  502  501  0.00000000000E+00  0.00000000000E+00  0.76866447686E+03  0.76866447686E+03  0.00000000000E+00 0.  1.
         21   -1    0    0  501  502 -0.00000000000E+00 -0.00000000000E+00 -0.25999134453E+03  0.25999134453E+03  0.00000000000E+00 0. -1.
         25    1    1    2    0    0  0.15101982414E+03  0.89763130041E+00  0.23449874100E+03  0.30565086710E+03  0.12500000000E+03 0.  0.
         25    1    1    2    0    0 -0.34954462515E+03  0.20792580963E+02  0.31077040594E+03  0.48457922118E+03  0.12500000000E+03 0.  0.
         25    1    1    2    0    0  0.19852480101E+03 -0.21690212263E+02 -0.36596014603E+02  0.23842573311E+03  0.12500000000E+03 0.  0.
</event>
<event>
 5    0  0.5452999E-005  0.3110703E+03  0.7546771E-02  0.1079834E+00
         21   -1    0    0  502  501  0.00000000000E+00  0.00000000000E+00  0.74735950399E+03  0.74735950399E+03  0.00000000000E+00 0.  1.
         21   -1    0    0  501  502 -0.00000000000E+00 -0.00000000000E+00 -0.12947546689E+03  0.12947546689E+03  0.00000000000E+00 0.  1.
         25    1    1    2    0    0  0.24089069248E+03  0.12354990819E+02  0.29724286906E+03  0.40269007279E+03  0.12500000000E+03 0.  0.
         25    1    1    2    0    0 -0.10520948196E+03 -0.15585141843E+02  0.16542971692E+03  0.23303202137E+03  0.12500000000E+03 0.  0.
         25    1    1    2    0    0 -0.13568121052E+03  0.32301510244E+01  0.15521145112E+03  0.24111287673E+03  0.12500000000E+03 0.  0.
</event>
<event>
 5    0  0.5452999E-005  0.2512275E+03  0.7546771E-02  0.1112532E+00
         21   -1    0    0  502  501  0.00000000000E+00  0.00000000000E+00  0.20170008256E+02  0.20170008256E+02  0.00000000000E+00 0.  1.
         21   -1    0    0  501  502 -0.00000000000E+00 -0.00000000000E+00 -0.31291630032E+04  0.31291630032E+04  0.00000000000E+00 0.  1.
         25    1    1    2    0    0 -0.40693928322E+02  0.44433188917E+02 -0.94137845314E+03  0.95155067974E+03  0.12500000000E+03 0.  0.
         25    1    1    2    0    0  0.91577907384E+02 -0.64997542882E+02 -0.56751080737E+03  0.59186544939E+03  0.12500000000E+03 0.  0.
         25    1    1    2    0    0 -0.50883979062E+02  0.20564353965E+02 -0.16001037344E+04  0.16059168823E+04  0.12500000000E+03 0.  0.
</event>
<event>
 5    0  0.5452999E-005  0.2481036E+03  0.7546771E-02  0.1114509E+00
         21   -1    0    0  502  501  0.00000000000E+00  0.00000000000E+00  0.72045066445E+02  0.72045066445E+02  0.00000000000E+00 0.  1.
         21   -1    0    0  501  502 -0.00000000000E+00 -0.00000000000E+00 -0.85440146033E+03  0.85440146033E+03  0.00000000000E+00 0.  1.
         25    1    1    2    0    0 -0.10271885363E+03  0.60921548247E+01 -0.44418946695E+03  0.47277643744E+03  0.12500000000E+03 0.  0.
         25    1    1    2    0    0  0.72029705776E+02  0.24360047646E+02 -0.88123787737E+02  0.17079956792E+03  0.12500000000E+03 0.  0.
         25    1    1    2    0    0  0.30689147856E+02 -0.30452202471E+02 -0.25004313920E+03  0.28287052143E+03  0.12500000000E+03 0.  0.
</event>
<event>
 5    0  0.5452999E-005  0.2972326E+03  0.7546771E-02  0.1086632E+00
         21   -1    0    0  502  501  0.00000000000E+00  0.00000000000E+00  0.70678818018E+03  0.70678818018E+03  0.00000000000E+00 0. -1.
         21   -1    0    0  501  502 -0.00000000000E+00 -0.00000000000E+00 -0.12499815484E+03  0.12499815484E+03  0.00000000000E+00 0. -1.
         25    1    1    2    0    0 -0.13415799504E+03  0.29738712014E+02  0.47240687032E+02  0.19167535350E+03  0.12500000000E+03 0.  0.
         25    1    1    2    0    0  0.13714503720E+03  0.41127914540E+02  0.40169150263E+03  0.44438871483E+03  0.12500000000E+03 0.  0.
         25    1    1    2    0    0 -0.29870421523E+01 -0.70866626553E+02  0.13285783568E+03  0.19572226669E+03  0.12500000000E+03 0.  0.
</event>
<event>
 5    0  0.5452999E-005  0.2821401E+03  0.7546771E-02  0.1094526E+00
         21   -1    0    0  502  501  0.00000000000E+00  0.00000000000E+00  0.21762316381E+02  0.21762316381E+02  0.00000000000E+00 0.  1.
         21   -1    0    0  501  502 -0.00000000000E+00 -0.00000000000E+00 -0.36578379497E+04  0.36578379497E+04  0.00000000000E+00 0.  1.
         25    1    1    2    0    0 -0.15707808313E+02  0.39118345992E+02 -0.16618094446E+04  0.16670370753E+04  0.12500000000E+03 0.  0.
         25    1    1    2    0    0 -0.10558506250E+03  0.26266033084E+02 -0.50335968718E+03  0.52993781201E+03  0.12500000000E+03 0.  0.
         25    1    1    2    0    0  0.12129287082E+03 -0.65384379077E+02 -0.14709065015E+04  0.14826253788E+04  0.12500000000E+03 0.  0.
</event>
<event>
 5    0  0.5452999E-005  0.4741598E+03  0.7546771E-02  0.1020753E+00
         21   -1    0    0  502  501  0.00000000000E+00  0.00000000000E+00  0.93694940771E+02  0.93694940771E+02  0.00000000000E+00 0. -1.
         21   -1    0    0  501  502 -0.00000000000E+00 -0.00000000000E+00 -0.23995692207E+04  0.23995692207E+04  0.00000000000E+00 0. -1.
         25    1    1    2    0    0  0.23864361615E+02  0.26450272323E+03 -0.13201474357E+04  0.13523850969E+04  0.12500000000E+03 0.  0.
         25    1    1    2    0    0  0.62555835127E+02  0.10104668462E+03 -0.22709964127E+03  0.28517172379E+03  0.12500000000E+03 0.  0.
         25    1    1    2    0    0 -0.86420196741E+02 -0.36554940785E+03 -0.75862720290E+03  0.85570734072E+03  0.12500000000E+03 0.  0.
</event>
<event>
 5    0  0.5452999E-005  0.2947742E+03  0.7546771E-02  0.1087883E+00
         21   -1    0    0  502  501  0.00000000000E+00  0.00000000000E+00  0.68906693841E+02  0.68906693841E+02  0.00000000000E+00 0. -1.
         21   -1    0    0  501  502 -0.00000000000E+00 -0.00000000000E+00 -0.12610068642E+04  0.12610068642E+04  0.00000000000E+00 0. -1.
         25    1    1    2    0    0 -0.36455720550E+02  0.13107443953E+02 -0.16178468426E+03  0.20808678168E+03  0.12500000000E+03 0.  0.
         25    1    1    2    0    0 -0.16010004541E+03  0.33275093916E+02 -0.50361813633E+03  0.54405466973E+03  0.12500000000E+03 0.  0.
         25    1    1    2    0    0  0.19655576596E+03 -0.46382537869E+02 -0.52669734980E+03  0.57777210666E+03  0.12500000000E+03 0.  0.
</event>
<event>
 5    0  0.5452999E-005  0.2427911E+03  0.7546771E-02  0.1117947E+00
         21   -1    0    0  502  501  0.00000000000E+00  0.00000000000E+00  0.13132313322E+04  0.13132313322E+04  0.00000000000E+00 0.  1.
         21   -1    0    0  501  502 -0.00000000000E+00 -0.00000000000E+00 -0.44887377364E+02  0.44887377364E+02  0.00000000000E+00 0.  1.
         25    1    1    2    0    0  0.51854062802E+01  0.80092407105E+02  0.27193320813E+03  0.30986182695E+03  0.12500000000E+03 0.  0.
         25    1    1    2    0    0 -0.81625900925E+02 -0.97062523326E+02  0.53930193072E+03  0.56793969188E+03  0.12500000000E+03 0.  0.
         25    1    1    2    0    0  0.76440494645E+02  0.16970116221E+02  0.45710881600E+03  0.48031719075E+03  0.12500000000E+03 0.  0.
</event>
<event>
 5    0  0.5653718E-005  0.3299483E+03  0.7546771E-02  0.1071160E+00
         21   -1    0    0  502  501  0.00000000000E+00  0.00000000000E+00  0.67752853921E+03  0.67752853921E+03  0.00000000000E+00 0. -1.
         21   -1    0    0  501  502 -0.00000000000E+00 -0.00000000000E+00 -0.16068084209E+03  0.16068084209E+03  0.00000000000E+00 0. -1.
         25    1    1    2    0    0  0.15960202177E+03  0.82672002386E+02  0.11830825240E+03  0.24885599836E+03  0.12500000000E+03 0.  0.
         25    1    1    2    0    0 -0.22536150228E+03  0.44436072242E+01  0.17749234649E+03  0.31294741638E+03  0.12500000000E+03 0.  0.
         25    1    1    2    0    0  0.65759480514E+02 -0.87115609610E+02  0.22104709824E+03  0.27640596657E+03  0.12500000000E+03 0.  0.
</event>
<event>
 5    0  0.5452999E-005  0.3141121E+03  0.7546771E-02  0.1078391E+00
         21   -1    0    0  502  501  0.00000000000E+00  0.00000000000E+00  0.88881768031E+03  0.88881768031E+03  0.00000000000E+00 0. -1.
         21   -1    0    0  501  502 -0.00000000000E+00 -0.00000000000E+00 -0.11100864057E+03  0.11100864057E+03  0.00000000000E+00 0. -1.
         25    1    1    2    0    0  0.14044669331E+03  0.42407787433E+02  0.33430011435E+03  0.38588244396E+03  0.12500000000E+03 0.  0.
         25    1    1    2    0    0 -0.57161491069E+02  0.13113650203E+03  0.15438342558E+03  0.24479268845E+03  0.12500000000E+03 0.  0.
         25    1    1    2    0    0 -0.83285202246E+02 -0.17354428946E+03  0.28912549981E+03  0.36915118848E+03  0.12500000000E+03 0.  0.
</event>
<event>
 5    0  0.5914797E-005  0.2881929E+03  0.7546771E-02  0.1091296E+00
         21   -1    0    0  502  501  0.00000000000E+00  0.00000000000E+00  0.10306215243E+03  0.10306215243E+03  0.00000000000E+00 0. -1.
         21   -1    0    0  501  502 -0.00000000000E+00 -0.00000000000E+00 -0.80587455023E+03  0.80587455023E+03  0.00000000000E+00 0. -1.
         25    1    1    2    0    0  0.92215077717E+02  0.38226212571E+02 -0.90029714122E+02  0.18356255967E+03  0.12500000000E+03 0.  0.
         25    1    1    2    0    0 -0.76545351362E+02 -0.46222109076E+02 -0.57265117314E+03  0.59291655423E+03  0.12500000000E+03 0.  0.
         25    1    1    2    0    0 -0.15669726355E+02  0.79958965043E+01 -0.40131510540E+02  0.13245758877E+03  0.12500000000E+03 0.  0.
</event>
<event>
 5    0  0.5838433E-005  0.3302328E+03  0.7546771E-02  0.1071034E+00
         21   -1    0    0  502  501  0.00000000000E+00  0.00000000000E+00  0.79970331137E+03  0.79970331137E+03  0.00000000000E+00 0. -1.
         21   -1    0    0  501  502 -0.00000000000E+00 -0.00000000000E+00 -0.13636768675E+03  0.13636768675E+03  0.00000000000E+00 0. -1.
         25    1    1    2    0    0  0.80842865207E+02 -0.13406827576E+03  0.69385277019E+02  0.21201223570E+03  0.12500000000E+03 0.  0.
         25    1    1    2    0    0  0.92072979145E+02  0.11436907324E+03  0.34807509365E+03  0.39791831979E+03  0.12500000000E+03 0.  0.
         25    1    1    2    0    0 -0.17291584435E+03  0.19699202524E+02  0.24587525396E+03  0.32614044263E+03  0.12500000000E+03 0.  0.
</event>
<event>
 5    0  0.5452999E-005  0.5704590E+03  0.7546771E-02  0.9968663E-01
         21   -1    0    0  502  501  0.00000000000E+00  0.00000000000E+00  0.17374102136E+04  0.17374102136E+04  0.00000000000E+00 0. -1.
         21   -1    0    0  501  502 -0.00000000000E+00 -0.00000000000E+00 -0.18730379526E+03  0.18730379526E+03  0.00000000000E+00 0. -1.
         25    1    1    2    0    0  0.99215381293E+02  0.20625113853E+03  0.37207270582E+03  0.45436364560E+03  0.12500000000E+03 0.  0.
         25    1    1    2    0    0 -0.50062204048E+02  0.25735585946E+03  0.13345181137E+03  0.31964456608E+03  0.12500000000E+03 0.  0.
         25    1    1    2    0    0 -0.49153177246E+02 -0.46360699799E+03  0.10445819012E+04  0.11507057972E+04  0.12500000000E+03 0.  0.
</event>
<event>
 5    0  0.5452999E-005  0.2793528E+03  0.7546771E-02  0.1096043E+00
         21   -1    0    0  502  501  0.00000000000E+00  0.00000000000E+00  0.10477713504E+04  0.10477713504E+04  0.00000000000E+00 0.  1.
         21   -1    0    0  501  502 -0.00000000000E+00 -0.00000000000E+00 -0.74479951939E+02  0.74479951939E+02  0.00000000000E+00 0.  1.
         25    1    1    2    0    0  0.62071238995E+02  0.63024909656E+02  0.67561655671E+03  0.69275371500E+03  0.12500000000E+03 0.  0.
         25    1    1    2    0    0 -0.72730225600E+02  0.29424206561E+02  0.18765715079E+03  0.23873767170E+03  0.12500000000E+03 0.  0.
         25    1    1    2    0    0  0.10658986605E+02 -0.92449116217E+02  0.11001769093E+03  0.19075991561E+03  0.12500000000E+03 0.  0.
</event>
<event>
 5    0  0.5452999E-005  0.3225409E+03  0.7546771E-02  0.1074486E+00
         21   -1    0    0  502  501  0.00000000000E+00  0.00000000000E+00  0.43241352031E+03  0.43241352031E+03  0.00000000000E+00 0.  1.
         21   -1    0    0  501  502 -0.00000000000E+00 -0.00000000000E+00 -0.24058592884E+03  0.24058592884E+03  0.00000000000E+00 0.  1.
         25    1    1    2    0    0  0.62285550494E+02  0.89637410557E+02  0.81724350474E+02  0.18498168729E+03  0.12500000000E+03 0.  0.
         25    1    1    2    0    0 -0.15222829276E+03 -0.13939150649E+03 -0.64673654803E+02  0.24982219042E+03  0.12500000000E+03 0.  0.
         25    1    1    2    0    0  0.89942742267E+02  0.49754095938E+02  0.17477689581E+03  0.23819557145E+03  0.12500000000E+03 0.  0.
</event>
<event>
 5    0  0.5452999E-005  0.3017692E+03  0.7546771E-02  0.1084360E+00
         21   -1    0    0  502  501  0.00000000000E+00  0.00000000000E+00  0.39588460178E+03  0.39588460178E+03  0.00000000000E+00 0. -1.
         21   -1    0    0  501  502 -0.00000000000E+00 -0.00000000000E+00 -0.23002823818E+03  0.23002823818E+03  0.00000000000E+00 0. -1.
         25    1    1    2    0    0  0.51544321588E+02 -0.15215356068E+03  0.18798962927E+03  0.27707873219E+03  0.12500000000E+03 0.  0.
         25    1    1    2    0    0  0.60222954590E+01 -0.98146724900E+01 -0.48692996946E+02  0.13464250365E+03  0.12500000000E+03 0.  0.
         25    1    1    2    0    0 -0.57566617047E+02  0.16196823317E+03  0.26559731271E+02  0.21419160413E+03  0.12500000000E+03 0.  0.
</event>
<event>
 5    0  0.5452999E-005  0.3640270E+03  0.7546771E-02  0.1057001E+00
         21   -1    0    0  502  501  0.00000000000E+00  0.00000000000E+00  0.83972959772E+02  0.83972959772E+02  0.00000000000E+00 0.  1.
         21   -1    0    0  501  502 -0.00000000000E+00 -0.00000000000E+00 -0.15780755022E+04  0.15780755022E+04  0.00000000000E+00 0.  1.
         25    1    1    2    0    0 -0.39712643030E+02 -0.89518702061E+02 -0.97254722386E+02  0.18621002406E+03  0.12500000000E+03 0.  0.
         25    1    1    2    0    0  0.35450740392E+02  0.24392439655E+03 -0.75867652403E+03  0.80744717124E+03  0.12500000000E+03 0.  0.
         25    1    1    2    0    0  0.42619026376E+01 -0.15440569449E+03 -0.63817129602E+03  0.66839126668E+03  0.12500000000E+03 0.  0.
</event>
<event>
 5    0  0.5452999E-005  0.4025887E+03  0.7546771E-02  0.1042887E+00
         21   -1    0    0  502  501  0.00000000000E+00  0.00000000000E+00  0.96937017434E+03  0.96937017434E+03  0.00000000000E+00 0.  1.
         21   -1    0    0  501  502 -0.00000000000E+00 -0.00000000000E+00 -0.16719892159E+03  0.16719892159E+03  0.00000000000E+00 0.  1.
         25    1    1    2    0    0  0.14536362275E+03 -0.97741168513E+02  0.67410985415E+03  0.70762491074E+03  0.12500000000E+03 0.  0.
         25    1    1    2    0    0  0.11677916781E+02  0.16056565906E+02 -0.61787500092E+02  0.14084346707E+03  0.12500000000E+03 0.  0.
         25    1    1    2    0    0 -0.15704153953E+03  0.81684602607E+02  0.18984889870E+03  0.28810071812E+03  0.12500000000E+03 0.  0.
</event>
<event>
 5    0  0.5452999E-005  0.2912686E+03  0.7546771E-02  0.1089689E+00
         21   -1    0    0  502  501  0.00000000000E+00  0.00000000000E+00  0.27806770473E+03  0.27806770473E+03  0.00000000000E+00 0. -1.
         21   -1    0    0  501  502 -0.00000000000E+00 -0.00000000000E+00 -0.30509624058E+03  0.30509624058E+03  0.00000000000E+00 0. -1.
         25    1    1    2    0    0  0.42798802469E+02 -0.91711244935E+02  0.91307191280E+02  0.18494510840E+03  0.12500000000E+03 0.  0.
         25    1    1    2    0    0 -0.11792019421E+03 -0.22622180542E+02  0.87007749306E+01  0.17354434229E+03  0.12500000000E+03 0.  0.
         25    1    1    2    0    0  0.75121391741E+02  0.11433342548E+03 -0.12703650207E+03  0.22467449463E+03  0.12500000000E+03 0.  0.
</event>
<event>
 5    0  0.5452999E-005  0.2403863E+03  0.7546771E-02  0.1119536E+00
         21   -1    0    0  502  501  0.00000000000E+00  0.00000000000E+00  0.21822675859E+03  0.21822675859E+03  0.00000000000E+00 0. -1.
         21   -1    0    0  501  502 -0.00000000000E+00 -0.00000000000E+00 -0.26479604285E+03  0.26479604285E+03  0.00000000000E+00 0. -1.
         25    1    1    2    0    0  0.50718995412E+02 -0.54124761141E+02  0.11007664706E+02  0.14576719434E+03  0.12500000000E+03 0.  0.
         25    1    1    2    0    0  0.21739707945E+02  0.11148566265E+03 -0.66567619253E+02  0.18154315138E+03  0.12500000000E+03 0.  0.
         25    1    1    2    0    0 -0.72458703357E+02 -0.57360901513E+02  0.89906702962E+01  0.15571245572E+03  0.12500000000E+03 0.  0.
</event>
<event>
 5    0  0.5452999E-005  0.2974932E+03  0.7546771E-02  0.1086500E+00
         21   -1    0    0  502  501  0.00000000000E+00  0.00000000000E+00  0.16710992045E+03  0.16710992045E+03  0.00000000000E+00 0. -1.
         21   -1    0    0  501  502 -0.00000000000E+00 -0.00000000000E+00 -0.52960468118E+03  0.52960468118E+03  0.00000000000E+00 0. -1.
         25    1    1    2    0    0  0.81990152114E+02  0.16640202938E+03 -0.20009668829E+03  0.30012614863E+03  0.12500000000E+03 0.  0.
         25    1    1    2    0    0  0.29148201501E+02 -0.27045099150E+02 -0.11453755827E+02  0.13167096704E+03  0.12500000000E+03 0.  0.
         25    1    1    2    0    0 -0.11113835362E+03 -0.13935693023E+03 -0.15094431661E+03  0.26491748595E+03  0.12500000000E+03 0.  0.
</event>
<event>
 5    0  0.5452999E-005  0.3665159E+03  0.7546771E-02  0.1056033E+00
         21   -1    0    0  502  501  0.00000000000E+00  0.00000000000E+00  0.22860760817E+04  0.22860760817E+04  0.00000000000E+00 0. -1.
         21   -1    0    0  501  502 -0.00000000000E+00 -0.00000000000E+00 -0.58761788489E+02  0.58761788489E+02  0.00000000000E+00 0. -1.
         25    1    1    2    0    0  0.12076564935E+03 -0.12500848993E+03  0.56589990761E+03  0.60504476698E+03  0.12500000000E+03 0.  0.
         25    1    1    2    0    0 -0.23708333565E+03 -0.48675539233E+02  0.84486936531E+03  0.88769761777E+03  0.12500000000E+03 0.  0.
         25    1    1    2    0    0  0.11631768630E+03  0.17368402916E+03  0.81654502029E+03  0.85209548543E+03  0.12500000000E+03 0.  0.
</event>
<event>
 5    0  0.5452999E-005  0.4316430E+03  0.7546771E-02  0.1033342E+00
         21   -1    0    0  502  501  0.00000000000E+00  0.00000000000E+00  0.23525075822E+03  0.23525075822E+03  0.00000000000E+00 0.  1.
         21   -1    0    0  501  502 -0.00000000000E+00 -0.00000000000E+00 -0.79198751868E+03  0.79198751868E+03  0.00000000000E+00 0.  1.
         25    1    1    2    0    0  0.98056589402E+02 -0.23169048722E+02 -0.29671535549E+03  0.33736760622E+03  0.12500000000E+03 0.  0.
         25    1    1    2    0    0  0.19921339761E+03  0.16188339176E+03 -0.14661890842E+03  0.32095843130E+03  0.12500000000E+03 0.  0.
         25    1    1    2    0    0 -0.29726998701E+03 -0.13871434304E+03 -0.11340249654E+03  0.36891223938E+03  0.12500000000E+03 0.  0.
</event>
<event>
 5    0  0.5452999E-005  0.2870143E+03  0.7546771E-02  0.1091918E+00
         21   -1    0    0  502  501  0.00000000000E+00  0.00000000000E+00  0.26778358558E+03  0.26778358558E+03  0.00000000000E+00 0.  1.
         21   -1    0    0  501  502 -0.00000000000E+00 -0.00000000000E+00 -0.30762612325E+03  0.30762612325E+03  0.00000000000E+00 0.  1.
         25    1    1    2    0    0 -0.27385774170E+02 -0.36089454745E+02 -0.46573078286E+02  0.14087753899E+03  0.12500000000E+03 0.  0.
         25    1    1    2    0    0  0.10161319779E+03 -0.61899395655E+02  0.13349949509E+03  0.21818316235E+03  0.12500000000E+03 0.  0.
         25    1    1    2    0    0 -0.74227423615E+02  0.97988850400E+02 -0.12676895447E+03  0.21634900748E+03  0.12500000000E+03 0.  0.
</event>
<event>
 5    0  0.5452999E-005  0.4682631E+03  0.7546771E-02  0.1022412E+00
         21   -1    0    0  502  501  0.00000000000E+00  0.00000000000E+00  0.27520740102E+03  0.27520740102E+03  0.00000000000E+00 0.  1.
         21   -1    0    0  501  502 -0.00000000000E+00 -0.00000000000E+00 -0.79674571633E+03  0.79674571633E+03  0.00000000000E+00 0.  1.
         25    1    1    2    0    0 -0.19751442122E+03 -0.27251563556E+03 -0.14291725562E+03  0.38642859647E+03  0.12500000000E+03 0.  0.
         25    1    1    2    0    0 -0.36985170355E+02  0.23702937190E+03 -0.75485363345E+02  0.28084491459E+03  0.12500000000E+03 0.  0.
         25    1    1    2    0    0  0.23449959158E+03  0.35486263654E+02 -0.30313569633E+03  0.40467960629E+03  0.12500000000E+03 0.  0.
</event>
<event>
 5    0  0.5452999E-005  0.2521584E+03  0.7546771E-02  0.1111948E+00
         21   -1    0    0  502  501  0.00000000000E+00  0.00000000000E+00  0.25430646653E+03  0.25430646653E+03  0.00000000000E+00 0.  1.
         21   -1    0    0  501  502 -0.00000000000E+00 -0.00000000000E+00 -0.25002856879E+03  0.25002856879E+03  0.00000000000E+00 0.  1.
         25    1    1    2    0    0  0.72459057966E+02  0.21292741032E+02  0.60387916566E+02  0.15803606034E+03  0.12500000000E+03 0.  0.
         25    1    1    2    0    0 -0.60821839568E+02  0.92797628061E+02 -0.57202925748E+02  0.17665749533E+03  0.12500000000E+03 0.  0.
         25    1    1    2    0    0 -0.11637218398E+02 -0.11409036909E+03  0.10929069195E+01  0.16964147965E+03  0.12500000000E+03 0.  0.
</event>
<event>
 5    0  0.5452999E-005  0.2266153E+03  0.7546771E-02  0.1129045E+00
         21   -1    0    0  502  501  0.00000000000E+00  0.00000000000E+00  0.96482657213E+03  0.96482657213E+03  0.00000000000E+00 0. -1.
         21   -1    0    0  501  502 -0.00000000000E+00 -0.00000000000E+00 -0.53226676364E+02  0.53226676364E+02  0.00000000000E+00 0. -1.
         25    1    1    2    0    0 -0.22579943271E+02 -0.23207411232E+02  0.21466528986E+03  0.25050873127E+03  0.12500000000E+03 0.  0.
         25    1    1    2    0    0  0.44287618732E+02 -0.65054433076E+02  0.21055537472E+03  0.25720038542E+03  0.12500000000E+03 0.  0.
         25    1    1    2    0    0 -0.21707675461E+02  0.88261844307E+02  0.48637923119E+03  0.51034413180E+03  0.12500000000E+03 0.  0.
</event>
<event>
 5    0  0.5452999E-005  0.2626972E+03  0.7546771E-02  0.1105533E+00
         21   -1    0    0  502  501  0.00000000000E+00  0.00000000000E+00  0.53511481234E+03  0.53511481234E+03  0.00000000000E+00 0. -1.
         21   -1    0    0  501  502 -0.00000000000E+00 -0.00000000000E+00 -0.12896264243E+03  0.12896264243E+03  0.00000000000E+00 0. -1.
         25    1    1    2    0    0  0.69000196132E+02  0.47875438929E+02 -0.25205873138E+02  0.15268733006E+03  0.12500000000E+03 0.  0.
         25    1    1    2    0    0 -0.53890488583E+02 -0.37228601168E+00  0.17347408010E+03  0.22050528298E+03  0.12500000000E+03 0.  0.
         25    1    1    2    0    0 -0.15109707550E+02 -0.47503152917E+02  0.25788396295E+03  0.29088484173E+03  0.12500000000E+03 0.  0.
</event>
<event>
 5    0  0.5452999E-005  0.3107102E+03  0.7546771E-02  0.1080006E+00
         21   -1    0    0  502  501  0.00000000000E+00  0.00000000000E+00  0.51524539636E+03  0.51524539636E+03  0.00000000000E+00 0.  1.
         21   -1    0    0  501  502 -0.00000000000E+00 -0.00000000000E+00 -0.18736857873E+03  0.18736857873E+03  0.00000000000E+00 0.  1.
         25    1    1    2    0    0  0.13863079579E+03 -0.34590255237E+02  0.14394434979E+03  0.23824348708E+03  0.12500000000E+03 0.  0.
         25    1    1    2    0    0 -0.18101354888E+03  0.10036982752E+03  0.20294571042E+03  0.31567700032E+03  0.12500000000E+03 0.  0.
         25    1    1    2    0    0  0.42382753094E+02 -0.65779572278E+02 -0.19013242581E+02  0.14869348769E+03  0.12500000000E+03 0.  0.
</event>
<event>
 5    0  0.5452999E-005  0.2825446E+03  0.7546771E-02  0.1094307E+00
         21   -1    0    0  502  501  0.00000000000E+00  0.00000000000E+00  0.40343642466E+03  0.40343642466E+03  0.00000000000E+00 0. -1.
         21   -1    0    0  501  502 -0.00000000000E+00 -0.00000000000E+00 -0.19787870125E+03  0.19787870125E+03  0.00000000000E+00 0. -1.
         25    1    1    2    0    0 -0.11772011045E+03 -0.43827239586E+02 -0.36426820271E+02  0.18091645743E+03  0.12500000000E+03 0.  0.
         25    1    1    2    0    0 -0.19024731493E+02  0.28742086632E+02  0.20542550358E+02  0.13128230775E+03  0.12500000000E+03 0.  0.
         25    1    1    2    0    0  0.13674484194E+03  0.15085152954E+02  0.22144199332E+03  0.28911636073E+03  0.12500000000E+03 0.  0.
</event>
<event>
 5    0  0.5452999E-005  0.3221375E+03  0.7546771E-02  0.1074670E+00
         21   -1    0    0  502  501  0.00000000000E+00  0.00000000000E+00  0.74595980297E+03  0.74595980297E+03  0.00000000000E+00 0. -1.
         21   -1    0    0  501  502 -0.00000000000E+00 -0.00000000000E+00 -0.13911281310E+03  0.13911281310E+03  0.00000000000E+00 0. -1.
         25    1    1    2    0    0 -0.15800676991E+03 -0.68121245713E+02  0.71371169991E+02  0.22433342899E+03  0.12500000000E+03 0.  0.
         25    1    1    2    0    0  0.19952199336E+03 -0.39946254272E+01  0.29863969360E+03  0.38030993868E+03  0.12500000000E+03 0.  0.
         25    1    1    2    0    0 -0.41515223451E+02  0.72115871140E+02  0.23683612628E+03  0.28042924841E+03  0.12500000000E+03 0.  0.
</event>
<event>
 5    0  0.5452999E-005  0.5830813E+03  0.7546771E-02  0.9941142E-01
         21   -1    0    0  502  501  0.00000000000E+00  0.00000000000E+00  0.42267312538E+03  0.42267312538E+03  0.00000000000E+00 0. -1.
         21   -1    0    0  501  502 -0.00000000000E+00 -0.00000000000E+00 -0.80436583377E+03  0.80436583377E+03  0.00000000000E+00 0. -1.
         25    1    1    2    0    0 -0.15233453025E+03 -0.95973150849E+02  0.54176401786E+02  0.22578028546E+03  0.12500000000E+03 0.  0.
         25    1    1    2    0    0  0.62768666845E+02 -0.19003523226E+03  0.18550446264E+03  0.30015029685E+03  0.12500000000E+03 0.  0.
         25    1    1    2    0    0  0.89565863405E+02  0.28600838311E+03 -0.62137357281E+03  0.70110837685E+03  0.12500000000E+03 0.  0.
</event>
<event>
 5    0  0.5452999E-005  0.2959097E+03  0.7546771E-02  0.1087303E+00
         21   -1    0    0  502  501  0.00000000000E+00  0.00000000000E+00  0.18738604264E+03  0.18738604264E+03  0.00000000000E+00 0. -1.
         21   -1    0    0  501  502 -0.00000000000E+00 -0.00000000000E+00 -0.46728429094E+03  0.46728429094E+03  0.00000000000E+00 0. -1.
         25    1    1    2    0    0  0.75426261687E+02 -0.55096476916E+02 -0.13395919067E+02  0.15661798546E+03  0.12500000000E+03 0.  0.
         25    1    1    2    0    0 -0.17846095988E+03 -0.50418589528E+02 -0.17601221191E+03  0.28459734207E+03  0.12500000000E+03 0.  0.
         25    1    1    2    0    0  0.10303469819E+03  0.10551506644E+03 -0.90490117320E+02  0.21345500606E+03  0.12500000000E+03 0.  0.
</event>
<event>
 5    0  0.5452999E-005  0.3870691E+03  0.7546771E-02  0.1048351E+00
         21   -1    0    0  502  501  0.00000000000E+00  0.00000000000E+00  0.78469065748E+03  0.78469065748E+03  0.00000000000E+00 0. -1.
         21   -1    0    0  501  502 -0.00000000000E+00 -0.00000000000E+00 -0.19093190115E+03  0.19093190115E+03  0.00000000000E+00 0. -1.
         25    1    1    2    0    0  0.67037668374E+02  0.76896423077E+01  0.29223093315E+03  0.32492629606E+03  0.12500000000E+03 0.  0.
         25    1    1    2    0    0  0.22288514125E+03  0.29754087857E+02  0.11231562257E+03  0.28071852630E+03  0.12500000000E+03 0.  0.
         25    1    1    2    0    0 -0.28992280963E+03 -0.37443730165E+02  0.18921220062E+03  0.36997773627E+03  0.12500000000E+03 0.  0.
</event>
<event>
 5    0  0.5452999E-005  0.2794064E+03  0.7546771E-02  0.1096014E+00
         21   -1    0    0  502  501  0.00000000000E+00  0.00000000000E+00  0.31376480942E+03  0.31376480942E+03  0.00000000000E+00 0.  1.
         21   -1    0    0  501  502 -0.00000000000E+00 -0.00000000000E+00 -0.24881037072E+03  0.24881037072E+03  0.00000000000E+00 0.  1.
         25    1    1    2    0    0 -0.83399686865E+02  0.17090226092E+03  0.91148877023E+02  0.24514528007E+03  0.12500000000E+03 0.  0.
         25    1    1    2    0    0  0.34647558408E+02 -0.98482108021E+02 -0.26235351825E+02  0.16496203378E+03  0.12500000000E+03 0.  0.
         25    1    1    2    0    0  0.48752128456E+02 -0.72420152903E+02  0.40913501933E-01  0.15246786629E+03  0.12500000000E+03 0.  0.
</event>
<event>
 5    0  0.5452999E-005  0.4013226E+03  0.7546771E-02  0.1043323E+00
         21   -1    0    0  502  501  0.00000000000E+00  0.00000000000E+00  0.73874902011E+03  0.73874902011E+03  0.00000000000E+00 0.  1.
         21   -1    0    0  501  502 -0.00000000000E+00 -0.00000000000E+00 -0.21801693197E+03  0.21801693197E+03  0.00000000000E+00 0.  1.
         25    1    1    2    0    0 -0.26158983396E+03  0.47027771766E+02  0.11884018551E+03  0.31684198308E+03  0.12500000000E+03 0.  0.
         25    1    1    2    0    0  0.13708171572E+03  0.14475711360E+03  0.21994861013E+03  0.32209999972E+03  0.12500000000E+03 0.  0.
         25    1    1    2    0    0  0.12450811825E+03 -0.19178488537E+03  0.18194329250E+03  0.31782396929E+03  0.12500000000E+03 0.  0.
</event>
<event>
 5    0  0.5452999E-005  0.2229575E+03  0.7546771E-02  0.1131697E+00
         21   -1    0    0  502  501  0.00000000000E+00  0.00000000000E+00  0.56519292328E+03  0.56519292328E+03  0.00000000000E+00 0.  1.
         21   -1    0    0  501  502 -0.00000000000E+00 -0.00000000000E+00 -0.87952367896E+02  0.87952367896E+02  0.00000000000E+00 0.  1.
         25    1    1    2    0    0  0.49976495781E+02  0.88866443470E+02  0.15692518872E+03  0.22504535045E+03  0.12500000000E+03 0.  0.
         25    1    1    2    0    0 -0.37742359627E+02 -0.89000218677E+02  0.18973193593E+03  0.24691847267E+03  0.12500000000E+03 0.  0.
         25    1    1    2    0    0 -0.12234136155E+02  0.13377520792E+00  0.13058343073E+03  0.18118146805E+03  0.12500000000E+03 0.  0.
</event>
<event>
 5    0  0.5452999E-005  0.2818185E+03  0.7546771E-02  0.1094700E+00
         21   -1    0    0  502  501  0.00000000000E+00  0.00000000000E+00  0.32636830191E+02  0.32636830191E+02  0.00000000000E+00 0.  1.
         21   -1    0    0  501  502 -0.00000000000E+00 -0.00000000000E+00 -0.24334979603E+04  0.24334979603E+04  0.00000000000E+00 0.  1.
         25    1    1    2    0    0 -0.40890604779E+02 -0.11855195987E+02 -0.28401963334E+03  0.31321676097E+03  0.12500000000E+03 0.  0.
         25    1    1    2    0    0  0.16033475229E+03  0.28657080440E+02 -0.14192833592E+04  0.14340567335E+04  0.12500000000E+03 0.  0.
         25    1    1    2    0    0 -0.11944414751E+03 -0.16801884453E+02 -0.69755813757E+03  0.71886129606E+03  0.12500000000E+03 0.  0.
</event>
<event>
 5    0  0.5452999E-005  0.2287501E+03  0.7546771E-02  0.1127523E+00
         21   -1    0    0  502  501  0.00000000000E+00  0.00000000000E+00  0.54435371725E+03  0.54435371725E+03  0.00000000000E+00 0.  1.
         21   -1    0    0  501  502 -0.00000000000E+00 -0.00000000000E+00 -0.96126121985E+02  0.96126121985E+02  0.00000000000E+00 0.  1.
         25    1    1    2    0    0  0.25805525051E+02 -0.69431294891E+02  0.16379549079E+03  0.21895340289E+03  0.12500000000E+03 0.  0.
         25    1    1    2    0    0 -0.68654931483E+02 -0.29130718528E+02  0.11939789129E+03  0.18826299377E+03  0.12500000000E+03 0.  0.
         25    1    1    2    0    0  0.42849406432E+02  0.98562013419E+02  0.16503421319E+03  0.23326344258E+03  0.12500000000E+03 0.  0.
</event>
<event>
 5    0  0.5452999E-005  0.3071294E+03  0.7546771E-02  0.1081730E+00
         21   -1    0    0  502  501  0.00000000000E+00  0.00000000000E+00  0.19650632871E+03  0.19650632871E+03  0.00000000000E+00 0.  1.
         21   -1    0    0  501  502 -0.00000000000E+00 -0.00000000000E+00 -0.48002753507E+03  0.48002753507E+03  0.00000000000E+00 0.  1.
         25    1    1    2    0    0 -0.25332179921E+02  0.57362013261E+02 -0.22916107782E+02  0.14171191870E+03  0.12500000000E+03 0.  0.
         25    1    1    2    0    0  0.10655949768E+03  0.12214510339E+03 -0.30214750727E+02  0.20691129497E+03  0.12500000000E+03 0.  0.
         25    1    1    2    0    0 -0.81227317756E+02 -0.17950711665E+03 -0.23039034785E+03  0.32791065012E+03  0.12500000000E+03 0.  0.
</event>
<event>
 5    0  0.5452999E-005  0.3135080E+03  0.7546771E-02  0.1078676E+00
         21   -1    0    0  502  501  0.00000000000E+00  0.00000000000E+00  0.32431036540E+02  0.32431036540E+02  0.00000000000E+00 0. -1.
         21   -1    0    0  501  502 -0.00000000000E+00 -0.00000000000E+00 -0.30306548318E+04  0.30306548318E+04  0.00000000000E+00 0. -1.
         25    1    1    2    0    0 -0.15399635717E+03  0.56285519835E+02 -0.13266617446E+04  0.13425868026E+04  0.12500000000E+03 0.  0.
         25    1    1    2    0    0  0.17281266066E+03 -0.61664655394E+02 -0.57028171120E+03  0.61197465269E+03  0.12500000000E+03 0.  0.
         25    1    1    2    0    0 -0.18816303493E+02  0.53791355584E+01 -0.11012803394E+04  0.11085244130E+04  0.12500000000E+03 0.  0.
</event>
<event>
 5    0  0.5452999E-005  0.3864354E+03  0.7546771E-02  0.1048581E+00
         21   -1    0    0  502  501  0.00000000000E+00  0.00000000000E+00  0.31090326889E+03  0.31090326889E+03  0.00000000000E+00 0. -1.
         21   -1    0    0  501  502 -0.00000000000E+00 -0.00000000000E+00 -0.48031756405E+03  0.48031756405E+03  0.00000000000E+00 0. -1.
         25    1    1    2    0    0 -0.33437146086E+02  0.13448174393E+02  0.16165028645E+03  0.20749629212E+03  0.12500000000E+03 0.  0.
         25    1    1    2    0    0 -0.51538234247E+02  0.12453947845E+03  0.12037831109E+02  0.18421775338E+03  0.12500000000E+03 0.  0.
         25    1    1    2    0    0  0.84975380333E+02 -0.13798765284E+03 -0.34310241272E+03  0.39950678744E+03  0.12500000000E+03 0.  0.
</event>
<event>
 5    0  0.5452999E-005  0.3737257E+03  0.7546771E-02  0.1053277E+00
         21   -1    0    0  502  501  0.00000000000E+00  0.00000000000E+00  0.58128422046E+03  0.58128422046E+03  0.00000000000E+00 0.  1.
         21   -1    0    0  501  502 -0.00000000000E+00 -0.00000000000E+00 -0.24027985357E+03  0.24027985357E+03  0.00000000000E+00 0.  1.
         25    1    1    2    0    0 -0.32222963166E+02 -0.11345442696E+03  0.12254425978E+03  0.21107420960E+03  0.12500000000E+03 0.  0.
         25    1    1    2    0    0  0.13494669623E+03 -0.13932610287E+03  0.20724079309E+03  0.31015499365E+03  0.12500000000E+03 0.  0.
         25    1    1    2    0    0 -0.10272373307E+03  0.25278052983E+03  0.11219314017E+02  0.30033487078E+03  0.12500000000E+03 0.  0.
</event>
<event>
 5    0  0.6202639E-005  0.3346402E+03  0.7546771E-02  0.1069102E+00
         21   -1    0    0  502  501  0.00000000000E+00  0.00000000000E+00  0.65192407684E+03  0.65192407684E+03  0.00000000000E+00 0. -1.
         21   -1    0    0  501  502 -0.00000000000E+00 -0.00000000000E+00 -0.17177470969E+03  0.17177470969E+03  0.00000000000E+00 0. -1.
         25    1    1    2    0    0  0.11876986393E+03  0.91309118111E+02  0.19859954965E+03  0.27840692655E+03  0.12500000000E+03 0.  0.
         25    1    1    2    0    0 -0.18507417174E+03 -0.13012493973E+03  0.30159818555E+03  0.39720449961E+03  0.12500000000E+03 0.  0.
         25    1    1    2    0    0  0.66304307810E+02  0.38815821615E+02 -0.20048368052E+02  0.14808736038E+03  0.12500000000E+03 0.  0.
</event>
<event>
 5    0  0.5452999E-005  0.3363537E+03  0.7546771E-02  0.1068360E+00
         21   -1    0    0  502  501  0.00000000000E+00  0.00000000000E+00  0.16631249407E+04  0.16631249407E+04  0.00000000000E+00 0. -1.
         21   -1    0    0  501  502 -0.00000000000E+00 -0.00000000000E+00 -0.68024852315E+02  0.68024852315E+02  0.00000000000E+00 0. -1.
         25    1    1    2    0    0 -0.83560889520E+02  0.18098227939E+03  0.51873192846E+03  0.56960058050E+03  0.12500000000E+03 0.  0.
         25    1    1    2    0    0 -0.27137168438E+02 -0.22483412969E+03  0.55447129056E+03  0.61184166566E+03  0.12500000000E+03 0.  0.
         25    1    1    2    0    0  0.11069805796E+03  0.43851850303E+02  0.52189686942E+03  0.54970754690E+03  0.12500000000E+03 0.  0.
</event>
<event>
 5    0  0.5553514E-005  0.3605593E+03  0.7546771E-02  0.1058363E+00
         21   -1    0    0  502  501  0.00000000000E+00  0.00000000000E+00  0.28318824821E+03  0.28318824821E+03  0.00000000000E+00 0.  1.
         21   -1    0    0  501  502 -0.00000000000E+00 -0.00000000000E+00 -0.45906933709E+03  0.45906933709E+03  0.00000000000E+00 0.  1.
         25    1    1    2    0    0  0.11902400159E+03 -0.17926393280E+03 -0.81889581329E+02  0.26197933904E+03  0.12500000000E+03 0.  0.
         25    1    1    2    0    0 -0.20618616564E+03  0.17239249142E+03 -0.12981105951E+03  0.32358587295E+03  0.12500000000E+03 0.  0.
         25    1    1    2    0    0  0.87162164057E+02  0.68714413771E+01  0.35819551964E+02  0.15669237331E+03  0.12500000000E+03 0.  0.
</event>
<event>
 5    0  0.5452999E-005  0.2852928E+03  0.7546771E-02  0.1092833E+00
         21   -1    0    0  502  501  0.00000000000E+00  0.00000000000E+00  0.31357701889E+03  0.31357701889E+03  0.00000000000E+00 0.  1.
         21   -1    0    0  501  502 -0.00000000000E+00 -0.00000000000E+00 -0.25955979007E+03  0.25955979007E+03  0.00000000000E+00 0.  1.
         25    1    1    2    0    0  0.17686786786E+03 -0.82411400308E+02  0.79729021243E+02  0.24506243778E+03  0.12500000000E+03 0.  0.
         25    1    1    2    0    0 -0.13332047472E+03  0.33814882637E+02 -0.89180765085E+01  0.18607075900E+03  0.12500000000E+03 0.  0.
         25    1    1    2    0    0 -0.43547393136E+02  0.48596517672E+02 -0.16793715910E+02  0.14200361218E+03  0.12500000000E+03 0.  0.
</event>
<event>
 5    0  0.5452999E-005  0.3208517E+03  0.7546771E-02  0.1075258E+00
         21   -1    0    0  502  501  0.00000000000E+00  0.00000000000E+00  0.69244556366E+02  0.69244556366E+02  0.00000000000E+00 0.  1.
         21   -1    0    0  501  502 -0.00000000000E+00 -0.00000000000E+00 -0.14866991533E+04  0.14866991533E+04  0.00000000000E+00 0.  1.
         25    1    1    2    0    0  0.11518987334E+01  0.51636076114E+02 -0.16112568229E+03  0.21036657700E+03  0.12500000000E+03 0.  0.
         25    1    1    2    0    0  0.21431094165E+01 -0.64647112264E+02 -0.78692802732E+02  0.16124949378E+03  0.12500000000E+03 0.  0.
         25    1    1    2    0    0 -0.32950081498E+01  0.13011036150E+02 -0.11776361120E+04  0.11843276389E+04  0.12500000000E+03 0.  0.
</event>
<event>
 5    0  0.5452999E-005  0.2634934E+03  0.7546771E-02  0.1105062E+00
         21   -1    0    0  502  501  0.00000000000E+00  0.00000000000E+00  0.31135050136E+03  0.31135050136E+03  0.00000000000E+00 0.  1.
         21   -1    0    0  501  502 -0.00000000000E+00 -0.00000000000E+00 -0.22299237918E+03  0.22299237918E+03  0.00000000000E+00 0.  1.
         25    1    1    2    0    0 -0.87513042515E+02  0.35886728521E+02  0.12095652297E+03  0.19799462201E+03  0.12500000000E+03 0.  0.
         25    1    1    2    0    0  0.30170571514E+02 -0.51369449929E+01  0.83800424020E+02  0.15357136014E+03  0.12500000000E+03 0.  0.
         25    1    1    2    0    0  0.57342471001E+02 -0.30749783528E+02 -0.11639882481E+03  0.18277689839E+03  0.12500000000E+03 0.  0.
</event>
<event>
 5    0  0.5452999E-005  0.3081697E+03  0.7546771E-02  0.1081226E+00
         21   -1    0    0  502  501  0.00000000000E+00  0.00000000000E+00  0.19235625914E+03  0.19235625914E+03  0.00000000000E+00 0. -1.
         21   -1    0    0  501  502 -0.00000000000E+00 -0.00000000000E+00 -0.49371193465E+03  0.49371193465E+03  0.00000000000E+00 0. -1.
         25    1    1    2    0    0 -0.42217524605E+02 -0.85564911885E+02 -0.10743947529E+02  0.15762013177E+03  0.12500000000E+03 0.  0.
         25    1    1    2    0    0 -0.40085461080E+02 -0.21335296865E+02  0.49407756947E+02  0.14187376618E+03  0.12500000000E+03 0.  0.
         25    1    1    2    0    0  0.82302985684E+02  0.10690020875E+03 -0.34001948493E+03  0.38657429585E+03  0.12500000000E+03 0.  0.
</event>
<event>
 5    0  0.5452999E-005  0.2648093E+03  0.7546771E-02  0.1104288E+00
         21   -1    0    0  502  501  0.00000000000E+00  0.00000000000E+00  0.44367232178E+02  0.44367232178E+02  0.00000000000E+00 0. -1.
         21   -1    0    0  501  502 -0.00000000000E+00 -0.00000000000E+00 -0.15805350397E+04  0.15805350397E+04  0.00000000000E+00 0. -1.
         25    1    1    2    0    0  0.14348095272E+03  0.24126031182E+02 -0.65698578356E+03  0.68441520218E+03  0.12500000000E+03 0.  0.
         25    1    1    2    0    0 -0.56196420412E+02 -0.10736735265E+02 -0.19000538394E+03  0.23452155781E+03  0.12500000000E+03 0.  0.
         25    1    1    2    0    0 -0.87284532303E+02 -0.13389295917E+02 -0.68917663999E+03  0.70596551186E+03  0.12500000000E+03 0.  0.
</event>
<event>
 5    0  0.5452999E-005  0.4325886E+03  0.7546771E-02  0.1033045E+00
         21   -1    0    0  502  501  0.00000000000E+00  0.00000000000E+00  0.10132099991E+04  0.10132099991E+04  0.00000000000E+00 0.  1.
         21   -1    0    0  501  502 -0.00000000000E+00 -0.00000000000E+00 -0.18469308706E+03  0.18469308706E+03  0.00000000000E+00 0.  1.
         25    1    1    2    0    0 -0.53484277259E+01 -0.25055117330E+03  0.64719541622E+03  0.70518891292E+03  0.12500000000E+03 0.  0.
         25    1    1    2    0    0  0.10092176982E+03  0.24648255023E+03  0.77835104486E+02  0.30433888132E+03  0.12500000000E+03 0.  0.
         25    1    1    2    0    0 -0.95573342096E+02  0.40686230631E+01  0.10348639133E+03  0.18837529192E+03  0.12500000000E+03 0.  0.
</event>
<event>
 5    0  0.5452999E-005  0.4496366E+03  0.7546771E-02  0.1027830E+00
         21   -1    0    0  502  501  0.00000000000E+00  0.00000000000E+00  0.11538753869E+04  0.11538753869E+04  0.00000000000E+00 0. -1.
         21   -1    0    0  501  502 -0.00000000000E+00 -0.00000000000E+00 -0.17521225650E+03  0.17521225650E+03  0.00000000000E+00 0. -1.
         25    1    1    2    0    0  0.34773553425E+03 -0.65241376094E+02  0.53992737313E+03  0.65751274299E+03  0.12500000000E+03 0.  0.
         25    1    1    2    0    0 -0.73722267959E+02  0.12538285401E+02  0.30470957938E+03  0.33773526491E+03  0.12500000000E+03 0.  0.
         25    1    1    2    0    0 -0.27401326629E+03  0.52703090693E+02  0.13402617787E+03  0.33383963550E+03  0.12500000000E+03 0.  0.
</event>
<event>
 5    0  0.5452999E-005  0.3557013E+03  0.7546771E-02  0.1060299E+00
         21   -1    0    0  502  501  0.00000000000E+00  0.00000000000E+00  0.14164119964E+04  0.14164119964E+04  0.00000000000E+00 0. -1.
         21   -1    0    0  501  502 -0.00000000000E+00 -0.00000000000E+00 -0.89326692048E+02  0.89326692048E+02  0.00000000000E+00 0. -1.
         25    1    1    2    0    0  0.16323825766E+02 -0.54018344509E+02  0.82371859467E+03  0.83505794532E+03  0.12500000000E+03 0.  0.
         25    1    1    2    0    0 -0.13326008880E+02 -0.11399605039E+03  0.40536222296E+03  0.43944989911E+03  0.12500000000E+03 0.  0.
         25    1    1    2    0    0 -0.29978168856E+01  0.16801439490E+03  0.98004486677E+02  0.23123084398E+03  0.12500000000E+03 0.  0.
</event>
