<event>
 5    0  0.5660959E-005  0.3250794E+03  0.7546771E-02  0.1073335E+00
         21   -1    0    0  502  501  0.00000000000E+00  0.00000000000E+00  0.86793879938E+03  0.86793879938E+03  0.00000000000E+00 0. -1.
         21   -1    0    0  501  502 -0.00000000000E+00 -0.00000000000E+00 -0.12175580758E+03  0.12175580758E+03  0.00000000000E+00 0. -1.
         25    1    1    2    0    0  0.82442076487E+02  0.27975957392E+02  0.24459559886E+03  0.28815162180E+03  0.12500000000E+03 0.  0.
         25    1    1    2    0    0 -0.21213506911E+03  0.18253872962E+02  0.44196817677E+03  0.50625622041E+03  0.12500000000E+03 0.  0.
         25    1    1    2    0    0  0.12969299263E+03 -0.46229830354E+02  0.59619216177E+02  0.19528676475E+03  0.12500000000E+03 0.  0.
</event>
<event>
 5    0  0.5660959E-005  0.3034436E+03  0.7546771E-02  0.1083532E+00
         21   -1    0    0  502  501  0.00000000000E+00  0.00000000000E+00  0.18329508112E+03  0.18329508112E+03  0.00000000000E+00 0.  1.
         21   -1    0    0  501  502 -0.00000000000E+00 -0.00000000000E+00 -0.50234855782E+03  0.50234855782E+03  0.00000000000E+00 0.  1.
         25    1    1    2    0    0  0.14214988037E+03 -0.53753928465E+02 -0.30144156224E+03  0.35998345623E+03  0.12500000000E+03 0.  0.
         25    1    1    2    0    0 -0.24819543659E+02 -0.32928287851E+02 -0.22271155568E+02  0.13349639043E+03  0.12500000000E+03 0.  0.
         25    1    1    2    0    0 -0.11733033671E+03  0.86682216317E+02  0.46592411091E+01  0.19216379228E+03  0.12500000000E+03 0.  0.
</event>
<event>
 5    0  0.5825240E-005  0.3242639E+03  0.7546771E-02  0.1073703E+00
         21   -1    0    0  502  501  0.00000000000E+00  0.00000000000E+00  0.40459938763E+03  0.40459938763E+03  0.00000000000E+00 0.  1.
         21   -1    0    0  501  502 -0.00000000000E+00 -0.00000000000E+00 -0.25987955484E+03  0.25987955484E+03  0.00000000000E+00 0.  1.
         25    1    1    2    0    0 -0.86383946705E+02 -0.24592419876E+02 -0.90835792056E+01  0.15418976871E+03  0.12500000000E+03 0.  0.
         25    1    1    2    0    0  0.88202608011E+02 -0.31653301984E+02  0.28214110734E+03  0.32250617984E+03  0.12500000000E+03 0.  0.
         25    1    1    2    0    0 -0.18186613065E+01  0.56245721861E+02 -0.12833769535E+03  0.18778299392E+03  0.12500000000E+03 0.  0.
</event>
<event>
 5    0  0.5660959E-005  0.3523144E+03  0.7546771E-02  0.1061669E+00
         21   -1    0    0  502  501  0.00000000000E+00  0.00000000000E+00  0.13011299970E+04  0.13011299970E+04  0.00000000000E+00 0.  1.
         21   -1    0    0  501  502 -0.00000000000E+00 -0.00000000000E+00 -0.95398166121E+02  0.95398166121E+02  0.00000000000E+00 0.  1.
         25    1    1    2    0    0 -0.47191360723E+02 -0.13376023900E+03  0.18680703505E+03  0.26578317180E+03  0.12500000000E+03 0.  0.
         25    1    1    2    0    0  0.15476576418E+03 -0.83973783023E+02  0.48950683716E+03  0.53501960863E+03  0.12500000000E+03 0.  0.
         25    1    1    2    0    0 -0.10757440345E+03  0.21773402202E+03  0.52941795863E+03  0.59572538266E+03  0.12500000000E+03 0.  0.
</event>
<event>
 5    0  0.5660959E-005  0.2555933E+03  0.7546771E-02  0.1109820E+00
         21   -1    0    0  502  501  0.00000000000E+00  0.00000000000E+00  0.21757368297E+03  0.21757368297E+03  0.00000000000E+00 0.  1.
         21   -1    0    0  501  502 -0.00000000000E+00 -0.00000000000E+00 -0.30025668183E+03  0.30025668183E+03  0.00000000000E+00 0.  1.
         25    1    1    2    0    0  0.83541744276E+02 -0.15936388791E+02 -0.12671501795E+03  0.19726856642E+03  0.12500000000E+03 0.  0.
         25    1    1    2    0    0  0.29785187293E+02  0.17944477579E+02  0.73729154406E+02  0.14923186613E+03  0.12500000000E+03 0.  0.
         25    1    1    2    0    0 -0.11332693157E+03 -0.20080887879E+01 -0.29697135321E+02  0.17132993225E+03  0.12500000000E+03 0.  0.
</event>
<event>
 5    0  0.5660959E-005  0.3320867E+03  0.7546771E-02  0.1070217E+00
         21   -1    0    0  502  501  0.00000000000E+00  0.00000000000E+00  0.17457645646E+03  0.17457645646E+03  0.00000000000E+00 0.  1.
         21   -1    0    0  501  502 -0.00000000000E+00 -0.00000000000E+00 -0.63170922003E+03  0.63170922003E+03  0.00000000000E+00 0.  1.
         25    1    1    2    0    0  0.81265120690E+02 -0.49705964652E+02 -0.12399884083E+03  0.20018844944E+03  0.12500000000E+03 0.  0.
         25    1    1    2    0    0 -0.18194557752E+03  0.10715046408E+03 -0.35779133274E+03  0.43384911307E+03  0.12500000000E+03 0.  0.
         25    1    1    2    0    0  0.10068045683E+03 -0.57444499425E+02  0.24657409999E+02  0.17224811398E+03  0.12500000000E+03 0.  0.
</event>
<event>
 5    0  0.5660959E-005  0.2771667E+03  0.7546771E-02  0.1097247E+00
         21   -1    0    0  502  501  0.00000000000E+00  0.00000000000E+00  0.12811248073E+03  0.12811248073E+03  0.00000000000E+00 0. -1.
         21   -1    0    0  501  502 -0.00000000000E+00 -0.00000000000E+00 -0.59963987974E+03  0.59963987974E+03  0.00000000000E+00 0. -1.
         25    1    1    2    0    0 -0.15490377594E+03 -0.28033104059E+02 -0.21675747543E+03  0.29561772253E+03  0.12500000000E+03 0.  0.
         25    1    1    2    0    0  0.51437955993E+02 -0.35654289459E+02 -0.20980600460E+03  0.25211237820E+03  0.12500000000E+03 0.  0.
         25    1    1    2    0    0  0.10346581994E+03  0.63687393518E+02 -0.44963918990E+02  0.18002225974E+03  0.12500000000E+03 0.  0.
</event>
<event>
 5    0  0.5660959E-005  0.3212957E+03  0.7546771E-02  0.1075055E+00
         21   -1    0    0  502  501  0.00000000000E+00  0.00000000000E+00  0.35876340818E+03  0.35876340818E+03  0.00000000000E+00 0. -1.
         21   -1    0    0  501  502 -0.00000000000E+00 -0.00000000000E+00 -0.28774103537E+03  0.28774103537E+03  0.00000000000E+00 0. -1.
         25    1    1    2    0    0  0.20431568970E+02  0.12786034635E+03 -0.85169111918E+02  0.19910925344E+03  0.12500000000E+03 0.  0.
         25    1    1    2    0    0  0.40170410370E+02  0.18266677648E+02  0.20107538389E+03  0.24083945563E+03  0.12500000000E+03 0.  0.
         25    1    1    2    0    0 -0.60601979341E+02 -0.14612702400E+03 -0.44883899165E+02  0.20655573448E+03  0.12500000000E+03 0.  0.
</event>
<event>
 5    0  0.7037319E-005  0.2661912E+03  0.7546771E-02  0.1103479E+00
         21   -1    0    0  502  501  0.00000000000E+00  0.00000000000E+00  0.19327932004E+03  0.19327932004E+03  0.00000000000E+00 0.  1.
         21   -1    0    0  501  502 -0.00000000000E+00 -0.00000000000E+00 -0.36660808021E+03  0.36660808021E+03  0.00000000000E+00 0. -1.
         25    1    1    2    0    0  0.21944885446E+02 -0.83704345939E+02 -0.85729561466E+02  0.17453524926E+03  0.12500000000E+03 0.  0.
         25    1    1    2    0    0 -0.34808290923E+02 -0.92115265232E+02 -0.39404402354E+02  0.16393457881E+03  0.12500000000E+03 0.  0.
         25    1    1    2    0    0  0.12863405478E+02  0.17581961117E+03 -0.48194796345E+02  0.22141757217E+03  0.12500000000E+03 0.  0.
</event>
<event>
 5    0  0.6756819E-005  0.4300770E+03  0.7546771E-02  0.1033836E+00
         21   -1    0    0  502  501  0.00000000000E+00  0.00000000000E+00  0.10265855657E+04  0.10265855657E+04  0.00000000000E+00 0. -1.
         21   -1    0    0  501  502 -0.00000000000E+00 -0.00000000000E+00 -0.18017615661E+03  0.18017615661E+03  0.00000000000E+00 0. -1.
         25    1    1    2    0    0  0.20693890267E+03 -0.81031460251E+02  0.22985762666E+03  0.34329191007E+03  0.12500000000E+03 0.  0.
         25    1    1    2    0    0 -0.20559854159E+03 -0.17483782567E+03  0.43069142519E+03  0.52341105197E+03  0.12500000000E+03 0.  0.
         25    1    1    2    0    0 -0.13403610754E+01  0.25586928593E+03  0.18586035725E+03  0.34005876028E+03  0.12500000000E+03 0.  0.
</event>
<event>
 5    0  0.5660959E-005  0.2484336E+03  0.7546771E-02  0.1114299E+00
         21   -1    0    0  502  501  0.00000000000E+00  0.00000000000E+00  0.96533277859E+02  0.96533277859E+02  0.00000000000E+00 0. -1.
         21   -1    0    0  501  502 -0.00000000000E+00 -0.00000000000E+00 -0.63935717884E+03  0.63935717884E+03  0.00000000000E+00 0. -1.
         25    1    1    2    0    0 -0.27068226425E+02 -0.26199864317E+02 -0.34092273521E+02  0.13493111163E+03  0.12500000000E+03 0.  0.
         25    1    1    2    0    0  0.94799098144E+02  0.55158799397E+02 -0.33953844835E+03  0.37807501910E+03  0.12500000000E+03 0.  0.
         25    1    1    2    0    0 -0.67730871719E+02 -0.28958935079E+02 -0.16919317911E+03  0.22288432597E+03  0.12500000000E+03 0.  0.
</event>
<event>
 5    0  0.5660959E-005  0.4303035E+03  0.7546771E-02  0.1033764E+00
         21   -1    0    0  502  501  0.00000000000E+00  0.00000000000E+00  0.56306155258E+03  0.56306155258E+03  0.00000000000E+00 0. -1.
         21   -1    0    0  501  502 -0.00000000000E+00 -0.00000000000E+00 -0.32884706818E+03  0.32884706818E+03  0.00000000000E+00 0. -1.
         25    1    1    2    0    0 -0.15069196806E+02  0.66972635340E+02  0.19571152762E+03  0.24215783411E+03  0.12500000000E+03 0.  0.
         25    1    1    2    0    0  0.99536715360E+02 -0.22400709448E+02  0.30226828121E+03  0.34263751008E+03  0.12500000000E+03 0.  0.
         25    1    1    2    0    0 -0.84467518554E+02 -0.44571925892E+02 -0.26376532444E+03  0.30711327657E+03  0.12500000000E+03 0.  0.
</event>
<event>
 5    0  0.6396697E-005  0.2772660E+03  0.7546771E-02  0.1097192E+00
         21   -1    0    0  502  501  0.00000000000E+00  0.00000000000E+00  0.26429562620E+03  0.26429562620E+03  0.00000000000E+00 0. -1.
         21   -1    0    0  501  502 -0.00000000000E+00 -0.00000000000E+00 -0.29087298001E+03  0.29087298001E+03  0.00000000000E+00 0. -1.
         25    1    1    2    0    0  0.83460041841E+02  0.65758364067E+02 -0.15455080994E+02  0.16478349601E+03  0.12500000000E+03 0.  0.
         25    1    1    2    0    0  0.90832716522E+02  0.21638850794E+02 -0.26542188030E+02  0.15826657891E+03  0.12500000000E+03 0.  0.
         25    1    1    2    0    0 -0.17429275836E+03 -0.87397214861E+02  0.15419915207E+02  0.23211853129E+03  0.12500000000E+03 0.  0.
</event>
<event>
 5    0  0.5660959E-005  0.2991214E+03  0.7546771E-02  0.1085681E+00
         21   -1    0    0  502  501  0.00000000000E+00  0.00000000000E+00  0.36532920708E+02  0.36532920708E+02  0.00000000000E+00 0.  1.
         21   -1    0    0  501  502 -0.00000000000E+00 -0.00000000000E+00 -0.24491232246E+04  0.24491232246E+04  0.00000000000E+00 0.  1.
         25    1    1    2    0    0  0.12109658155E+03  0.88752132519E+02 -0.58464759771E+03  0.61642447761E+03  0.12500000000E+03 0.  0.
         25    1    1    2    0    0 -0.13311820072E+02 -0.71946467638E+02 -0.14404795995E+04  0.14477430626E+04  0.12500000000E+03 0.  0.
         25    1    1    2    0    0 -0.10778476148E+03 -0.16805664881E+02 -0.38746310671E+03  0.42148860511E+03  0.12500000000E+03 0.  0.
</event>
<event>
 5    0  0.5660959E-005  0.3208698E+03  0.7546771E-02  0.1075250E+00
         21   -1    0    0  502  501  0.00000000000E+00  0.00000000000E+00  0.12007504146E+04  0.12007504146E+04  0.00000000000E+00 0.  1.
         21   -1    0    0  501  502 -0.00000000000E+00 -0.00000000000E+00 -0.85744242814E+02  0.85744242814E+02  0.00000000000E+00 0.  1.
         25    1    1    2    0    0  0.23081987425E+03 -0.27631703978E+02  0.58678575073E+03  0.64341576190E+03  0.12500000000E+03 0.  0.
         25    1    1    2    0    0 -0.19781660215E+03  0.29269222788E+02  0.36979788178E+03  0.43859271409E+03  0.12500000000E+03 0.  0.
         25    1    1    2    0    0 -0.33003272098E+02 -0.16375188106E+01  0.15842253928E+03  0.20448618142E+03  0.12500000000E+03 0.  0.
</event>
<event>
 5    0  0.5660959E-005  0.2135547E+03  0.7546771E-02  0.1138782E+00
         21   -1    0    0  502  501  0.00000000000E+00  0.00000000000E+00  0.80959629289E+02  0.80959629289E+02  0.00000000000E+00 0. -1.
         21   -1    0    0  501  502 -0.00000000000E+00 -0.00000000000E+00 -0.56331283926E+03  0.56331283926E+03  0.00000000000E+00 0. -1.
         25    1    1    2    0    0 -0.33323674090E+02  0.25775486024E+02 -0.25560482081E+03  0.28763460737E+03  0.12500000000E+03 0.  0.
         25    1    1    2    0    0 -0.50087583920E+01 -0.58333694817E+01 -0.47642078527E+02  0.13399210240E+03  0.12500000000E+03 0.  0.
         25    1    1    2    0    0  0.38332432482E+02 -0.19942116543E+02 -0.17910631063E+03  0.22264575877E+03  0.12500000000E+03 0.  0.
</event>
<event>
 5    0  0.5660959E-005  0.3547202E+03  0.7546771E-02  0.1060694E+00
         21   -1    0    0  502  501  0.00000000000E+00  0.00000000000E+00  0.80522887308E+03  0.80522887308E+03  0.00000000000E+00 0.  1.
         21   -1    0    0  501  502 -0.00000000000E+00 -0.00000000000E+00 -0.15626168479E+03  0.15626168479E+03  0.00000000000E+00 0.  1.
         25    1    1    2    0    0 -0.83152809256E+02  0.20152476546E+03  0.40587591053E+03  0.47737498418E+03  0.12500000000E+03 0.  0.
         25    1    1    2    0    0  0.12780205645E+03 -0.72503277986E+02  0.19577923542E+02  0.19390303258E+03  0.12500000000E+03 0.  0.
         25    1    1    2    0    0 -0.44649247194E+02 -0.12902148747E+03  0.22351335422E+03  0.29021254111E+03  0.12500000000E+03 0.  0.
</event>
<event>
 5    0  0.5660959E-005  0.3267864E+03  0.7546771E-02  0.1072568E+00
         21   -1    0    0  502  501  0.00000000000E+00  0.00000000000E+00  0.41736483811E+03  0.41736483811E+03  0.00000000000E+00 0. -1.
         21   -1    0    0  501  502 -0.00000000000E+00 -0.00000000000E+00 -0.25586572571E+03  0.25586572571E+03  0.00000000000E+00 0. -1.
         25    1    1    2    0    0 -0.81966850758E+02 -0.22094940225E+02  0.31210394651E+03  0.34675729904E+03  0.12500000000E+03 0.  0.
         25    1    1    2    0    0  0.11275676643E+02  0.45383092794E+02 -0.11625078756E+03  0.17699155800E+03  0.12500000000E+03 0.  0.
         25    1    1    2    0    0  0.70691174115E+02 -0.23288152569E+02 -0.34354046548E+02  0.14948170678E+03  0.12500000000E+03 0.  0.
</event>
<event>
 5    0  0.5660959E-005  0.6728581E+03  0.7546771E-02  0.9764808E-01
         21   -1    0    0  502  501  0.00000000000E+00  0.00000000000E+00  0.45183613839E+03  0.45183613839E+03  0.00000000000E+00 0. -1.
         21   -1    0    0  501  502 -0.00000000000E+00 -0.00000000000E+00 -0.10019960944E+04  0.10019960944E+04  0.00000000000E+00 0. -1.
         25    1    1    2    0    0  0.49691584131E+02 -0.46575148991E+02 -0.29879280879E+03  0.33096924422E+03  0.12500000000E+03 0.  0.
         25    1    1    2    0    0  0.40604698172E+03 -0.27203245912E+03 -0.22480555143E+03  0.55230276672E+03  0.12500000000E+03 0.  0.
         25    1    1    2    0    0 -0.45573856585E+03  0.31860760811E+03 -0.26561595770E+02  0.57056022182E+03  0.12500000000E+03 0.  0.
</event>
<event>
 5    0  0.5660959E-005  0.3165596E+03  0.7546771E-02  0.1077244E+00
         21   -1    0    0  502  501  0.00000000000E+00  0.00000000000E+00  0.83045631438E+02  0.83045631438E+02  0.00000000000E+00 0. -1.
         21   -1    0    0  501  502 -0.00000000000E+00 -0.00000000000E+00 -0.12066857708E+04  0.12066857708E+04  0.00000000000E+00 0. -1.
         25    1    1    2    0    0  0.49789858380E+02 -0.16520834841E+03 -0.31394597197E+03  0.37942048139E+03  0.12500000000E+03 0.  0.
         25    1    1    2    0    0 -0.13533590467E+03  0.16600212530E+03 -0.61866427252E+03  0.66651556230E+03  0.12500000000E+03 0.  0.
         25    1    1    2    0    0  0.85546046293E+02 -0.79377689162E+00 -0.19102989492E+03  0.24379535859E+03  0.12500000000E+03 0.  0.
</event>
<event>
 5    0  0.5660959E-005  0.2510810E+03  0.7546771E-02  0.1112624E+00
         21   -1    0    0  502  501  0.00000000000E+00  0.00000000000E+00  0.87082806364E+03  0.87082806364E+03  0.00000000000E+00 0. -1.
         21   -1    0    0  501  502 -0.00000000000E+00 -0.00000000000E+00 -0.72392767281E+02  0.72392767281E+02  0.00000000000E+00 0. -1.
         25    1    1    2    0    0 -0.17293692493E+02  0.46419297454E+01  0.12480763594E+03  0.17754595264E+03  0.12500000000E+03 0.  0.
         25    1    1    2    0    0  0.88664354005E+02 -0.76051232695E+02  0.18818060133E+03  0.25432675122E+03  0.12500000000E+03 0.  0.
         25    1    1    2    0    0 -0.71370661512E+02  0.71409302950E+02  0.48544705909E+03  0.51134812707E+03  0.12500000000E+03 0.  0.
</event>
<event>
 5    0  0.7397368E-005  0.4067662E+03  0.7546771E-02  0.1041462E+00
         21   -1    0    0  502  501  0.00000000000E+00  0.00000000000E+00  0.47024702151E+03  0.47024702151E+03  0.00000000000E+00 0.  1.
         21   -1    0    0  501  502 -0.00000000000E+00 -0.00000000000E+00 -0.35185487657E+03  0.35185487657E+03  0.00000000000E+00 0.  1.
         25    1    1    2    0    0  0.58099967779E+02 -0.22520394452E+03  0.73665946355E+02  0.27412423194E+03  0.12500000000E+03 0.  0.
         25    1    1    2    0    0 -0.13072362471E+03  0.43021071020E+02 -0.15450641539E+03  0.24173686315E+03  0.12500000000E+03 0.  0.
         25    1    1    2    0    0  0.72623656929E+02  0.18218287350E+03  0.19923261398E+03  0.30624080299E+03  0.12500000000E+03 0.  0.
</event>
<event>
 5    0  0.6450652E-005  0.2887761E+03  0.7546771E-02  0.1090990E+00
         21   -1    0    0  502  501  0.00000000000E+00  0.00000000000E+00  0.71899407497E+03  0.71899407497E+03  0.00000000000E+00 0. -1.
         21   -1    0    0  501  502 -0.00000000000E+00 -0.00000000000E+00 -0.11598377037E+03  0.11598377037E+03  0.00000000000E+00 0. -1.
         25    1    1    2    0    0 -0.41401663496E+02 -0.56888361976E+01  0.35286760379E+03  0.37667891685E+03  0.12500000000E+03 0.  0.
         25    1    1    2    0    0  0.97737276862E+02 -0.90184169348E+02  0.22404001233E+03  0.28897177511E+03  0.12500000000E+03 0.  0.
         25    1    1    2    0    0 -0.56335613366E+02  0.95873005546E+02  0.26102688490E+02  0.16932715338E+03  0.12500000000E+03 0.  0.
</event>
<event>
 5    0  0.5660959E-005  0.4512626E+03  0.7546771E-02  0.1027346E+00
         21   -1    0    0  502  501  0.00000000000E+00  0.00000000000E+00  0.47867306077E+03  0.47867306077E+03  0.00000000000E+00 0. -1.
         21   -1    0    0  501  502 -0.00000000000E+00 -0.00000000000E+00 -0.42542178016E+03  0.42542178016E+03  0.00000000000E+00 0. -1.
         25    1    1    2    0    0 -0.11760706916E+02 -0.16753326134E+03 -0.10365139348E+03  0.23361147072E+03  0.12500000000E+03 0.  0.
         25    1    1    2    0    0  0.50350797645E+02  0.35682028655E+03  0.20848076367E+03  0.43467821263E+03  0.12500000000E+03 0.  0.
         25    1    1    2    0    0 -0.38590090729E+02 -0.18928702520E+03 -0.51578089580E+02  0.23580515757E+03  0.12500000000E+03 0.  0.
</event>
<event>
 5    0  0.5660959E-005  0.4671788E+03  0.7546771E-02  0.1022719E+00
         21   -1    0    0  502  501  0.00000000000E+00  0.00000000000E+00  0.32709172064E+03  0.32709172064E+03  0.00000000000E+00 0. -1.
         21   -1    0    0  501  502 -0.00000000000E+00 -0.00000000000E+00 -0.66726251533E+03  0.66726251533E+03  0.00000000000E+00 0. -1.
         25    1    1    2    0    0  0.19892823553E+03  0.35498399900E+03 -0.10051058257E+03  0.43739394103E+03  0.12500000000E+03 0.  0.
         25    1    1    2    0    0 -0.60590802275E+02 -0.24536342088E+03 -0.98405978169E+02  0.29863554739E+03  0.12500000000E+03 0.  0.
         25    1    1    2    0    0 -0.13833743326E+03 -0.10962057812E+03 -0.14125423395E+03  0.25832474755E+03  0.12500000000E+03 0.  0.
</event>
<event>
 5    0  0.5660959E-005  0.2752215E+03  0.7546771E-02  0.1098328E+00
         21   -1    0    0  502  501  0.00000000000E+00  0.00000000000E+00  0.10853975109E+04  0.10853975109E+04  0.00000000000E+00 0. -1.
         21   -1    0    0  501  502 -0.00000000000E+00 -0.00000000000E+00 -0.69787231322E+02  0.69787231322E+02  0.00000000000E+00 0. -1.
         25    1    1    2    0    0  0.97681626590E+01 -0.99641222629E+02  0.47576020141E+03  0.50199258908E+03  0.12500000000E+03 0.  0.
         25    1    1    2    0    0 -0.62133335317E+02  0.13745447545E+03  0.17702309609E+03  0.26403874854E+03  0.12500000000E+03 0.  0.
         25    1    1    2    0    0  0.52365172658E+02 -0.37813252817E+02  0.36282698212E+03  0.38915340465E+03  0.12500000000E+03 0.  0.
</event>
<event>
 5    0  0.5660959E-005  0.2268890E+03  0.7546771E-02  0.1128849E+00
         21   -1    0    0  502  501  0.00000000000E+00  0.00000000000E+00  0.35053961996E+03  0.35053961996E+03  0.00000000000E+00 0.  1.
         21   -1    0    0  501  502 -0.00000000000E+00 -0.00000000000E+00 -0.14685535856E+03  0.14685535856E+03  0.00000000000E+00 0.  1.
         25    1    1    2    0    0 -0.24725974184E+02 -0.18040915450E+02  0.18673468952E+03  0.22678556546E+03  0.12500000000E+03 0.  0.
         25    1    1    2    0    0 -0.17450765812E+02  0.45806587073E+02 -0.31549405203E+01  0.13430460266E+03  0.12500000000E+03 0.  0.
         25    1    1    2    0    0  0.42176739996E+02 -0.27765671623E+02  0.20104512400E+02  0.13630481039E+03  0.12500000000E+03 0.  0.
</event>
<event>
 5    0  0.7162851E-005  0.2726090E+03  0.7546771E-02  0.1099796E+00
         21   -1    0    0  502  501  0.00000000000E+00  0.00000000000E+00  0.12726204985E+03  0.12726204985E+03  0.00000000000E+00 0.  1.
         21   -1    0    0  501  502 -0.00000000000E+00 -0.00000000000E+00 -0.58395765554E+03  0.58395765554E+03  0.00000000000E+00 0.  1.
         25    1    1    2    0    0 -0.15045719811E+02  0.90277067150E+02 -0.42759252767E+02  0.16071613558E+03  0.12500000000E+03 0.  0.
         25    1    1    2    0    0  0.27803950166E+02 -0.16930653944E+03 -0.21334350116E+03  0.30096214617E+03  0.12500000000E+03 0.  0.
         25    1    1    2    0    0 -0.12758230355E+02  0.79029472290E+02 -0.20059285177E+03  0.24954142364E+03  0.12500000000E+03 0.  0.
</event>
<event>
 5    0  0.5663557E-005  0.4454566E+03  0.7546771E-02  0.1029086E+00
         21   -1    0    0  502  501  0.00000000000E+00  0.00000000000E+00  0.47233906322E+03  0.47233906322E+03  0.00000000000E+00 0. -1.
         21   -1    0    0  501  502 -0.00000000000E+00 -0.00000000000E+00 -0.42010416687E+03  0.42010416687E+03  0.00000000000E+00 0. -1.
         25    1    1    2    0    0  0.91440697152E+02 -0.15075127913E+03  0.17473390370E+03  0.27792856340E+03  0.12500000000E+03 0.  0.
         25    1    1    2    0    0 -0.17112047278E+03 -0.13796183939E+03 -0.14085927529E+03  0.28945124074E+03  0.12500000000E+03 0.  0.
         25    1    1    2    0    0  0.79679775627E+02  0.28871311851E+03  0.18360267948E+02  0.32506342594E+03  0.12500000000E+03 0.  0.
</event>
<event>
 5    0  0.5660959E-005  0.3023889E+03  0.7546771E-02  0.1084052E+00
         21   -1    0    0  502  501  0.00000000000E+00  0.00000000000E+00  0.10609645383E+04  0.10609645383E+04  0.00000000000E+00 0. -1.
         21   -1    0    0  501  502 -0.00000000000E+00 -0.00000000000E+00 -0.86184853419E+02  0.86184853419E+02  0.00000000000E+00 0. -1.
         25    1    1    2    0    0  0.37599608738E+02 -0.12964486915E+02  0.53992743064E+02  0.14185212301E+03  0.12500000000E+03 0.  0.
         25    1    1    2    0    0  0.11304004904E+03 -0.77002762109E+02  0.36802479955E+03  0.41203729339E+03  0.12500000000E+03 0.  0.
         25    1    1    2    0    0 -0.15063965778E+03  0.89967249024E+02  0.55276214226E+03  0.59325997532E+03  0.12500000000E+03 0.  0.
</event>
<event>
 5    0  0.5660959E-005  0.3377617E+03  0.7546771E-02  0.1067753E+00
         21   -1    0    0  502  501  0.00000000000E+00  0.00000000000E+00  0.11129769260E+03  0.11129769260E+03  0.00000000000E+00 0.  1.
         21   -1    0    0  501  502 -0.00000000000E+00 -0.00000000000E+00 -0.10250251977E+04  0.10250251977E+04  0.00000000000E+00 0.  1.
         25    1    1    2    0    0 -0.99132889376E+02 -0.57510639418E+02 -0.37443527260E+03  0.41104936050E+03  0.12500000000E+03 0.  0.
         25    1    1    2    0    0  0.24439624272E+03  0.70737959367E+02 -0.38920118250E+03  0.48149345043E+03  0.12500000000E+03 0.  0.
         25    1    1    2    0    0 -0.14526335334E+03 -0.13227319949E+02 -0.15009105004E+03  0.24378007942E+03  0.12500000000E+03 0.  0.
</event>
<event>
 5    0  0.6594740E-005  0.2943820E+03  0.7546771E-02  0.1088083E+00
         21   -1    0    0  502  501  0.00000000000E+00  0.00000000000E+00  0.20919774025E+03  0.20919774025E+03  0.00000000000E+00 0. -1.
         21   -1    0    0  501  502 -0.00000000000E+00 -0.00000000000E+00 -0.41425272279E+03  0.41425272279E+03  0.00000000000E+00 0. -1.
         25    1    1    2    0    0 -0.29489952828E+02  0.94476849831E+02 -0.43038997484E+02  0.16514505072E+03  0.12500000000E+03 0.  0.
         25    1    1    2    0    0  0.54266100741E+02 -0.19410039667E+03 -0.11630862365E+02  0.23744483704E+03  0.12500000000E+03 0.  0.
         25    1    1    2    0    0 -0.24776147913E+02  0.99623546842E+02 -0.15038512269E+03  0.22086057529E+03  0.12500000000E+03 0.  0.
</event>
<event>
 5    0  0.5660959E-005  0.2191115E+03  0.7546771E-02  0.1134547E+00
         21   -1    0    0  502  501  0.00000000000E+00  0.00000000000E+00  0.62533775088E+02  0.62533775088E+02  0.00000000000E+00 0. -1.
         21   -1    0    0  501  502 -0.00000000000E+00 -0.00000000000E+00 -0.76774252053E+03  0.76774252053E+03  0.00000000000E+00 0. -1.
         25    1    1    2    0    0  0.44722270259E+02  0.45552749389E+02 -0.34367282855E+03  0.37122923850E+03  0.12500000000E+03 0.  0.
         25    1    1    2    0    0 -0.66623802020E+02 -0.53164977095E+02 -0.23634092580E+03  0.28061945583E+03  0.12500000000E+03 0.  0.
         25    1    1    2    0    0  0.21901531761E+02  0.76122277064E+01 -0.12519499109E+03  0.17842760128E+03  0.12500000000E+03 0.  0.
</event>
<event>
 5    0  0.5660959E-005  0.3273686E+03  0.7546771E-02  0.1072307E+00
         21   -1    0    0  502  501  0.00000000000E+00  0.00000000000E+00  0.33724047403E+03  0.33724047403E+03  0.00000000000E+00 0.  1.
         21   -1    0    0  501  502 -0.00000000000E+00 -0.00000000000E+00 -0.31778572281E+03  0.31778572281E+03  0.00000000000E+00 0.  1.
         25    1    1    2    0    0 -0.11188073935E+03 -0.13000570496E+03  0.11031107247E+03  0.23919096109E+03  0.12500000000E+03 0.  0.
         25    1    1    2    0    0 -0.52144020190E+02  0.56685462927E+02  0.50521679604E+02  0.15527292313E+03  0.12500000000E+03 0.  0.
         25    1    1    2    0    0  0.16402475954E+03  0.73320242030E+02 -0.14137800084E+03  0.26056231261E+03  0.12500000000E+03 0.  0.
</event>
<event>
 5    0  0.5660959E-005  0.2603964E+03  0.7546771E-02  0.1106905E+00
         21   -1    0    0  502  501  0.00000000000E+00  0.00000000000E+00  0.52703227531E+03  0.52703227531E+03  0.00000000000E+00 0.  1.
         21   -1    0    0  501  502 -0.00000000000E+00 -0.00000000000E+00 -0.12865680613E+03  0.12865680613E+03  0.00000000000E+00 0.  1.
         25    1    1    2    0    0 -0.14723519269E+03  0.77943573573E+01  0.16575397078E+03  0.25463372283E+03  0.12500000000E+03 0.  0.
         25    1    1    2    0    0  0.11188095435E+03 -0.71064130354E+02  0.12755553159E+03  0.22240250045E+03  0.12500000000E+03 0.  0.
         25    1    1    2    0    0  0.35354238342E+02  0.63269772997E+02  0.10506596681E+03  0.17865285815E+03  0.12500000000E+03 0.  0.
</event>
<event>
 5    0  0.5660959E-005  0.4973669E+03  0.7546771E-02  0.1014468E+00
         21   -1    0    0  502  501  0.00000000000E+00  0.00000000000E+00  0.10299347416E+04  0.10299347416E+04  0.00000000000E+00 0.  1.
         21   -1    0    0  501  502 -0.00000000000E+00 -0.00000000000E+00 -0.24018396149E+03  0.24018396149E+03  0.00000000000E+00 0.  1.
         25    1    1    2    0    0  0.19259086416E+02  0.65057711545E+02 -0.14354624425E+02  0.14294919896E+03  0.12500000000E+03 0.  0.
         25    1    1    2    0    0  0.38775691954E+02 -0.30120768732E+03  0.78750896265E+03  0.85324380539E+03  0.12500000000E+03 0.  0.
         25    1    1    2    0    0 -0.58034778369E+02  0.23614997577E+03  0.16596441914E+02  0.27392569876E+03  0.12500000000E+03 0.  0.
</event>
<event>
 5    0  0.5660959E-005  0.4906121E+03  0.7546771E-02  0.1016259E+00
         21   -1    0    0  502  501  0.00000000000E+00  0.00000000000E+00  0.16083334765E+04  0.16083334765E+04  0.00000000000E+00 0.  1.
         21   -1    0    0  501  502 -0.00000000000E+00 -0.00000000000E+00 -0.14965818044E+03  0.14965818044E+03  0.00000000000E+00 0.  1.
         25    1    1    2    0    0  0.10089673588E+03  0.18583241390E+03  0.12917825916E+03  0.27753533109E+03  0.12500000000E+03 0.  0.
         25    1    1    2    0    0  0.50506938370E+02  0.15714935551E+03  0.21739369469E+03  0.30021973495E+03  0.12500000000E+03 0.  0.
         25    1    1    2    0    0 -0.15140367425E+03 -0.34298176941E+03  0.11121033422E+04  0.11802365909E+04  0.12500000000E+03 0.  0.
</event>
<event>
 5    0  0.5660959E-005  0.4745348E+03  0.7546771E-02  0.1020648E+00
         21   -1    0    0  502  501  0.00000000000E+00  0.00000000000E+00  0.15548671713E+03  0.15548671713E+03  0.00000000000E+00 0. -1.
         21   -1    0    0  501  502 -0.00000000000E+00 -0.00000000000E+00 -0.14482474661E+04  0.14482474661E+04  0.00000000000E+00 0. -1.
         25    1    1    2    0    0 -0.47153003672E+02  0.22571873970E+03 -0.12030663800E+04  0.12313269549E+04  0.12500000000E+03 0.  0.
         25    1    1    2    0    0  0.68107240031E+02 -0.12505021689E+03 -0.91781656206E+02  0.21053509281E+03  0.12500000000E+03 0.  0.
         25    1    1    2    0    0 -0.20954236359E+02 -0.10066852280E+03  0.20872871784E+01  0.16187213557E+03  0.12500000000E+03 0.  0.
</event>
<event>
 5    0  0.5660959E-005  0.3254454E+03  0.7546771E-02  0.1073170E+00
         21   -1    0    0  502  501  0.00000000000E+00  0.00000000000E+00  0.35493807106E+03  0.35493807106E+03  0.00000000000E+00 0.  1.
         21   -1    0    0  501  502 -0.00000000000E+00 -0.00000000000E+00 -0.29840334946E+03  0.29840334946E+03  0.00000000000E+00 0.  1.
         25    1    1    2    0    0 -0.85842791665E+02 -0.64037570275E+02  0.35221192997E+02  0.16833100642E+03  0.12500000000E+03 0.  0.
         25    1    1    2    0    0 -0.78580978734E+02 -0.13072139791E+03  0.37207125591E+02  0.20067990503E+03  0.12500000000E+03 0.  0.
         25    1    1    2    0    0  0.16442377040E+03  0.19475896818E+03 -0.15893596996E+02  0.28433050906E+03  0.12500000000E+03 0.  0.
</event>
<event>
 5    0  0.5660959E-005  0.3166704E+03  0.7546771E-02  0.1077192E+00
         21   -1    0    0  502  501  0.00000000000E+00  0.00000000000E+00  0.14787699657E+04  0.14787699657E+04  0.00000000000E+00 0.  1.
         21   -1    0    0  501  502 -0.00000000000E+00 -0.00000000000E+00 -0.67813217096E+02  0.67813217096E+02  0.00000000000E+00 0.  1.
         25    1    1    2    0    0  0.94462042042E+02 -0.13570933957E+03  0.70784026663E+03  0.73756555322E+03  0.12500000000E+03 0.  0.
         25    1    1    2    0    0 -0.52728135675E+01  0.14135247111E+03  0.58646163222E+03  0.61609298788E+03  0.12500000000E+03 0.  0.
         25    1    1    2    0    0 -0.89189228475E+02 -0.56431315317E+01  0.11665484980E+03  0.19292464174E+03  0.12500000000E+03 0.  0.
</event>
<event>
 5    0  0.5660959E-005  0.3129576E+03  0.7546771E-02  0.1078937E+00
         21   -1    0    0  502  501  0.00000000000E+00  0.00000000000E+00  0.43793392025E+03  0.43793392025E+03  0.00000000000E+00 0.  1.
         21   -1    0    0  501  502 -0.00000000000E+00 -0.00000000000E+00 -0.22364669853E+03  0.22364669853E+03  0.00000000000E+00 0.  1.
         25    1    1    2    0    0  0.26350424081E+02 -0.11645507625E+03 -0.27720621673E+02  0.17507016451E+03  0.12500000000E+03 0.  0.
         25    1    1    2    0    0  0.14539772692E+03  0.72306547642E+02  0.11076245816E+03  0.23294217729E+03  0.12500000000E+03 0.  0.
         25    1    1    2    0    0 -0.17174815100E+03  0.44148528609E+02  0.13124538522E+03  0.25356827698E+03  0.12500000000E+03 0.  0.
</event>
<event>
 5    0  0.5660959E-005  0.2354637E+03  0.7546771E-02  0.1122852E+00
         21   -1    0    0  502  501  0.00000000000E+00  0.00000000000E+00  0.39846952141E+03  0.39846952141E+03  0.00000000000E+00 0.  1.
         21   -1    0    0  501  502 -0.00000000000E+00 -0.00000000000E+00 -0.13914025978E+03  0.13914025978E+03  0.00000000000E+00 0.  1.
         25    1    1    2    0    0 -0.62225549278E+02  0.13565746307E+02  0.18984673963E+02  0.14156788584E+03  0.12500000000E+03 0.  0.
         25    1    1    2    0    0  0.81865492020E+02 -0.82419292622E+02  0.12598335759E+03  0.21211248188E+03  0.12500000000E+03 0.  0.
         25    1    1    2    0    0 -0.19639942742E+02  0.68853546315E+02  0.11436123008E+03  0.18392941346E+03  0.12500000000E+03 0.  0.
</event>
<event>
 5    0  0.6839457E-005  0.4274872E+03  0.7546771E-02  0.1034657E+00
         21   -1    0    0  502  501  0.00000000000E+00  0.00000000000E+00  0.69467036876E+03  0.69467036876E+03  0.00000000000E+00 0. -1.
         21   -1    0    0  501  502 -0.00000000000E+00 -0.00000000000E+00 -0.26306770754E+03  0.26306770754E+03  0.00000000000E+00 0. -1.
         25    1    1    2    0    0  0.14240032850E+02 -0.86143319814E+02 -0.15226784037E+03  0.21548537142E+03  0.12500000000E+03 0.  0.
         25    1    1    2    0    0 -0.78663560223E+02  0.19021074066E+03  0.17548471503E+03  0.29797309741E+03  0.12500000000E+03 0.  0.
         25    1    1    2    0    0  0.64423527373E+02 -0.10406742085E+03  0.40838578656E+03  0.44427960748E+03  0.12500000000E+03 0.  0.
</event>
<event>
 5    0  0.5660959E-005  0.3394619E+03  0.7546771E-02  0.1067025E+00
         21   -1    0    0  502  501  0.00000000000E+00  0.00000000000E+00  0.11022143141E+04  0.11022143141E+04  0.00000000000E+00 0. -1.
         21   -1    0    0  501  502 -0.00000000000E+00 -0.00000000000E+00 -0.10454804695E+03  0.10454804695E+03  0.00000000000E+00 0. -1.
         25    1    1    2    0    0  0.15083542326E+03 -0.87908184304E+02  0.48307511388E+03  0.52864519238E+03  0.12500000000E+03 0.  0.
         25    1    1    2    0    0 -0.11130178881E+03  0.12610131123E+03  0.82927609716E+02  0.22536995660E+03  0.12500000000E+03 0.  0.
         25    1    1    2    0    0 -0.39533634448E+02 -0.38193126925E+02  0.43166354356E+03  0.45274721207E+03  0.12500000000E+03 0.  0.
</event>
<event>
 5    0  0.6471450E-005  0.3535364E+03  0.7546771E-02  0.1061173E+00
         21   -1    0    0  502  501  0.00000000000E+00  0.00000000000E+00  0.36156549863E+03  0.36156549863E+03  0.00000000000E+00 0. -1.
         21   -1    0    0  501  502 -0.00000000000E+00 -0.00000000000E+00 -0.34568552120E+03  0.34568552120E+03  0.00000000000E+00 0. -1.
         25    1    1    2    0    0 -0.24069035564E+03 -0.33206883985E+02  0.68451606877E+02  0.28168274162E+03  0.12500000000E+03 0.  0.
         25    1    1    2    0    0  0.13740372900E+03 -0.88887183994E+02  0.26719607388E+02  0.20765272365E+03  0.12500000000E+03 0.  0.
         25    1    1    2    0    0  0.10328662665E+03  0.12209406798E+03 -0.79291236834E+02  0.21791555456E+03  0.12500000000E+03 0.  0.
</event>
<event>
 5    0  0.5660959E-005  0.2810355E+03  0.7546771E-02  0.1095125E+00
         21   -1    0    0  502  501  0.00000000000E+00  0.00000000000E+00  0.18710430512E+03  0.18710430512E+03  0.00000000000E+00 0. -1.
         21   -1    0    0  501  502 -0.00000000000E+00 -0.00000000000E+00 -0.42212260859E+03  0.42212260859E+03  0.00000000000E+00 0. -1.
         25    1    1    2    0    0 -0.10982559089E+03  0.54545598661E+02 -0.82757874586E+02  0.19367691797E+03  0.12500000000E+03 0.  0.
         25    1    1    2    0    0  0.35228690511E+02 -0.88643569863E+02  0.49126145894E+02  0.16473348574E+03  0.12500000000E+03 0.  0.
         25    1    1    2    0    0  0.74596900383E+02  0.34097971203E+02 -0.20138657478E+03  0.25081651000E+03  0.12500000000E+03 0.  0.
</event>
<event>
 5    0  0.5660959E-005  0.3888091E+03  0.7546771E-02  0.1047725E+00
         21   -1    0    0  502  501  0.00000000000E+00  0.00000000000E+00  0.16567583082E+04  0.16567583082E+04  0.00000000000E+00 0. -1.
         21   -1    0    0  501  502 -0.00000000000E+00 -0.00000000000E+00 -0.91245960487E+02  0.91245960487E+02  0.00000000000E+00 0. -1.
         25    1    1    2    0    0 -0.52224574979E+02 -0.17302705962E+03  0.77956989746E+03  0.80995061245E+03  0.12500000000E+03 0.  0.
         25    1    1    2    0    0 -0.10755056375E+03  0.12287563472E+03  0.11563474535E+03  0.23592782732E+03  0.12500000000E+03 0.  0.
         25    1    1    2    0    0  0.15977513873E+03  0.50151424892E+02  0.67030770490E+03  0.70212582891E+03  0.12500000000E+03 0.  0.
</event>
<event>
 5    0  0.5660959E-005  0.2912466E+03  0.7546771E-02  0.1089700E+00
         21   -1    0    0  502  501  0.00000000000E+00  0.00000000000E+00  0.10150114599E+03  0.10150114599E+03  0.00000000000E+00 0.  1.
         21   -1    0    0  501  502 -0.00000000000E+00 -0.00000000000E+00 -0.83570095020E+03  0.83570095020E+03  0.00000000000E+00 0.  1.
         25    1    1    2    0    0 -0.79421007152E+02 -0.11916818022E+02 -0.43428592819E+03  0.45899779341E+03  0.12500000000E+03 0.  0.
         25    1    1    2    0    0  0.88730959016E+02  0.12421388249E+03 -0.11583511095E+03  0.22879039451E+03  0.12500000000E+03 0.  0.
         25    1    1    2    0    0 -0.93099518642E+01 -0.11229706447E+03 -0.18407876506E+03  0.24941390827E+03  0.12500000000E+03 0.  0.
</event>
<event>
 5    0  0.5660959E-005  0.2277610E+03  0.7546771E-02  0.1128226E+00
         21   -1    0    0  502  501  0.00000000000E+00  0.00000000000E+00  0.73578635150E+03  0.73578635150E+03  0.00000000000E+00 0. -1.
         21   -1    0    0  501  502 -0.00000000000E+00 -0.00000000000E+00 -0.70502917536E+02  0.70502917536E+02  0.00000000000E+00 0. -1.
         25    1    1    2    0    0 -0.47098049901E+02  0.57387493378E+02  0.15678662444E+03  0.21381907376E+03  0.12500000000E+03 0.  0.
         25    1    1    2    0    0  0.68940736335E+02  0.35015913375E+02  0.25361829957E+03  0.29313167893E+03  0.12500000000E+03 0.  0.
         25    1    1    2    0    0 -0.21842686434E+02 -0.92403406752E+02  0.25487850995E+03  0.29933851634E+03  0.12500000000E+03 0.  0.
</event>
<event>
 5    0  0.5660959E-005  0.3538716E+03  0.7546771E-02  0.1061037E+00
         21   -1    0    0  502  501  0.00000000000E+00  0.00000000000E+00  0.49030368408E+03  0.49030368408E+03  0.00000000000E+00 0. -1.
         21   -1    0    0  501  502 -0.00000000000E+00 -0.00000000000E+00 -0.25540312556E+03  0.25540312556E+03  0.00000000000E+00 0. -1.
         25    1    1    2    0    0 -0.21882177929E+02 -0.35285394541E+02  0.59453720641E+02  0.14451170775E+03  0.12500000000E+03 0.  0.
         25    1    1    2    0    0  0.23638346958E+03 -0.96515095731E+02  0.33339468816E+02  0.28623212359E+03  0.12500000000E+03 0.  0.
         25    1    1    2    0    0 -0.21450129165E+03  0.13180049027E+03  0.14210736906E+03  0.31496297829E+03  0.12500000000E+03 0.  0.
</event>
<event>
 5    0  0.5660959E-005  0.2342881E+03  0.7546771E-02  0.1123658E+00
         21   -1    0    0  502  501  0.00000000000E+00  0.00000000000E+00  0.43716829657E+03  0.43716829657E+03  0.00000000000E+00 0. -1.
         21   -1    0    0  501  502 -0.00000000000E+00 -0.00000000000E+00 -0.12556009379E+03  0.12556009379E+03  0.00000000000E+00 0. -1.
         25    1    1    2    0    0  0.11472503450E+02 -0.46273794039E+01  0.76331484284E+02  0.14698478312E+03  0.12500000000E+03 0.  0.
         25    1    1    2    0    0  0.90551771693E+02  0.58273236955E+02  0.72013214154E+02  0.18001748947E+03  0.12500000000E+03 0.  0.
         25    1    1    2    0    0 -0.10202427514E+03 -0.53645857551E+02  0.16326350434E+03  0.23572611777E+03  0.12500000000E+03 0.  0.
</event>
<event>
 5    0  0.5660959E-005  0.4584411E+03  0.7546771E-02  0.1025234E+00
         21   -1    0    0  502  501  0.00000000000E+00  0.00000000000E+00  0.30112085596E+03  0.30112085596E+03  0.00000000000E+00 0.  1.
         21   -1    0    0  501  502 -0.00000000000E+00 -0.00000000000E+00 -0.69795304969E+03  0.69795304969E+03  0.00000000000E+00 0.  1.
         25    1    1    2    0    0  0.33408935180E+03 -0.51729840426E+02 -0.25253867354E+03  0.44010504770E+03  0.12500000000E+03 0.  0.
         25    1    1    2    0    0 -0.29451716182E+03  0.16830294745E+03 -0.68935641619E+02  0.36802630804E+03  0.12500000000E+03 0.  0.
         25    1    1    2    0    0 -0.39572189982E+02 -0.11657310702E+03 -0.75357878577E+02  0.19094254991E+03  0.12500000000E+03 0.  0.
</event>
<event>
 5    0  0.6194521E-005  0.2824178E+03  0.7546771E-02  0.1094376E+00
         21   -1    0    0  502  501  0.00000000000E+00  0.00000000000E+00  0.41876113167E+03  0.41876113167E+03  0.00000000000E+00 0. -1.
         21   -1    0    0  501  502 -0.00000000000E+00 -0.00000000000E+00 -0.19046616853E+03  0.19046616853E+03  0.00000000000E+00 0. -1.
         25    1    1    2    0    0 -0.39732659290E+02  0.46370441116E+02  0.22221660129E+03  0.26217192816E+03  0.12500000000E+03 0.  0.
         25    1    1    2    0    0  0.21809532855E+01 -0.13758279719E+03 -0.14667288006E+02  0.18647764472E+03  0.12500000000E+03 0.  0.
         25    1    1    2    0    0  0.37551706005E+02  0.91212356078E+02  0.20745649862E+02  0.16057772733E+03  0.12500000000E+03 0.  0.
</event>
<event>
 5    0  0.6263523E-005  0.4132723E+03  0.7546771E-02  0.1039278E+00
         21   -1    0    0  502  501  0.00000000000E+00  0.00000000000E+00  0.97274367637E+03  0.97274367637E+03  0.00000000000E+00 0. -1.
         21   -1    0    0  501  502 -0.00000000000E+00 -0.00000000000E+00 -0.17557967533E+03  0.17557967533E+03  0.00000000000E+00 0. -1.
         25    1    1    2    0    0 -0.79968555793E+02  0.26794935026E+02  0.45579601931E+03  0.48009160551E+03  0.12500000000E+03 0.  0.
         25    1    1    2    0    0  0.75653029620E+02 -0.26452111838E+03  0.21810837214E+03  0.37268091574E+03  0.12500000000E+03 0.  0.
         25    1    1    2    0    0  0.43155261733E+01  0.23772618336E+03  0.12325960959E+03  0.29555083044E+03  0.12500000000E+03 0.  0.
</event>
<event>
 5    0  0.5660959E-005  0.3993605E+03  0.7546771E-02  0.1044001E+00
         21   -1    0    0  502  501  0.00000000000E+00  0.00000000000E+00  0.61519872658E+02  0.61519872658E+02  0.00000000000E+00 0. -1.
         21   -1    0    0  501  502 -0.00000000000E+00 -0.00000000000E+00 -0.25924758584E+04  0.25924758584E+04  0.00000000000E+00 0. -1.
         25    1    1    2    0    0 -0.16842322793E+03  0.43565718539E+02 -0.20032958710E+04  0.20147167796E+04  0.12500000000E+03 0.  0.
         25    1    1    2    0    0  0.79072205978E+02 -0.11617015128E+03 -0.31727864087E+03  0.36883418193E+03  0.12500000000E+03 0.  0.
         25    1    1    2    0    0  0.89351021950E+02  0.72604432737E+02 -0.21038147387E+03  0.27044476945E+03  0.12500000000E+03 0.  0.
</event>
<event>
 5    0  0.5660959E-005  0.3447716E+03  0.7546771E-02  0.1064782E+00
         21   -1    0    0  502  501  0.00000000000E+00  0.00000000000E+00  0.71987175346E+02  0.71987175346E+02  0.00000000000E+00 0. -1.
         21   -1    0    0  501  502 -0.00000000000E+00 -0.00000000000E+00 -0.16512310448E+04  0.16512310448E+04  0.00000000000E+00 0. -1.
         25    1    1    2    0    0 -0.89274783339E+01 -0.14222410334E+03 -0.10316133627E+04  0.10488844195E+04  0.12500000000E+03 0.  0.
         25    1    1    2    0    0  0.66152711759E+02  0.19447543750E+03 -0.39455369844E+03  0.46205464830E+03  0.12500000000E+03 0.  0.
         25    1    1    2    0    0 -0.57225233425E+02 -0.52251334154E+02 -0.15307680831E+03  0.21227915230E+03  0.12500000000E+03 0.  0.
</event>
<event>
 5    0  0.5660959E-005  0.3213619E+03  0.7546771E-02  0.1075024E+00
         21   -1    0    0  502  501  0.00000000000E+00  0.00000000000E+00  0.19370571252E+03  0.19370571252E+03  0.00000000000E+00 0. -1.
         21   -1    0    0  501  502 -0.00000000000E+00 -0.00000000000E+00 -0.53314631476E+03  0.53314631476E+03  0.00000000000E+00 0. -1.
         25    1    1    2    0    0  0.21461887186E+03 -0.13262341369E+03 -0.16062070894E+03  0.32415157282E+03  0.12500000000E+03 0.  0.
         25    1    1    2    0    0 -0.12158528146E+03  0.72687080566E+02 -0.12794702608E+03  0.22817062438E+03  0.12500000000E+03 0.  0.
         25    1    1    2    0    0 -0.93033590397E+02  0.59936333129E+02 -0.50872867221E+02  0.17452983009E+03  0.12500000000E+03 0.  0.
</event>
<event>
 5    0  0.6933316E-005  0.4724224E+03  0.7546771E-02  0.1021239E+00
         21   -1    0    0  502  501  0.00000000000E+00  0.00000000000E+00  0.19101926544E+03  0.19101926544E+03  0.00000000000E+00 0.  1.
         21   -1    0    0  501  502 -0.00000000000E+00 -0.00000000000E+00 -0.11683791447E+04  0.11683791447E+04  0.00000000000E+00 0.  1.
         25    1    1    2    0    0  0.50842721502E+02  0.21431834925E+03 -0.30505000480E+02  0.25509388901E+03  0.12500000000E+03 0.  0.
         25    1    1    2    0    0 -0.22792543839E+03 -0.64390447205E+02 -0.67252289955E+03  0.72388409678E+03  0.12500000000E+03 0.  0.
         25    1    1    2    0    0  0.17708271689E+03 -0.14992790205E+03 -0.27433197922E+03  0.38042042434E+03  0.12500000000E+03 0.  0.
</event>
<event>
 5    0  0.5660959E-005  0.4053834E+03  0.7546771E-02  0.1041931E+00
         21   -1    0    0  502  501  0.00000000000E+00  0.00000000000E+00  0.51094277582E+03  0.51094277582E+03  0.00000000000E+00 0.  1.
         21   -1    0    0  501  502 -0.00000000000E+00 -0.00000000000E+00 -0.32163237746E+03  0.32163237746E+03  0.00000000000E+00 0.  1.
         25    1    1    2    0    0 -0.20315740648E+03 -0.18697501602E+03 -0.80649216522E+02  0.31362698314E+03  0.12500000000E+03 0.  0.
         25    1    1    2    0    0  0.96319555899E+02  0.18750275093E+03  0.25525130207E+03  0.35385444135E+03  0.12500000000E+03 0.  0.
         25    1    1    2    0    0  0.10683785058E+03 -0.52773491277E+00  0.14708312805E+02  0.16509372879E+03  0.12500000000E+03 0.  0.
</event>
<event>
 5    0  0.5660959E-005  0.3442127E+03  0.7546771E-02  0.1065016E+00
         21   -1    0    0  502  501  0.00000000000E+00  0.00000000000E+00  0.47899528336E+03  0.47899528336E+03  0.00000000000E+00 0. -1.
         21   -1    0    0  501  502 -0.00000000000E+00 -0.00000000000E+00 -0.24735608276E+03  0.24735608276E+03  0.00000000000E+00 0. -1.
         25    1    1    2    0    0 -0.11356283504E+03 -0.97410257680E+02  0.97838239783E+02  0.21813435531E+03  0.12500000000E+03 0.  0.
         25    1    1    2    0    0  0.14156013476E+03  0.62905790792E+02 -0.11236711318E+03  0.22857772943E+03  0.12500000000E+03 0.  0.
         25    1    1    2    0    0 -0.27997299723E+02  0.34504466888E+02  0.24616807400E+03  0.27963928137E+03  0.12500000000E+03 0.  0.
</event>
<event>
 5    0  0.5660959E-005  0.5296215E+03  0.7546771E-02  0.1006324E+00
         21   -1    0    0  502  501  0.00000000000E+00  0.00000000000E+00  0.39334730348E+03  0.39334730348E+03  0.00000000000E+00 0.  1.
         21   -1    0    0  501  502 -0.00000000000E+00 -0.00000000000E+00 -0.71310764024E+03  0.71310764024E+03  0.00000000000E+00 0.  1.
         25    1    1    2    0    0 -0.29851099161E+02 -0.37696190075E+03  0.23798673899E+02  0.39897711666E+03  0.12500000000E+03 0.  0.
         25    1    1    2    0    0  0.68296404569E+02  0.51145577989E+02 -0.32192839073E+03  0.35572905108E+03  0.12500000000E+03 0.  0.
         25    1    1    2    0    0 -0.38445305408E+02  0.32581632276E+03 -0.21630619929E+02  0.35174877598E+03  0.12500000000E+03 0.  0.
</event>
<event>
 5    0  0.5660959E-005  0.2560150E+03  0.7546771E-02  0.1109561E+00
         21   -1    0    0  502  501  0.00000000000E+00  0.00000000000E+00  0.10197169640E+03  0.10197169640E+03  0.00000000000E+00 0. -1.
         21   -1    0    0  501  502 -0.00000000000E+00 -0.00000000000E+00 -0.64276334068E+03  0.64276334068E+03  0.00000000000E+00 0. -1.
         25    1    1    2    0    0  0.52394927900E+02  0.68410994948E+02 -0.21188245950E+03  0.26066159929E+03  0.12500000000E+03 0.  0.
         25    1    1    2    0    0 -0.11268240003E+03  0.86962669746E+01 -0.26260154566E+03  0.31202166610E+03  0.12500000000E+03 0.  0.
         25    1    1    2    0    0  0.60287472128E+02 -0.77107261923E+02 -0.66307639113E+02  0.17205177169E+03  0.12500000000E+03 0.  0.
</event>
<event>
 5    0  0.5660959E-005  0.2732929E+03  0.7546771E-02  0.1099410E+00
         21   -1    0    0  502  501  0.00000000000E+00  0.00000000000E+00  0.57464385500E+03  0.57464385500E+03  0.00000000000E+00 0.  1.
         21   -1    0    0  501  502 -0.00000000000E+00 -0.00000000000E+00 -0.12997442897E+03  0.12997442897E+03  0.00000000000E+00 0.  1.
         25    1    1    2    0    0 -0.71566540806E+02  0.76837952355E+02  0.87089716269E+02  0.18502826639E+03  0.12500000000E+03 0.  0.
         25    1    1    2    0    0  0.12381859792E+03 -0.95144152541E+02  0.90476201209E+02  0.21953222529E+03  0.12500000000E+03 0.  0.
         25    1    1    2    0    0 -0.52252057114E+02  0.18306200187E+02  0.26710350855E+03  0.30005779230E+03  0.12500000000E+03 0.  0.
</event>
<event>
 5    0  0.5660959E-005  0.2475164E+03  0.7546771E-02  0.1114884E+00
         21   -1    0    0  502  501  0.00000000000E+00  0.00000000000E+00  0.82428516713E+02  0.82428516713E+02  0.00000000000E+00 0.  1.
         21   -1    0    0  501  502 -0.00000000000E+00 -0.00000000000E+00 -0.74324266759E+03  0.74324266759E+03  0.00000000000E+00 0.  1.
         25    1    1    2    0    0  0.57741400223E+02 -0.33348883478E+02 -0.31408319706E+03  0.34455692128E+03  0.12500000000E+03 0.  0.
         25    1    1    2    0    0  0.50787176209E+02  0.70675712895E+02 -0.22726046876E+03  0.27358127553E+03  0.12500000000E+03 0.  0.
         25    1    1    2    0    0 -0.10852857643E+03 -0.37326829416E+02 -0.11947048506E+03  0.20753298749E+03  0.12500000000E+03 0.  0.
</event>
<event>
 5    0  0.6477937E-005  0.3296557E+03  0.7546771E-02  0.1071289E+00
         21   -1    0    0  502  501  0.00000000000E+00  0.00000000000E+00  0.29038070309E+03  0.29038070309E+03  0.00000000000E+00 0.  1.
         21   -1    0    0  501  502 -0.00000000000E+00 -0.00000000000E+00 -0.37424284628E+03  0.37424284628E+03  0.00000000000E+00 0.  1.
         25    1    1    2    0    0 -0.12300726489E+03  0.11657528590E+03 -0.18180138553E+03  0.27820375317E+03  0.12500000000E+03 0.  0.
         25    1    1    2    0    0  0.13751129644E+03  0.18906458724E+02  0.28756406099E+02  0.18899402562E+03  0.12500000000E+03 0.  0.
         25    1    1    2    0    0 -0.14504031543E+02 -0.13548174463E+03  0.69182836246E+02  0.19742577058E+03  0.12500000000E+03 0.  0.
</event>
<event>
 5    0  0.5660959E-005  0.3087727E+03  0.7546771E-02  0.1080936E+00
         21   -1    0    0  502  501  0.00000000000E+00  0.00000000000E+00  0.54654585618E+03  0.54654585618E+03  0.00000000000E+00 0.  1.
         21   -1    0    0  501  502 -0.00000000000E+00 -0.00000000000E+00 -0.17444209481E+03  0.17444209481E+03  0.00000000000E+00 0.  1.
         25    1    1    2    0    0 -0.13707116848E+03  0.12717264674E+03  0.22405109479E+03  0.31746697526E+03  0.12500000000E+03 0.  0.
         25    1    1    2    0    0 -0.38851277868E+02 -0.77256681358E+02  0.80182542460E+02  0.17184951767E+03  0.12500000000E+03 0.  0.
         25    1    1    2    0    0  0.17592244635E+03 -0.49915965378E+02  0.67870124127E+02  0.23167145806E+03  0.12500000000E+03 0.  0.
</event>
<event>
 5    0  0.5660959E-005  0.3523634E+03  0.7546771E-02  0.1061649E+00
         21   -1    0    0  502  501  0.00000000000E+00  0.00000000000E+00  0.28995137380E+03  0.28995137380E+03  0.00000000000E+00 0.  1.
         21   -1    0    0  501  502 -0.00000000000E+00 -0.00000000000E+00 -0.42820960457E+03  0.42820960457E+03  0.00000000000E+00 0.  1.
         25    1    1    2    0    0  0.17224258186E+02  0.47293796869E+02  0.17403048168E+03  0.22010221908E+03  0.12500000000E+03 0.  0.
         25    1    1    2    0    0  0.36558379828E+01 -0.63488629395E+02  0.20361368773E+02  0.14171717099E+03  0.12500000000E+03 0.  0.
         25    1    1    2    0    0 -0.20880096168E+02  0.16194832525E+02 -0.33265008122E+03  0.35634158830E+03  0.12500000000E+03 0.  0.
</event>
<event>
 5    0  0.5660959E-005  0.2807996E+03  0.7546771E-02  0.1095253E+00
         21   -1    0    0  502  501  0.00000000000E+00  0.00000000000E+00  0.63418778850E+03  0.63418778850E+03  0.00000000000E+00 0. -1.
         21   -1    0    0  501  502 -0.00000000000E+00 -0.00000000000E+00 -0.12432976804E+03  0.12432976804E+03  0.00000000000E+00 0. -1.
         25    1    1    2    0    0  0.46846846856E+02 -0.13236177807E+02  0.54118624760E+02  0.14465009163E+03  0.12500000000E+03 0.  0.
         25    1    1    2    0    0  0.52236883523E+02 -0.12580360736E+03  0.29497205228E+03  0.34812174774E+03  0.12500000000E+03 0.  0.
         25    1    1    2    0    0 -0.99083730379E+02  0.13903978516E+03  0.16076734341E+03  0.26574571716E+03  0.12500000000E+03 0.  0.
</event>
<event>
 5    0  0.5660959E-005  0.3914401E+03  0.7546771E-02  0.1046785E+00
         21   -1    0    0  502  501  0.00000000000E+00  0.00000000000E+00  0.59807584984E+03  0.59807584984E+03  0.00000000000E+00 0. -1.
         21   -1    0    0  501  502 -0.00000000000E+00 -0.00000000000E+00 -0.25619720296E+03  0.25619720296E+03  0.00000000000E+00 0. -1.
         25    1    1    2    0    0 -0.35744306640E+02 -0.39592123336E+02  0.21641327612E+02  0.13761736354E+03  0.12500000000E+03 0.  0.
         25    1    1    2    0    0 -0.81429456957E+02  0.17363769022E+03  0.41922388339E+03  0.47765517722E+03  0.12500000000E+03 0.  0.
         25    1    1    2    0    0  0.11717376360E+03 -0.13404556689E+03 -0.98986564119E+02  0.23900051204E+03  0.12500000000E+03 0.  0.
</event>
<event>
 5    0  0.6860624E-005  0.4851257E+03  0.7546771E-02  0.1017736E+00
         21   -1    0    0  502  501  0.00000000000E+00  0.00000000000E+00  0.28752710713E+03  0.28752710713E+03  0.00000000000E+00 0.  1.
         21   -1    0    0  501  502 -0.00000000000E+00 -0.00000000000E+00 -0.81852075521E+03  0.81852075521E+03  0.00000000000E+00 0.  1.
         25    1    1    2    0    0 -0.46405106031E+02 -0.90113956310E+02 -0.45756451614E+03  0.48504045751E+03  0.12500000000E+03 0.  0.
         25    1    1    2    0    0 -0.16025630936E+03 -0.16760220142E+03 -0.29238412276E+02  0.26505182014E+03  0.12500000000E+03 0.  0.
         25    1    1    2    0    0  0.20666141539E+03  0.25771615773E+03 -0.44190719659E+02  0.35595558468E+03  0.12500000000E+03 0.  0.
</event>
<event>
 5    0  0.5660959E-005  0.2815687E+03  0.7546771E-02  0.1094835E+00
         21   -1    0    0  502  501  0.00000000000E+00  0.00000000000E+00  0.10733198619E+03  0.10733198619E+03  0.00000000000E+00 0. -1.
         21   -1    0    0  501  502 -0.00000000000E+00 -0.00000000000E+00 -0.73865140478E+03  0.73865140478E+03  0.00000000000E+00 0. -1.
         25    1    1    2    0    0  0.78932912539E+02 -0.13185615386E+03 -0.23762321043E+03  0.30936425153E+03  0.12500000000E+03 0.  0.
         25    1    1    2    0    0 -0.83253343629E+02  0.17224820797E+03 -0.20730087566E+03  0.30854370424E+03  0.12500000000E+03 0.  0.
         25    1    1    2    0    0  0.43204310900E+01 -0.40392054115E+02 -0.18639533251E+03  0.22807543520E+03  0.12500000000E+03 0.  0.
</event>
<event>
 5    0  0.5875996E-005  0.3557918E+03  0.7546771E-02  0.1060263E+00
         21   -1    0    0  502  501  0.00000000000E+00  0.00000000000E+00  0.89146224266E+03  0.89146224266E+03  0.00000000000E+00 0. -1.
         21   -1    0    0  501  502 -0.00000000000E+00 -0.00000000000E+00 -0.14200016716E+03  0.14200016716E+03  0.00000000000E+00 0. -1.
         25    1    1    2    0    0  0.12299243264E+03  0.18508654879E+03  0.39704200094E+03  0.47185963967E+03  0.12500000000E+03 0.  0.
         25    1    1    2    0    0 -0.92392078789E+02 -0.28604849947E+02  0.34542304839E+01  0.15808689184E+03  0.12500000000E+03 0.  0.
         25    1    1    2    0    0 -0.30600353855E+02 -0.15648169884E+03  0.34896584406E+03  0.40351587831E+03  0.12500000000E+03 0.  0.
</event>
<event>
 5    0  0.5660959E-005  0.4860896E+03  0.7546771E-02  0.1017475E+00
         21   -1    0    0  502  501  0.00000000000E+00  0.00000000000E+00  0.43836571639E+03  0.43836571639E+03  0.00000000000E+00 0. -1.
         21   -1    0    0  501  502 -0.00000000000E+00 -0.00000000000E+00 -0.53900914340E+03  0.53900914340E+03  0.00000000000E+00 0. -1.
         25    1    1    2    0    0 -0.19550811100E+03  0.15753158236E+03  0.67551442961E+02  0.28849231940E+03  0.12500000000E+03 0.  0.
         25    1    1    2    0    0 -0.96302277462E+02  0.47245633922E+02  0.12819021609E+03  0.20871993213E+03  0.12500000000E+03 0.  0.
         25    1    1    2    0    0  0.29181038846E+03 -0.20477721628E+03 -0.29638508606E+03  0.48016260825E+03  0.12500000000E+03 0.  0.
</event>
<event>
 5    0  0.5660959E-005  0.3554531E+03  0.7546771E-02  0.1060399E+00
         21   -1    0    0  502  501  0.00000000000E+00  0.00000000000E+00  0.42225187190E+03  0.42225187190E+03  0.00000000000E+00 0. -1.
         21   -1    0    0  501  502 -0.00000000000E+00 -0.00000000000E+00 -0.29922164750E+03  0.29922164750E+03  0.00000000000E+00 0. -1.
         25    1    1    2    0    0  0.11082358523E+03 -0.11094351864E+03  0.21214864816E+03  0.29192872467E+03  0.12500000000E+03 0.  0.
         25    1    1    2    0    0 -0.97913750273E+02  0.16957063330E+03 -0.15165605320E+03  0.27742721683E+03  0.12500000000E+03 0.  0.
         25    1    1    2    0    0 -0.12909834959E+02 -0.58627114650E+02  0.62537629437E+02  0.15211757790E+03  0.12500000000E+03 0.  0.
</event>
<event>
 5    0  0.5660959E-005  0.2516802E+03  0.7546771E-02  0.1112248E+00
         21   -1    0    0  502  501  0.00000000000E+00  0.00000000000E+00  0.92975421287E+02  0.92975421287E+02  0.00000000000E+00 0.  1.
         21   -1    0    0  501  502 -0.00000000000E+00 -0.00000000000E+00 -0.68128692191E+03  0.68128692191E+03  0.00000000000E+00 0.  1.
         25    1    1    2    0    0 -0.47009947734E+02  0.12867073302E+03 -0.25018294114E+03  0.31142028958E+03  0.12500000000E+03 0.  0.
         25    1    1    2    0    0 -0.20703302290E+02 -0.80722813136E+02 -0.24140838681E+03  0.28433749051E+03  0.12500000000E+03 0.  0.
         25    1    1    2    0    0  0.67713250024E+02 -0.47947919881E+02 -0.96720172668E+02  0.17850456311E+03  0.12500000000E+03 0.  0.
</event>
<event>
 5    0  0.8237245E-005  0.2732970E+03  0.7546771E-02  0.1099407E+00
         21   -1    0    0  502  501  0.00000000000E+00  0.00000000000E+00  0.31640957021E+03  0.31640957021E+03  0.00000000000E+00 0.  1.
         21   -1    0    0  501  502 -0.00000000000E+00 -0.00000000000E+00 -0.23605867190E+03  0.23605867190E+03  0.00000000000E+00 0.  1.
         25    1    1    2    0    0 -0.71595246190E+01  0.15743177847E+03  0.10144268685E+03  0.22528125173E+03  0.12500000000E+03 0.  0.
         25    1    1    2    0    0 -0.53054899425E+02 -0.10253602850E+03  0.22740063146E+02  0.17166994485E+03  0.12500000000E+03 0.  0.
         25    1    1    2    0    0  0.60214424044E+02 -0.54895749973E+02 -0.43831851687E+02  0.15551704553E+03  0.12500000000E+03 0.  0.
</event>
<event>
 5    0  0.5660959E-005  0.3336716E+03  0.7546771E-02  0.1069524E+00
         21   -1    0    0  502  501  0.00000000000E+00  0.00000000000E+00  0.14159229847E+04  0.14159229847E+04  0.00000000000E+00 0.  1.
         21   -1    0    0  501  502 -0.00000000000E+00 -0.00000000000E+00 -0.78631898465E+02  0.78631898465E+02  0.00000000000E+00 0.  1.
         25    1    1    2    0    0 -0.16094832748E+03 -0.69229237199E+02  0.46186860631E+03  0.50955339357E+03  0.12500000000E+03 0.  0.
         25    1    1    2    0    0  0.22434633594E+03 -0.51617241051E+00  0.71986569434E+03  0.76430567364E+03  0.12500000000E+03 0.  0.
         25    1    1    2    0    0 -0.63398008456E+02  0.69745409610E+02  0.15555678560E+03  0.22069581596E+03  0.12500000000E+03 0.  0.
</event>
<event>
 5    0  0.5962541E-005  0.3800334E+03  0.7546771E-02  0.1050921E+00
         21   -1    0    0  502  501  0.00000000000E+00  0.00000000000E+00  0.47635558684E+03  0.47635558684E+03  0.00000000000E+00 0.  1.
         21   -1    0    0  501  502 -0.00000000000E+00 -0.00000000000E+00 -0.30318821780E+03  0.30318821780E+03  0.00000000000E+00 0.  1.
         25    1    1    2    0    0  0.15013514316E+03  0.11572170305E+03  0.65622058795E+02  0.23635424339E+03  0.12500000000E+03 0.  0.
         25    1    1    2    0    0 -0.16389802027E+03 -0.17114598187E+03  0.23453786480E+03  0.35607094544E+03  0.12500000000E+03 0.  0.
         25    1    1    2    0    0  0.13762877108E+02  0.55424278823E+02 -0.12699255456E+03  0.18711861581E+03  0.12500000000E+03 0.  0.
</event>
<event>
 5    0  0.5660959E-005  0.2193222E+03  0.7546771E-02  0.1134389E+00
         21   -1    0    0  502  501  0.00000000000E+00  0.00000000000E+00  0.14538552321E+03  0.14538552321E+03  0.00000000000E+00 0.  1.
         21   -1    0    0  501  502 -0.00000000000E+00 -0.00000000000E+00 -0.33085979054E+03  0.33085979054E+03  0.00000000000E+00 0.  1.
         25    1    1    2    0    0  0.13064666211E+02 -0.26076165167E+02  0.36117787327E+02  0.13334221557E+03  0.12500000000E+03 0.  0.
         25    1    1    2    0    0 -0.42285316985E+02  0.10534651481E+02 -0.11188578781E+03  0.17332759857E+03  0.12500000000E+03 0.  0.
         25    1    1    2    0    0  0.29220650774E+02  0.15541513686E+02 -0.10970626685E+03  0.16957549961E+03  0.12500000000E+03 0.  0.
</event>
<event>
 5    0  0.5660959E-005  0.3886692E+03  0.7546771E-02  0.1047775E+00
         21   -1    0    0  502  501  0.00000000000E+00  0.00000000000E+00  0.62073413926E+03  0.62073413926E+03  0.00000000000E+00 0. -1.
         21   -1    0    0  501  502 -0.00000000000E+00 -0.00000000000E+00 -0.24336299326E+03  0.24336299326E+03  0.00000000000E+00 0. -1.
         25    1    1    2    0    0 -0.81293767493E+02  0.25519321357E+03 -0.34311081551E+02  0.29754748058E+03  0.12500000000E+03 0.  0.
         25    1    1    2    0    0 -0.10097661266E+02 -0.11687843135E+03  0.12313972968E+03  0.21107089687E+03  0.12500000000E+03 0.  0.
         25    1    1    2    0    0  0.91391428759E+02 -0.13831478222E+03  0.28854249787E+03  0.35547875507E+03  0.12500000000E+03 0.  0.
</event>
<event>
 5    0  0.5660959E-005  0.2841981E+03  0.7546771E-02  0.1093418E+00
         21   -1    0    0  502  501  0.00000000000E+00  0.00000000000E+00  0.40842576560E+02  0.40842576560E+02  0.00000000000E+00 0. -1.
         21   -1    0    0  501  502 -0.00000000000E+00 -0.00000000000E+00 -0.19775575511E+04  0.19775575511E+04  0.00000000000E+00 0. -1.
         25    1    1    2    0    0  0.10485094747E+03  0.53911460057E+01 -0.68151701190E+03  0.70079470828E+03  0.12500000000E+03 0.  0.
         25    1    1    2    0    0  0.28433446219E+02 -0.11045358755E+03 -0.35793999447E+03  0.39592233520E+03  0.12500000000E+03 0.  0.
         25    1    1    2    0    0 -0.13328439369E+03  0.10506244155E+03 -0.89725796816E+03  0.92168308418E+03  0.12500000000E+03 0.  0.
</event>
<event>
 5    0  0.5876359E-005  0.3256196E+03  0.7546771E-02  0.1073092E+00
         21   -1    0    0  502  501  0.00000000000E+00  0.00000000000E+00  0.69313594765E+03  0.69313594765E+03  0.00000000000E+00 0. -1.
         21   -1    0    0  501  502 -0.00000000000E+00 -0.00000000000E+00 -0.15296869572E+03  0.15296869572E+03  0.00000000000E+00 0. -1.
         25    1    1    2    0    0 -0.76334385569E+02 -0.11739478403E+03  0.17498832542E+03  0.25662109767E+03  0.12500000000E+03 0.  0.
         25    1    1    2    0    0  0.13222278429E+03  0.37222079001E+01  0.36904587768E+03  0.41148095867E+03  0.12500000000E+03 0.  0.
         25    1    1    2    0    0 -0.55888398720E+02  0.11367257613E+03 -0.38669511607E+01  0.17800258702E+03  0.12500000000E+03 0.  0.
</event>
<event>
 5    0  0.5660959E-005  0.2943522E+03  0.7546771E-02  0.1088098E+00
         21   -1    0    0  502  501  0.00000000000E+00  0.00000000000E+00  0.14765540318E+03  0.14765540318E+03  0.00000000000E+00 0.  1.
         21   -1    0    0  501  502 -0.00000000000E+00 -0.00000000000E+00 -0.58679330615E+03  0.58679330615E+03  0.00000000000E+00 0.  1.
         25    1    1    2    0    0  0.12238829961E+02 -0.75082809902E+02 -0.36774452904E+03  0.39578814528E+03  0.12500000000E+03 0.  0.
         25    1    1    2    0    0  0.28273225612E+02  0.34348032944E+02  0.62522218919E+02  0.14667375536E+03  0.12500000000E+03 0.  0.
         25    1    1    2    0    0 -0.40512055573E+02  0.40734776958E+02 -0.13391559285E+03  0.19198680869E+03  0.12500000000E+03 0.  0.
</event>
<event>
 5    0  0.5660959E-005  0.4351131E+03  0.7546771E-02  0.1032257E+00
         21   -1    0    0  502  501  0.00000000000E+00  0.00000000000E+00  0.24361355390E+03  0.24361355390E+03  0.00000000000E+00 0.  1.
         21   -1    0    0  501  502 -0.00000000000E+00 -0.00000000000E+00 -0.77714654910E+03  0.77714654910E+03  0.00000000000E+00 0.  1.
         25    1    1    2    0    0 -0.92040175996E+02 -0.19396535693E+02 -0.28788749728E+03  0.32764589221E+03  0.12500000000E+03 0.  0.
         25    1    1    2    0    0  0.10189155874E+03 -0.10125695732E+03 -0.41106304408E+03  0.45302614423E+03  0.12500000000E+03 0.  0.
         25    1    1    2    0    0 -0.98513827412E+01  0.12065349301E+03  0.16541754617E+03  0.24008806655E+03  0.12500000000E+03 0.  0.
</event>
<event>
 5    0  0.5660959E-005  0.3516794E+03  0.7546771E-02  0.1061928E+00
         21   -1    0    0  502  501  0.00000000000E+00  0.00000000000E+00  0.10252411611E+04  0.10252411611E+04  0.00000000000E+00 0.  1.
         21   -1    0    0  501  502 -0.00000000000E+00 -0.00000000000E+00 -0.12063348176E+03  0.12063348176E+03  0.00000000000E+00 0.  1.
         25    1    1    2    0    0  0.23429720082E+02 -0.55264971253E+02  0.45436764018E+03  0.47505591384E+03  0.12500000000E+03 0.  0.
         25    1    1    2    0    0 -0.82134068758E+02 -0.17358109161E+03  0.22749730526E+03  0.32288763451E+03  0.12500000000E+03 0.  0.
         25    1    1    2    0    0  0.58704348675E+02  0.22884606286E+03  0.22274273393E+03  0.34793109456E+03  0.12500000000E+03 0.  0.
</event>
<event>
 5    0  0.5921216E-005  0.3940733E+03  0.7546771E-02  0.1045851E+00
         21   -1    0    0  502  501  0.00000000000E+00  0.00000000000E+00  0.14102141532E+03  0.14102141532E+03  0.00000000000E+00 0.  1.
         21   -1    0    0  501  502 -0.00000000000E+00 -0.00000000000E+00 -0.11012070090E+04  0.11012070090E+04  0.00000000000E+00 0.  1.
         25    1    1    2    0    0  0.27040370055E+02  0.24823002809E+03 -0.60369347098E+03  0.66514670213E+03  0.12500000000E+03 0.  0.
         25    1    1    2    0    0 -0.60615955523E+02 -0.24093435693E+02 -0.56610839927E+01  0.14110930366E+03  0.12500000000E+03 0.  0.
         25    1    1    2    0    0  0.33575585468E+02 -0.22413659240E+03 -0.35083103867E+03  0.43597241849E+03  0.12500000000E+03 0.  0.
</event>
<event>
 5    0  0.5660959E-005  0.4730494E+03  0.7546771E-02  0.1021063E+00
         21   -1    0    0  502  501  0.00000000000E+00  0.00000000000E+00  0.98646620154E+02  0.98646620154E+02  0.00000000000E+00 0. -1.
         21   -1    0    0  501  502 -0.00000000000E+00 -0.00000000000E+00 -0.22684580942E+04  0.22684580942E+04  0.00000000000E+00 0. -1.
         25    1    1    2    0    0  0.21842688343E+03 -0.85308804856E+02 -0.58972751903E+03  0.64683185009E+03  0.12500000000E+03 0.  0.
         25    1    1    2    0    0 -0.15216894957E+03 -0.17304523471E+03 -0.26558479402E+03  0.37317599773E+03  0.12500000000E+03 0.  0.
         25    1    1    2    0    0 -0.66257933858E+02  0.25835403956E+03 -0.13144991610E+04  0.13470968665E+04  0.12500000000E+03 0.  0.
</event>
<event>
 5    0  0.5660959E-005  0.3206824E+03  0.7546771E-02  0.1075336E+00
         21   -1    0    0  502  501  0.00000000000E+00  0.00000000000E+00  0.58790531992E+03  0.58790531992E+03  0.00000000000E+00 0.  1.
         21   -1    0    0  501  502 -0.00000000000E+00 -0.00000000000E+00 -0.17492139990E+03  0.17492139990E+03  0.00000000000E+00 0.  1.
         25    1    1    2    0    0 -0.21166770150E+02  0.20076129264E+03  0.14007223987E+03  0.27567800269E+03  0.12500000000E+03 0.  0.
         25    1    1    2    0    0  0.39544617372E+02 -0.16209044582E+03  0.29994708302E+02  0.21062234429E+03  0.12500000000E+03 0.  0.
         25    1    1    2    0    0 -0.18377847222E+02 -0.38670846820E+02  0.24291697184E+03  0.27652637283E+03  0.12500000000E+03 0.  0.
</event>
<event>
 5    0  0.5660959E-005  0.3365455E+03  0.7546771E-02  0.1068277E+00
         21   -1    0    0  502  501  0.00000000000E+00  0.00000000000E+00  0.14335326488E+03  0.14335326488E+03  0.00000000000E+00 0.  1.
         21   -1    0    0  501  502 -0.00000000000E+00 -0.00000000000E+00 -0.79009645811E+03  0.79009645811E+03  0.00000000000E+00 0.  1.
         25    1    1    2    0    0 -0.18610113283E+03 -0.12514519742E+03 -0.38548033179E+03  0.46315768187E+03  0.12500000000E+03 0.  0.
         25    1    1    2    0    0  0.20713509254E+03  0.63706004921E+02 -0.16840644794E+03  0.30157774011E+03  0.12500000000E+03 0.  0.
         25    1    1    2    0    0 -0.21033959712E+02  0.61439192495E+02 -0.92856413507E+02  0.16871430101E+03  0.12500000000E+03 0.  0.
</event>
<event>
 5    0  0.7001565E-005  0.2825415E+03  0.7546771E-02  0.1094309E+00
         21   -1    0    0  502  501  0.00000000000E+00  0.00000000000E+00  0.21488723918E+03  0.21488723918E+03  0.00000000000E+00 0. -1.
         21   -1    0    0  501  502 -0.00000000000E+00 -0.00000000000E+00 -0.37149582914E+03  0.37149582914E+03  0.00000000000E+00 0. -1.
         25    1    1    2    0    0  0.33121605519E+02 -0.78982309992E+02  0.43325364318E+02  0.15759864605E+03  0.12500000000E+03 0.  0.
         25    1    1    2    0    0 -0.96363319368E+02  0.60165317884E+02 -0.22892624175E+03  0.28449600868E+03  0.12500000000E+03 0.  0.
         25    1    1    2    0    0  0.63241713849E+02  0.18816992108E+02  0.28992287463E+02  0.14428841358E+03  0.12500000000E+03 0.  0.
</event>
<event>
 5    0  0.5660959E-005  0.3190543E+03  0.7546771E-02  0.1076085E+00
         21   -1    0    0  502  501  0.00000000000E+00  0.00000000000E+00  0.47863925867E+03  0.47863925867E+03  0.00000000000E+00 0. -1.
         21   -1    0    0  501  502 -0.00000000000E+00 -0.00000000000E+00 -0.21267712499E+03  0.21267712499E+03  0.00000000000E+00 0. -1.
         25    1    1    2    0    0 -0.97865502171E+02 -0.60668315220E+02 -0.57356765454E+02  0.17936861356E+03  0.12500000000E+03 0.  0.
         25    1    1    2    0    0  0.15165673713E+03 -0.93883932726E+01  0.57112690528E+02  0.20487744450E+03  0.12500000000E+03 0.  0.
         25    1    1    2    0    0 -0.53791234961E+02  0.70056708492E+02  0.26620620861E+03  0.30707032560E+03  0.12500000000E+03 0.  0.
</event>
<event>
 5    0  0.5660959E-005  0.4412546E+03  0.7546771E-02  0.1030363E+00
         21   -1    0    0  502  501  0.00000000000E+00  0.00000000000E+00  0.86510366320E+03  0.86510366320E+03  0.00000000000E+00 0.  1.
         21   -1    0    0  501  502 -0.00000000000E+00 -0.00000000000E+00 -0.22506625053E+03  0.22506625053E+03  0.00000000000E+00 0.  1.
         25    1    1    2    0    0  0.31009924486E+03  0.20162072080E+01  0.90004738251E+02  0.34625346159E+03  0.12500000000E+03 0.  0.
         25    1    1    2    0    0 -0.26044037051E+03 -0.12343544899E+03  0.29409670253E+03  0.43032937048E+03  0.12500000000E+03 0.  0.
         25    1    1    2    0    0 -0.49658874348E+02  0.12141924178E+03  0.25593597189E+03  0.31358708166E+03  0.12500000000E+03 0.  0.
</event>
<event>
 5    0  0.1282202E-004  0.1067005E+04  0.7546771E-02  0.9237962E-01
         21   -1    0    0  502  501  0.00000000000E+00  0.00000000000E+00  0.10901310593E+04  0.10901310593E+04  0.00000000000E+00 0.  1.
         21   -1    0    0  501  502 -0.00000000000E+00 -0.00000000000E+00 -0.10443689139E+04  0.10443689139E+04  0.00000000000E+00 0.  1.
         25    1    1    2    0    0 -0.60300529117E+03 -0.30451940154E+03  0.55078030026E+03  0.88052903771E+03  0.12500000000E+03 0.  0.
         25    1    1    2    0    0 -0.17708462212E+03  0.14413762590E+03 -0.34483596665E+03  0.43205492994E+03  0.12500000000E+03 0.  0.
         25    1    1    2    0    0  0.78008991329E+03  0.16038177564E+03 -0.16018218821E+03  0.82191600556E+03  0.12500000000E+03 0.  0.
</event>
<event>
 5    0  0.5660959E-005  0.2376415E+03  0.7546771E-02  0.1121374E+00
         21   -1    0    0  502  501  0.00000000000E+00  0.00000000000E+00  0.27911329655E+03  0.27911329655E+03  0.00000000000E+00 0.  1.
         21   -1    0    0  501  502 -0.00000000000E+00 -0.00000000000E+00 -0.20233171835E+03  0.20233171835E+03  0.00000000000E+00 0.  1.
         25    1    1    2    0    0  0.43725855533E+02  0.98763473016E+02 -0.74838960655E+00  0.16520210087E+03  0.12500000000E+03 0.  0.
         25    1    1    2    0    0 -0.25762781030E+02 -0.47525527471E+02 -0.33739282336E+02  0.14030586524E+03  0.12500000000E+03 0.  0.
         25    1    1    2    0    0 -0.17963074503E+02 -0.51237945544E+02  0.11126925014E+03  0.17593704879E+03  0.12500000000E+03 0.  0.
</event>
<event>
 5    0  0.5660959E-005  0.2305409E+03  0.7546771E-02  0.1126260E+00
         21   -1    0    0  502  501  0.00000000000E+00  0.00000000000E+00  0.12785484539E+03  0.12785484539E+03  0.00000000000E+00 0. -1.
         21   -1    0    0  501  502 -0.00000000000E+00 -0.00000000000E+00 -0.41569864748E+03  0.41569864748E+03  0.00000000000E+00 0. -1.
         25    1    1    2    0    0  0.69150616746E+02 -0.61051843240E+02 -0.17005926216E+02  0.15627967522E+03  0.12500000000E+03 0.  0.
         25    1    1    2    0    0 -0.20988692672E+02  0.31908605488E+02 -0.18141661376E+03  0.22359712000E+03  0.12500000000E+03 0.  0.
         25    1    1    2    0    0 -0.48161924074E+02  0.29143237752E+02 -0.89421262110E+02  0.16367669765E+03  0.12500000000E+03 0.  0.
</event>
<event>
 5    0  0.5660959E-005  0.2370285E+03  0.7546771E-02  0.1121788E+00
         21   -1    0    0  502  501  0.00000000000E+00  0.00000000000E+00  0.10713024618E+04  0.10713024618E+04  0.00000000000E+00 0. -1.
         21   -1    0    0  501  502 -0.00000000000E+00 -0.00000000000E+00 -0.52443197985E+02  0.52443197985E+02  0.00000000000E+00 0. -1.
         25    1    1    2    0    0  0.37222581825E+02  0.48504040855E+02  0.22222576952E+03  0.26219735928E+03  0.12500000000E+03 0.  0.
         25    1    1    2    0    0  0.13566344043E+02  0.38547859188E+02  0.56234077257E+03  0.57751374671E+03  0.12500000000E+03 0.  0.
         25    1    1    2    0    0 -0.50788925868E+02 -0.87051900042E+02  0.23429272168E+03  0.28403455375E+03  0.12500000000E+03 0.  0.
</event>
<event>
 5    0  0.5660959E-005  0.2635146E+03  0.7546771E-02  0.1105050E+00
         21   -1    0    0  502  501  0.00000000000E+00  0.00000000000E+00  0.11942327811E+03  0.11942327811E+03  0.00000000000E+00 0. -1.
         21   -1    0    0  501  502 -0.00000000000E+00 -0.00000000000E+00 -0.58146069901E+03  0.58146069901E+03  0.00000000000E+00 0. -1.
         25    1    1    2    0    0 -0.92968604558E+02 -0.35306159951E+02 -0.34221912079E+03  0.37766203542E+03  0.12500000000E+03 0.  0.
         25    1    1    2    0    0 -0.58399486492E+01 -0.28730427494E+02 -0.47617451748E+02  0.13693781134E+03  0.12500000000E+03 0.  0.
         25    1    1    2    0    0  0.98808553207E+02  0.64036587445E+02 -0.72200848366E+02  0.18628413036E+03  0.12500000000E+03 0.  0.
</event>
<event>
 5    0  0.5660959E-005  0.2412797E+03  0.7546771E-02  0.1118943E+00
         21   -1    0    0  502  501  0.00000000000E+00  0.00000000000E+00  0.29485577818E+03  0.29485577818E+03  0.00000000000E+00 0. -1.
         21   -1    0    0  501  502 -0.00000000000E+00 -0.00000000000E+00 -0.19743857061E+03  0.19743857061E+03  0.00000000000E+00 0. -1.
         25    1    1    2    0    0  0.11867088849E+03 -0.26456818730E+02  0.32527197606E+02  0.17738591155E+03  0.12500000000E+03 0.  0.
         25    1    1    2    0    0  0.10342036415E+02  0.21727981210E+02  0.13519633810E+02  0.12801110648E+03  0.12500000000E+03 0.  0.
         25    1    1    2    0    0 -0.12901292491E+03  0.47288375201E+01  0.51370376158E+02  0.18689733076E+03  0.12500000000E+03 0.  0.
</event>
<event>
 5    0  0.5660959E-005  0.3618093E+03  0.7546771E-02  0.1057870E+00
         21   -1    0    0  502  501  0.00000000000E+00  0.00000000000E+00  0.24572513445E+03  0.24572513445E+03  0.00000000000E+00 0.  1.
         21   -1    0    0  501  502 -0.00000000000E+00 -0.00000000000E+00 -0.53273321878E+03  0.53273321878E+03  0.00000000000E+00 0.  1.
         25    1    1    2    0    0  0.21521470901E+03  0.11388062681E+03 -0.31413946711E+03  0.41664706039E+03  0.12500000000E+03 0.  0.
         25    1    1    2    0    0 -0.11038230851E+03 -0.10271052271E+03  0.30725905165E+02  0.19824930455E+03  0.12500000000E+03 0.  0.
         25    1    1    2    0    0 -0.10483240050E+03 -0.11170104100E+02 -0.35945223839E+01  0.16356198828E+03  0.12500000000E+03 0.  0.
</event>
<event>
 5    0  0.5660959E-005  0.3331361E+03  0.7546771E-02  0.1069758E+00
         21   -1    0    0  502  501  0.00000000000E+00  0.00000000000E+00  0.13607776972E+04  0.13607776972E+04  0.00000000000E+00 0. -1.
         21   -1    0    0  501  502 -0.00000000000E+00 -0.00000000000E+00 -0.81556046236E+02  0.81556046236E+02  0.00000000000E+00 0. -1.
         25    1    1    2    0    0 -0.14050153396E+03  0.49729730861E+02  0.70434757724E+03  0.73071488061E+03  0.12500000000E+03 0.  0.
         25    1    1    2    0    0  0.15233541811E+03 -0.18495456660E+02  0.10458317477E+03  0.22385442138E+03  0.12500000000E+03 0.  0.
         25    1    1    2    0    0 -0.11833884152E+02 -0.31234274201E+02  0.47029089894E+03  0.48776444143E+03  0.12500000000E+03 0.  0.
</event>
<event>
 5    0  0.5799086E-005  0.3851153E+03  0.7546771E-02  0.1049059E+00
         21   -1    0    0  502  501  0.00000000000E+00  0.00000000000E+00  0.23353645108E+03  0.23353645108E+03  0.00000000000E+00 0. -1.
         21   -1    0    0  501  502 -0.00000000000E+00 -0.00000000000E+00 -0.63507778768E+03  0.63507778768E+03  0.00000000000E+00 0. -1.
         25    1    1    2    0    0 -0.12202850984E+03 -0.12816445184E+03 -0.96916459557E+02  0.23734970837E+03  0.12500000000E+03 0.  0.
         25    1    1    2    0    0  0.17794298784E+03  0.23894670147E+03 -0.58078538323E+02  0.32826414620E+03  0.12500000000E+03 0.  0.
         25    1    1    2    0    0 -0.55914478005E+02 -0.11078224963E+03 -0.24654633872E+03  0.30300038419E+03  0.12500000000E+03 0.  0.
</event>
<event>
 5    0  0.6550709E-005  0.5292277E+03  0.7546771E-02  0.1006420E+00
         21   -1    0    0  502  501  0.00000000000E+00  0.00000000000E+00  0.56384421618E+03  0.56384421618E+03  0.00000000000E+00 0.  1.
         21   -1    0    0  501  502 -0.00000000000E+00 -0.00000000000E+00 -0.49673640607E+03  0.49673640607E+03  0.00000000000E+00 0.  1.
         25    1    1    2    0    0 -0.69222569250E+01  0.24109311750E+03  0.34884218270E+03  0.44214214612E+03  0.12500000000E+03 0.  0.
         25    1    1    2    0    0  0.17687800567E+03 -0.25798223577E+03 -0.19869645165E+03  0.39108303819E+03  0.12500000000E+03 0.  0.
         25    1    1    2    0    0 -0.16995574875E+03  0.16889118267E+02 -0.83037920938E+02  0.22735543794E+03  0.12500000000E+03 0.  0.
</event>
<event>
 5    0  0.5660959E-005  0.6837653E+03  0.7546771E-02  0.9745406E-01
         21   -1    0    0  502  501  0.00000000000E+00  0.00000000000E+00  0.41773464281E+03  0.41773464281E+03  0.00000000000E+00 0. -1.
         21   -1    0    0  501  502 -0.00000000000E+00 -0.00000000000E+00 -0.11192153702E+04  0.11192153702E+04  0.00000000000E+00 0. -1.
         25    1    1    2    0    0 -0.18742165205E+03 -0.50912945022E+03 -0.41877681946E+03  0.69666254188E+03  0.12500000000E+03 0.  0.
         25    1    1    2    0    0  0.24671374349E+03  0.55972428335E+03 -0.15017283262E+03  0.64213380557E+03  0.12500000000E+03 0.  0.
         25    1    1    2    0    0 -0.59292091439E+02 -0.50594833125E+02 -0.13253107530E+03  0.19815366554E+03  0.12500000000E+03 0.  0.
</event>
<event>
 5    0  0.5660959E-005  0.2712531E+03  0.7546771E-02  0.1100565E+00
         21   -1    0    0  502  501  0.00000000000E+00  0.00000000000E+00  0.11923313457E+03  0.11923313457E+03  0.00000000000E+00 0. -1.
         21   -1    0    0  501  502 -0.00000000000E+00 -0.00000000000E+00 -0.61709575771E+03  0.61709575771E+03  0.00000000000E+00 0. -1.
         25    1    1    2    0    0 -0.12395980122E+03 -0.59865984491E+02 -0.15669044220E+03  0.24316015935E+03  0.12500000000E+03 0.  0.
         25    1    1    2    0    0  0.49221932326E+02  0.10360424581E+03 -0.28379764796E+03  0.33063989983E+03  0.12500000000E+03 0.  0.
         25    1    1    2    0    0  0.74737868897E+02 -0.43738261323E+02 -0.57374532978E+02  0.16252883309E+03  0.12500000000E+03 0.  0.
</event>
<event>
 5    0  0.5660959E-005  0.5728911E+03  0.7546771E-02  0.9963301E-01
         21   -1    0    0  502  501  0.00000000000E+00  0.00000000000E+00  0.11918962500E+03  0.11918962500E+03  0.00000000000E+00 0.  1.
         21   -1    0    0  501  502 -0.00000000000E+00 -0.00000000000E+00 -0.27536308484E+04  0.27536308484E+04  0.00000000000E+00 0.  1.
         25    1    1    2    0    0 -0.31954441011E+03  0.14335527708E+03 -0.89443415944E+03  0.96865723095E+03  0.12500000000E+03 0.  0.
         25    1    1    2    0    0  0.15711557962E+03  0.32683699767E+02 -0.15739302027E+04  0.15870207348E+04  0.12500000000E+03 0.  0.
         25    1    1    2    0    0  0.16242883049E+03 -0.17603897685E+03 -0.16607686129E+03  0.31714250772E+03  0.12500000000E+03 0.  0.
</event>
<event>
 5    0  0.5660959E-005  0.3193231E+03  0.7546771E-02  0.1075961E+00
         21   -1    0    0  502  501  0.00000000000E+00  0.00000000000E+00  0.15559068803E+03  0.15559068803E+03  0.00000000000E+00 0.  1.
         21   -1    0    0  501  502 -0.00000000000E+00 -0.00000000000E+00 -0.65535562071E+03  0.65535562071E+03  0.00000000000E+00 0.  1.
         25    1    1    2    0    0 -0.10101094551E+03  0.69590279756E+01  0.35212531049E+02  0.16467107070E+03  0.12500000000E+03 0.  0.
         25    1    1    2    0    0  0.17030827791E+03  0.27946326318E+02 -0.35208525900E+03  0.41155186342E+03  0.12500000000E+03 0.  0.
         25    1    1    2    0    0 -0.69297332401E+02 -0.34905354294E+02 -0.18289220474E+03  0.23472337461E+03  0.12500000000E+03 0.  0.
</event>
<event>
 5    0  0.5660959E-005  0.2289437E+03  0.7546771E-02  0.1127385E+00
         21   -1    0    0  502  501  0.00000000000E+00  0.00000000000E+00  0.30435812736E+03  0.30435812736E+03  0.00000000000E+00 0. -1.
         21   -1    0    0  501  502 -0.00000000000E+00 -0.00000000000E+00 -0.17221554467E+03  0.17221554467E+03  0.00000000000E+00 0. -1.
         25    1    1    2    0    0 -0.22804987137E+02 -0.27777630419E+02  0.75910405238E+01  0.13028541010E+03  0.12500000000E+03 0.  0.
         25    1    1    2    0    0  0.22185696957E+01  0.53975344162E+02 -0.35274769847E+02  0.14066829499E+03  0.12500000000E+03 0.  0.
         25    1    1    2    0    0  0.20586417441E+02 -0.26197713743E+02  0.15982631202E+03  0.20561996693E+03  0.12500000000E+03 0.  0.
</event>
<event>
 5    0  0.5660959E-005  0.4062795E+03  0.7546771E-02  0.1041627E+00
         21   -1    0    0  502  501  0.00000000000E+00  0.00000000000E+00  0.72165200200E+03  0.72165200200E+03  0.00000000000E+00 0. -1.
         21   -1    0    0  501  502 -0.00000000000E+00 -0.00000000000E+00 -0.22872937819E+03  0.22872937819E+03  0.00000000000E+00 0.  1.
         25    1    1    2    0    0  0.10055719320E+03  0.17245670537E+03  0.14924501779E+03  0.27884070662E+03  0.12500000000E+03 0.  0.
         25    1    1    2    0    0  0.18260398956E+03  0.26592829210E+01  0.13141096089E+03  0.25738129192E+03  0.12500000000E+03 0.  0.
         25    1    1    2    0    0 -0.28316118276E+03 -0.17511598829E+03  0.21226664513E+03  0.41415938165E+03  0.12500000000E+03 0.  0.
</event>
<event>
 5    0  0.5660959E-005  0.2997821E+03  0.7546771E-02  0.1085350E+00
         21   -1    0    0  502  501  0.00000000000E+00  0.00000000000E+00  0.79152130629E+03  0.79152130629E+03  0.00000000000E+00 0.  1.
         21   -1    0    0  501  502 -0.00000000000E+00 -0.00000000000E+00 -0.11353998987E+03  0.11353998987E+03  0.00000000000E+00 0.  1.
         25    1    1    2    0    0 -0.66509428278E+02 -0.25329509087E+02  0.64662300934E+02  0.15770637667E+03  0.12500000000E+03 0.  0.
         25    1    1    2    0    0 -0.25214855634E+02 -0.17241333818E+02  0.56500304033E+03  0.57947086908E+03  0.12500000000E+03 0.  0.
         25    1    1    2    0    0  0.91724283913E+02  0.42570842905E+02  0.48315975165E+02  0.16788405041E+03  0.12500000000E+03 0.  0.
</event>
<event>
 5    0  0.5660959E-005  0.2289908E+03  0.7546771E-02  0.1127352E+00
         21   -1    0    0  502  501  0.00000000000E+00  0.00000000000E+00  0.48382451971E+02  0.48382451971E+02  0.00000000000E+00 0.  1.
         21   -1    0    0  501  502 -0.00000000000E+00 -0.00000000000E+00 -0.10837973790E+04  0.10837973790E+04  0.00000000000E+00 0.  1.
         25    1    1    2    0    0 -0.91163017584E+02 -0.20601383986E+02 -0.47369282688E+03  0.49874342806E+03  0.12500000000E+03 0.  0.
         25    1    1    2    0    0  0.30443197259E+02  0.38147564360E+02 -0.38636036647E+03  0.40900043729E+03  0.12500000000E+03 0.  0.
         25    1    1    2    0    0  0.60719820325E+02 -0.17546180373E+02 -0.17536173370E+03  0.22443596564E+03  0.12500000000E+03 0.  0.
</event>
<event>
 5    0  0.5660959E-005  0.5463403E+03  0.7546771E-02  0.1002345E+00
         21   -1    0    0  502  501  0.00000000000E+00  0.00000000000E+00  0.26656846196E+03  0.26656846196E+03  0.00000000000E+00 0. -1.
         21   -1    0    0  501  502 -0.00000000000E+00 -0.00000000000E+00 -0.11197414492E+04  0.11197414492E+04  0.00000000000E+00 0. -1.
         25    1    1    2    0    0  0.37375010570E+02  0.48960647027E+03 -0.55471222997E+03  0.75129358125E+03  0.12500000000E+03 0.  0.
         25    1    1    2    0    0 -0.18268787232E+02 -0.17156956753E+03 -0.73198665243E+02  0.22528406443E+03  0.12500000000E+03 0.  0.
         25    1    1    2    0    0 -0.19106223338E+02 -0.31803690274E+03 -0.22526209203E+03  0.40973226549E+03  0.12500000000E+03 0.  0.
</event>
<event>
 5    0  0.5660959E-005  0.2774833E+03  0.7546771E-02  0.1097071E+00
         21   -1    0    0  502  501  0.00000000000E+00  0.00000000000E+00  0.78559274988E+02  0.78559274988E+02  0.00000000000E+00 0.  1.
         21   -1    0    0  501  502 -0.00000000000E+00 -0.00000000000E+00 -0.98011332400E+03  0.98011332400E+03  0.00000000000E+00 0.  1.
         25    1    1    2    0    0 -0.74928977164E+02 -0.11370762639E+03 -0.35027494069E+03  0.39605720546E+03  0.12500000000E+03 0.  0.
         25    1    1    2    0    0 -0.21687097891E+02  0.11024030501E+03 -0.12940928242E+03  0.21212029003E+03  0.12500000000E+03 0.  0.
         25    1    1    2    0    0  0.96616075056E+02  0.34673213730E+01 -0.42186982590E+03  0.45049510351E+03  0.12500000000E+03 0.  0.
</event>
<event>
 5    0  0.5660959E-005  0.2740663E+03  0.7546771E-02  0.1098975E+00
         21   -1    0    0  502  501  0.00000000000E+00  0.00000000000E+00  0.32767224045E+03  0.32767224045E+03  0.00000000000E+00 0. -1.
         21   -1    0    0  501  502 -0.00000000000E+00 -0.00000000000E+00 -0.22923005217E+03  0.22923005217E+03  0.00000000000E+00 0. -1.
         25    1    1    2    0    0 -0.55365314962E+02  0.12693508085E+03  0.13165293623E+03  0.22833161951E+03  0.12500000000E+03 0.  0.
         25    1    1    2    0    0 -0.26739181777E+01 -0.11731710159E+03 -0.70647268359E+02  0.18543594229E+03  0.12500000000E+03 0.  0.
         25    1    1    2    0    0  0.58039233140E+02 -0.96179792515E+01  0.37436520400E+02  0.14313473082E+03  0.12500000000E+03 0.  0.
</event>
<event>
 5    0  0.5660959E-005  0.2831572E+03  0.7546771E-02  0.1093977E+00
         21   -1    0    0  502  501  0.00000000000E+00  0.00000000000E+00  0.13607284984E+03  0.13607284984E+03  0.00000000000E+00 0.  1.
         21   -1    0    0  501  502 -0.00000000000E+00 -0.00000000000E+00 -0.58922858017E+03  0.58922858017E+03  0.00000000000E+00 0.  1.
         25    1    1    2    0    0  0.42757404270E+02  0.82188105911E+02 -0.26388044402E+03  0.30633473377E+03  0.12500000000E+03 0.  0.
         25    1    1    2    0    0 -0.14194702373E+03  0.45126597728E+01 -0.12291934053E+03  0.22561800885E+03  0.12500000000E+03 0.  0.
         25    1    1    2    0    0  0.99189619455E+02 -0.86700765684E+02 -0.66355945777E+02  0.19334868740E+03  0.12500000000E+03 0.  0.
</event>
<event>
 5    0  0.5660959E-005  0.3106226E+03  0.7546771E-02  0.1080048E+00
         21   -1    0    0  502  501  0.00000000000E+00  0.00000000000E+00  0.95986563515E+03  0.95986563515E+03  0.00000000000E+00 0. -1.
         21   -1    0    0  501  502 -0.00000000000E+00 -0.00000000000E+00 -0.10052072337E+03  0.10052072337E+03  0.00000000000E+00 0. -1.
         25    1    1    2    0    0 -0.18123988345E+03 -0.88084614190E+02  0.52850472453E+03  0.57926594796E+03  0.12500000000E+03 0.  0.
         25    1    1    2    0    0  0.15643207839E+03  0.81384329869E+02  0.16534213045E+03  0.27213493785E+03  0.12500000000E+03 0.  0.
         25    1    1    2    0    0  0.24807805067E+02  0.67002843210E+01  0.16549805680E+03  0.20898547272E+03  0.12500000000E+03 0.  0.
</event>
<event>
 5    0  0.5660959E-005  0.3392686E+03  0.7546771E-02  0.1067108E+00
         21   -1    0    0  502  501  0.00000000000E+00  0.00000000000E+00  0.17876092159E+03  0.17876092159E+03  0.00000000000E+00 0.  1.
         21   -1    0    0  501  502 -0.00000000000E+00 -0.00000000000E+00 -0.64389463044E+03  0.64389463044E+03  0.00000000000E+00 0.  1.
         25    1    1    2    0    0  0.15498820962E+03 -0.37150903405E+02  0.36745155218E+02  0.20585611766E+03  0.12500000000E+03 0.  0.
         25    1    1    2    0    0 -0.84803262839E+02  0.59938331098E+02 -0.10317677244E+03  0.19249582669E+03  0.12500000000E+03 0.  0.
         25    1    1    2    0    0 -0.70184946782E+02 -0.22787427693E+02 -0.39870209164E+03  0.42430360768E+03  0.12500000000E+03 0.  0.
</event>
<event>
 5    0  0.5660959E-005  0.2649101E+03  0.7546771E-02  0.1104229E+00
         21   -1    0    0  502  501  0.00000000000E+00  0.00000000000E+00  0.13395381483E+03  0.13395381483E+03  0.00000000000E+00 0.  1.
         21   -1    0    0  501  502 -0.00000000000E+00 -0.00000000000E+00 -0.52389220934E+03  0.52389220934E+03  0.00000000000E+00 0.  1.
         25    1    1    2    0    0  0.71887705641E+01 -0.52459691570E+02 -0.10487351980E+03  0.17154344294E+03  0.12500000000E+03 0.  0.
         25    1    1    2    0    0  0.13904198367E+03 -0.19707106971E+02 -0.12376943030E+03  0.22508868289E+03  0.12500000000E+03 0.  0.
         25    1    1    2    0    0 -0.14623075424E+03  0.72166798541E+02 -0.16129544441E+03  0.26121389834E+03  0.12500000000E+03 0.  0.
</event>
<event>
 5    0  0.5660959E-005  0.2403376E+03  0.7546771E-02  0.1119568E+00
         21   -1    0    0  502  501  0.00000000000E+00  0.00000000000E+00  0.14819891911E+03  0.14819891911E+03  0.00000000000E+00 0. -1.
         21   -1    0    0  501  502 -0.00000000000E+00 -0.00000000000E+00 -0.38976116066E+03  0.38976116066E+03  0.00000000000E+00 0. -1.
         25    1    1    2    0    0  0.10364593438E+03  0.83646809524E+02 -0.51215228871E+02  0.18970310521E+03  0.12500000000E+03 0.  0.
         25    1    1    2    0    0 -0.59607688173E+02 -0.72798425186E+01 -0.90787164838E+02  0.16575096348E+03  0.12500000000E+03 0.  0.
         25    1    1    2    0    0 -0.44038246207E+02 -0.76366967005E+02 -0.99559847835E+02  0.18250601108E+03  0.12500000000E+03 0.  0.
</event>
<event>
 5    0  0.5660959E-005  0.2467627E+03  0.7546771E-02  0.1115368E+00
         21   -1    0    0  502  501  0.00000000000E+00  0.00000000000E+00  0.12887267789E+03  0.12887267789E+03  0.00000000000E+00 0. -1.
         21   -1    0    0  501  502 -0.00000000000E+00 -0.00000000000E+00 -0.47249611056E+03  0.47249611056E+03  0.00000000000E+00 0. -1.
         25    1    1    2    0    0  0.10094834715E+02  0.12859400147E+03 -0.14886710082E+03  0.23329109844E+03  0.12500000000E+03 0.  0.
         25    1    1    2    0    0 -0.23522605368E+02 -0.60265033644E+02 -0.17351367289E+03  0.22342153416E+03  0.12500000000E+03 0.  0.
         25    1    1    2    0    0  0.13427770653E+02 -0.68328967831E+02 -0.21242658956E+02  0.14465615586E+03  0.12500000000E+03 0.  0.
</event>
<event>
 5    0  0.5660959E-005  0.2759757E+03  0.7546771E-02  0.1097907E+00
         21   -1    0    0  502  501  0.00000000000E+00  0.00000000000E+00  0.28155398716E+03  0.28155398716E+03  0.00000000000E+00 0. -1.
         21   -1    0    0  501  502 -0.00000000000E+00 -0.00000000000E+00 -0.27050787589E+03  0.27050787589E+03  0.00000000000E+00 0. -1.
         25    1    1    2    0    0  0.14635583308E+02 -0.67655463210E+02 -0.24253817079E+02  0.14493001637E+03  0.12500000000E+03 0.  0.
         25    1    1    2    0    0 -0.60791227196E+02 -0.89394269946E+02  0.97629006042E+02  0.19194616856E+03  0.12500000000E+03 0.  0.
         25    1    1    2    0    0  0.46155643888E+02  0.15704973316E+03 -0.62329077693E+02  0.21518567813E+03  0.12500000000E+03 0.  0.
</event>
<event>
 5    0  0.5660959E-005  0.2977546E+03  0.7546771E-02  0.1086368E+00
         21   -1    0    0  502  501  0.00000000000E+00  0.00000000000E+00  0.29416381336E+03  0.29416381336E+03  0.00000000000E+00 0. -1.
         21   -1    0    0  501  502 -0.00000000000E+00 -0.00000000000E+00 -0.30138929891E+03  0.30138929891E+03  0.00000000000E+00 0. -1.
         25    1    1    2    0    0 -0.14747217089E+02 -0.80431349474E+02 -0.11007563807E+03  0.18554872268E+03  0.12500000000E+03 0.  0.
         25    1    1    2    0    0 -0.92703487427E+02 -0.22627681796E+02  0.14178770138E+03  0.21174206202E+03  0.12500000000E+03 0.  0.
         25    1    1    2    0    0  0.10745070452E+03  0.10305903127E+03 -0.38937548849E+02  0.19826232758E+03  0.12500000000E+03 0.  0.
</event>
<event>
 5    0  0.5660959E-005  0.3091389E+03  0.7546771E-02  0.1080759E+00
         21   -1    0    0  502  501  0.00000000000E+00  0.00000000000E+00  0.93713785302E+03  0.93713785302E+03  0.00000000000E+00 0. -1.
         21   -1    0    0  501  502 -0.00000000000E+00 -0.00000000000E+00 -0.10197739567E+03  0.10197739567E+03  0.00000000000E+00 0. -1.
         25    1    1    2    0    0  0.71928435041E+02 -0.16737067931E+02  0.46983417536E+03  0.49175500155E+03  0.12500000000E+03 0.  0.
         25    1    1    2    0    0  0.74809217955E+02  0.63405821774E+02  0.29836915528E+03  0.33803235074E+03  0.12500000000E+03 0.  0.
         25    1    1    2    0    0 -0.14673765300E+03 -0.46668753843E+02  0.66957126700E+02  0.20932789639E+03  0.12500000000E+03 0.  0.
</event>
<event>
 5    0  0.5660959E-005  0.2485435E+03  0.7546771E-02  0.1114229E+00
         21   -1    0    0  502  501  0.00000000000E+00  0.00000000000E+00  0.16682085326E+03  0.16682085326E+03  0.00000000000E+00 0.  1.
         21   -1    0    0  501  502 -0.00000000000E+00 -0.00000000000E+00 -0.37030076512E+03  0.37030076512E+03  0.00000000000E+00 0.  1.
         25    1    1    2    0    0 -0.25887639645E+02 -0.83666158913E+02 -0.89666826225E+02  0.17701789672E+03  0.12500000000E+03 0.  0.
         25    1    1    2    0    0  0.20536948477E+02  0.14899900786E+03 -0.35752921667E+02  0.19881081963E+03  0.12500000000E+03 0.  0.
         25    1    1    2    0    0  0.53506911676E+01 -0.65332848947E+02 -0.78060163969E+02  0.16129290203E+03  0.12500000000E+03 0.  0.
</event>
<event>
 5    0  0.5660959E-005  0.2831149E+03  0.7546771E-02  0.1094000E+00
         21   -1    0    0  502  501  0.00000000000E+00  0.00000000000E+00  0.18623779122E+03  0.18623779122E+03  0.00000000000E+00 0.  1.
         21   -1    0    0  501  502 -0.00000000000E+00 -0.00000000000E+00 -0.43038546404E+03  0.43038546404E+03  0.00000000000E+00 0.  1.
         25    1    1    2    0    0 -0.64409171708E+02  0.50968397362E+02 -0.21521711511E+03  0.26208724800E+03  0.12500000000E+03 0.  0.
         25    1    1    2    0    0 -0.37072184035E+02  0.64938283988E+02  0.27601862407E+02  0.14825043125E+03  0.12500000000E+03 0.  0.
         25    1    1    2    0    0  0.10148135574E+03 -0.11590668135E+03 -0.56532420124E+02  0.20628557601E+03  0.12500000000E+03 0.  0.
</event>
<event>
 5    0  0.5660959E-005  0.2955299E+03  0.7546771E-02  0.1087497E+00
         21   -1    0    0  502  501  0.00000000000E+00  0.00000000000E+00  0.14678934317E+03  0.14678934317E+03  0.00000000000E+00 0. -1.
         21   -1    0    0  501  502 -0.00000000000E+00 -0.00000000000E+00 -0.59498807738E+03  0.59498807738E+03  0.00000000000E+00 0. -1.
         25    1    1    2    0    0  0.42270766089E+02 -0.31546417466E+02 -0.27671450565E+03  0.30818486620E+03  0.12500000000E+03 0.  0.
         25    1    1    2    0    0  0.63805381474E+02 -0.10999455052E+03 -0.49680770010E+02  0.18510296259E+03  0.12500000000E+03 0.  0.
         25    1    1    2    0    0 -0.10607614756E+03  0.14154096799E+03 -0.12180345855E+03  0.24848959177E+03  0.12500000000E+03 0.  0.
</event>
<event>
 5    0  0.6137844E-005  0.2657980E+03  0.7546771E-02  0.1103709E+00
         21   -1    0    0  502  501  0.00000000000E+00  0.00000000000E+00  0.40169573629E+03  0.40169573629E+03  0.00000000000E+00 0. -1.
         21   -1    0    0  501  502 -0.00000000000E+00 -0.00000000000E+00 -0.17587582823E+03  0.17587582823E+03  0.00000000000E+00 0. -1.
         25    1    1    2    0    0 -0.81831548733E+02 -0.70815627164E+02 -0.25108915153E+02  0.16723251191E+03  0.12500000000E+03 0.  0.
         25    1    1    2    0    0 -0.29939345160E+02  0.73496943801E+02  0.70450859971E+02  0.16397099990E+03  0.12500000000E+03 0.  0.
         25    1    1    2    0    0  0.11177089389E+03 -0.26813166372E+01  0.18047796324E+03  0.24636805271E+03  0.12500000000E+03 0.  0.
</event>
<event>
 5    0  0.5660959E-005  0.3152988E+03  0.7546771E-02  0.1077833E+00
         21   -1    0    0  502  501  0.00000000000E+00  0.00000000000E+00  0.13814396698E+04  0.13814396698E+04  0.00000000000E+00 0.  1.
         21   -1    0    0  501  502 -0.00000000000E+00 -0.00000000000E+00 -0.71963583814E+02  0.71963583814E+02  0.00000000000E+00 0.  1.
         25    1    1    2    0    0 -0.17742738151E+02 -0.20449118289E+02  0.18203190009E+03  0.22247153491E+03  0.12500000000E+03 0.  0.
         25    1    1    2    0    0  0.24568796482E+02 -0.79850097744E+02  0.78148891398E+02  0.16944590021E+03  0.12500000000E+03 0.  0.
         25    1    1    2    0    0 -0.68260583309E+01  0.10029921603E+03  0.10492952945E+04  0.10614858185E+04  0.12500000000E+03 0.  0.
</event>
<event>
 5    0  0.5689253E-005  0.3295546E+03  0.7546771E-02  0.1071334E+00
         21   -1    0    0  502  501  0.00000000000E+00  0.00000000000E+00  0.46873276232E+03  0.46873276232E+03  0.00000000000E+00 0.  1.
         21   -1    0    0  501  502 -0.00000000000E+00 -0.00000000000E+00 -0.23170177899E+03  0.23170177899E+03  0.00000000000E+00 0.  1.
         25    1    1    2    0    0 -0.79182550789E+02 -0.15146562574E+03 -0.10247778952E+03  0.23524117300E+03  0.12500000000E+03 0.  0.
         25    1    1    2    0    0  0.28545280043E+01  0.99303309506E+02  0.20320681656E+03  0.25843240104E+03  0.12500000000E+03 0.  0.
         25    1    1    2    0    0  0.76328022785E+02  0.52162316233E+02  0.13630195629E+03  0.20676096727E+03  0.12500000000E+03 0.  0.
</event>
<event>
 5    0  0.6596614E-005  0.4875210E+03  0.7546771E-02  0.1017088E+00
         21   -1    0    0  502  501  0.00000000000E+00  0.00000000000E+00  0.11793485351E+04  0.11793485351E+04  0.00000000000E+00 0.  1.
         21   -1    0    0  501  502 -0.00000000000E+00 -0.00000000000E+00 -0.20153219989E+03  0.20153219989E+03  0.00000000000E+00 0.  1.
         25    1    1    2    0    0  0.22771548646E+03  0.11648999144E+03  0.18337171994E+02  0.28528146235E+03  0.12500000000E+03 0.  0.
         25    1    1    2    0    0  0.35968693789E+02 -0.18171924768E+03  0.49623698728E+03  0.54423504063E+03  0.12500000000E+03 0.  0.
         25    1    1    2    0    0 -0.26368418025E+03  0.65229256236E+02  0.46324217595E+03  0.55136423203E+03  0.12500000000E+03 0.  0.
</event>
<event>
 5    0  0.5660959E-005  0.5903250E+03  0.7546771E-02  0.9925684E-01
         21   -1    0    0  502  501  0.00000000000E+00  0.00000000000E+00  0.24599566471E+03  0.24599566471E+03  0.00000000000E+00 0.  1.
         21   -1    0    0  501  502 -0.00000000000E+00 -0.00000000000E+00 -0.14166249097E+04  0.14166249097E+04  0.00000000000E+00 0.  1.
         25    1    1    2    0    0  0.16782728085E+03  0.12070382077E+03 -0.29661819806E+02  0.24339316363E+03  0.12500000000E+03 0.  0.
         25    1    1    2    0    0 -0.10295531685E+02 -0.77113182878E+02  0.89082715453E+02  0.17208477893E+03  0.12500000000E+03 0.  0.
         25    1    1    2    0    0 -0.15753174917E+03 -0.43590637892E+02 -0.12300501407E+04  0.12471426319E+04  0.12500000000E+03 0.  0.
</event>
<event>
 5    0  0.5660959E-005  0.3427386E+03  0.7546771E-02  0.1065636E+00
         21   -1    0    0  502  501  0.00000000000E+00  0.00000000000E+00  0.15699357040E+04  0.15699357040E+04  0.00000000000E+00 0. -1.
         21   -1    0    0  501  502 -0.00000000000E+00 -0.00000000000E+00 -0.74824540630E+02  0.74824540630E+02  0.00000000000E+00 0. -1.
         25    1    1    2    0    0 -0.12291050910E+03 -0.21186181034E+01  0.57464278522E+03  0.60079182118E+03  0.12500000000E+03 0.  0.
         25    1    1    2    0    0  0.10004983274E+03  0.71159959288E+02  0.87500231435E+03  0.89237198463E+03  0.12500000000E+03 0.  0.
         25    1    1    2    0    0  0.22860676363E+02 -0.69041341185E+02  0.45466063851E+02  0.15159643887E+03  0.12500000000E+03 0.  0.
</event>
<event>
 5    0  0.5660959E-005  0.2884584E+03  0.7546771E-02  0.1091157E+00
         21   -1    0    0  502  501  0.00000000000E+00  0.00000000000E+00  0.52095872008E+02  0.52095872008E+02  0.00000000000E+00 0. -1.
         21   -1    0    0  501  502 -0.00000000000E+00 -0.00000000000E+00 -0.15972135473E+04  0.15972135473E+04  0.00000000000E+00 0. -1.
         25    1    1    2    0    0 -0.60514512511E+02 -0.94384526527E+01 -0.15496910487E+03  0.20830629870E+03  0.12500000000E+03 0.  0.
         25    1    1    2    0    0  0.10338552944E+03  0.10080158401E+03 -0.47669918737E+03  0.51353348701E+03  0.12500000000E+03 0.  0.
         25    1    1    2    0    0 -0.42871016925E+02 -0.91363131358E+02 -0.91344938302E+03  0.92746963358E+03  0.12500000000E+03 0.  0.
</event>
<event>
 5    0  0.5660959E-005  0.2100390E+03  0.7546771E-02  0.1141535E+00
         21   -1    0    0  502  501  0.00000000000E+00  0.00000000000E+00  0.25192566248E+03  0.25192566248E+03  0.00000000000E+00 0. -1.
         21   -1    0    0  501  502 -0.00000000000E+00 -0.00000000000E+00 -0.17511660942E+03  0.17511660942E+03  0.00000000000E+00 0. -1.
         25    1    1    2    0    0  0.32494885934E+02  0.90698345083E+01  0.70942165113E+02  0.14763458369E+03  0.12500000000E+03 0.  0.
         25    1    1    2    0    0  0.37073546849E+02 -0.31389282935E+01 -0.25363767784E+02  0.13286316820E+03  0.12500000000E+03 0.  0.
         25    1    1    2    0    0 -0.69568432783E+02 -0.59309062148E+01  0.31230655731E+02  0.14654452001E+03  0.12500000000E+03 0.  0.
</event>
<event>
 5    0  0.5660959E-005  0.4815300E+03  0.7546771E-02  0.1018716E+00
         21   -1    0    0  502  501  0.00000000000E+00  0.00000000000E+00  0.54207570010E+03  0.54207570010E+03  0.00000000000E+00 0.  1.
         21   -1    0    0  501  502 -0.00000000000E+00 -0.00000000000E+00 -0.42774680536E+03  0.42774680536E+03  0.00000000000E+00 0.  1.
         25    1    1    2    0    0 -0.16185610568E+02  0.23569304952E+03 -0.27108587179E+02  0.26865044776E+03  0.12500000000E+03 0.  0.
         25    1    1    2    0    0  0.13012379704E+03 -0.38832298356E+03  0.18963278235E+03  0.46830816164E+03  0.12500000000E+03 0.  0.
         25    1    1    2    0    0 -0.11393818647E+03  0.15262993404E+03 -0.48195300430E+02  0.23286389606E+03  0.12500000000E+03 0.  0.
</event>
<event>
 5    0  0.5660959E-005  0.2469151E+03  0.7546771E-02  0.1115270E+00
         21   -1    0    0  502  501  0.00000000000E+00  0.00000000000E+00  0.12222656397E+04  0.12222656397E+04  0.00000000000E+00 0.  1.
         21   -1    0    0  501  502 -0.00000000000E+00 -0.00000000000E+00 -0.49880357554E+02  0.49880357554E+02  0.00000000000E+00 0.  1.
         25    1    1    2    0    0  0.67023297549E+02  0.38172141204E+02  0.75442263852E+03  0.76858815518E+03  0.12500000000E+03 0.  0.
         25    1    1    2    0    0 -0.67101993428E+02 -0.21863313154E+02  0.15107608999E+03  0.20839785736E+03  0.12500000000E+03 0.  0.
         25    1    1    2    0    0  0.78695879246E-01 -0.16308828050E+02  0.26688655365E+03  0.29515998473E+03  0.12500000000E+03 0.  0.
</event>
<event>
 5    0  0.5660959E-005  0.3867763E+03  0.7546771E-02  0.1048457E+00
         21   -1    0    0  502  501  0.00000000000E+00  0.00000000000E+00  0.19518342297E+03  0.19518342297E+03  0.00000000000E+00 0. -1.
         21   -1    0    0  501  502 -0.00000000000E+00 -0.00000000000E+00 -0.76643770144E+03  0.76643770144E+03  0.00000000000E+00 0. -1.
         25    1    1    2    0    0 -0.15355658811E+03 -0.28820415392E+03 -0.19296017880E+03  0.39937437410E+03  0.12500000000E+03 0.  0.
         25    1    1    2    0    0  0.10857021657E+03  0.15589520747E+03 -0.18743493396E+03  0.29469927402E+03  0.12500000000E+03 0.  0.
         25    1    1    2    0    0  0.44986371545E+02  0.13230894645E+03 -0.19085916571E+03  0.26754747629E+03  0.12500000000E+03 0.  0.
</event>
<event>
 5    0  0.5660959E-005  0.2904539E+03  0.7546771E-02  0.1090112E+00
         21   -1    0    0  502  501  0.00000000000E+00  0.00000000000E+00  0.21496672442E+03  0.21496672442E+03  0.00000000000E+00 0. -1.
         21   -1    0    0  501  502 -0.00000000000E+00 -0.00000000000E+00 -0.39244886498E+03  0.39244886498E+03  0.00000000000E+00 0. -1.
         25    1    1    2    0    0 -0.45886200707E+02  0.29456025678E+02 -0.22996447069E+03  0.26736091458E+03  0.12500000000E+03 0.  0.
         25    1    1    2    0    0  0.11074267392E+03 -0.67859069482E+02  0.69300624949E+02  0.19312268058E+03  0.12500000000E+03 0.  0.
         25    1    1    2    0    0 -0.64856473213E+02  0.38403043804E+02 -0.16818294814E+02  0.14693199424E+03  0.12500000000E+03 0.  0.
</event>
<event>
 5    0  0.5660959E-005  0.6845183E+03  0.7546771E-02  0.9744081E-01
         21   -1    0    0  502  501  0.00000000000E+00  0.00000000000E+00  0.61118494786E+03  0.61118494786E+03  0.00000000000E+00 0.  1.
         21   -1    0    0  501  502 -0.00000000000E+00 -0.00000000000E+00 -0.76665048815E+03  0.76665048815E+03  0.00000000000E+00 0.  1.
         25    1    1    2    0    0  0.44035049173E+02 -0.34717188989E+03 -0.62509034279E+03  0.72720722173E+03  0.12500000000E+03 0.  0.
         25    1    1    2    0    0 -0.47002079944E+02  0.10471058019E+03  0.24064941966E+03  0.29446671171E+03  0.12500000000E+03 0.  0.
         25    1    1    2    0    0  0.29670307707E+01  0.24246130970E+03  0.22897538284E+03  0.35616150258E+03  0.12500000000E+03 0.  0.
</event>
<event>
 5    0  0.5660959E-005  0.3757411E+03  0.7546771E-02  0.1052519E+00
         21   -1    0    0  502  501  0.00000000000E+00  0.00000000000E+00  0.20834662554E+04  0.20834662554E+04  0.00000000000E+00 0.  1.
         21   -1    0    0  501  502 -0.00000000000E+00 -0.00000000000E+00 -0.67762719018E+02  0.67762719018E+02  0.00000000000E+00 0.  1.
         25    1    1    2    0    0 -0.90014029414E+02 -0.57547488585E+02  0.68290340221E+03  0.70242173634E+03  0.12500000000E+03 0.  0.
         25    1    1    2    0    0 -0.14417199606E+03 -0.52326169561E+02  0.20468391124E+03  0.28468244764E+03  0.12500000000E+03 0.  0.
         25    1    1    2    0    0  0.23418602548E+03  0.10987365815E+03  0.11281162229E+04  0.11641247904E+04  0.12500000000E+03 0.  0.
</event>
<event>
 5    0  0.5660959E-005  0.5154247E+03  0.7546771E-02  0.1009829E+00
         21   -1    0    0  502  501  0.00000000000E+00  0.00000000000E+00  0.12935775541E+03  0.12935775541E+03  0.00000000000E+00 0. -1.
         21   -1    0    0  501  502 -0.00000000000E+00 -0.00000000000E+00 -0.20537047643E+04  0.20537047643E+04  0.00000000000E+00 0. -1.
         25    1    1    2    0    0  0.22329563486E+03 -0.20858223261E+03 -0.74991741952E+03  0.81937087110E+03  0.12500000000E+03 0.  0.
         25    1    1    2    0    0  0.14842878957E+03 -0.55048810800E+02 -0.21868642953E+03  0.29750669170E+03  0.12500000000E+03 0.  0.
         25    1    1    2    0    0 -0.37172442443E+03  0.26363104341E+03 -0.95574315985E+03  0.10661849569E+04  0.12500000000E+03 0.  0.
</event>
<event>
 5    0  0.7881759E-005  0.2998613E+03  0.7546771E-02  0.1085310E+00
         21   -1    0    0  502  501  0.00000000000E+00  0.00000000000E+00  0.36489124973E+03  0.36489124973E+03  0.00000000000E+00 0. -1.
         21   -1    0    0  501  502 -0.00000000000E+00 -0.00000000000E+00 -0.24642086135E+03  0.24642086135E+03  0.00000000000E+00 0. -1.
         25    1    1    2    0    0 -0.31981334207E+02  0.17083519563E+03 -0.36591034595E+01  0.21411646093E+03  0.12500000000E+03 0.  0.
         25    1    1    2    0    0 -0.16120139175E+02 -0.13210921038E+03 -0.36294643111E+02  0.18615854392E+03  0.12500000000E+03 0.  0.
         25    1    1    2    0    0  0.48101473382E+02 -0.38725985249E+02  0.15842413495E+03  0.21103710624E+03  0.12500000000E+03 0.  0.
</event>
<event>
 5    0  0.5660959E-005  0.8505884E+03  0.7546771E-02  0.9489548E-01
         21   -1    0    0  502  501  0.00000000000E+00  0.00000000000E+00  0.10932295851E+04  0.10932295851E+04  0.00000000000E+00 0. -1.
         21   -1    0    0  501  502 -0.00000000000E+00 -0.00000000000E+00 -0.66180116704E+03  0.66180116704E+03  0.00000000000E+00 0. -1.
         25    1    1    2    0    0  0.34417088298E+03  0.19039939805E+03  0.56601492737E+03  0.70050226658E+03  0.12500000000E+03 0.  0.
         25    1    1    2    0    0 -0.29367880108E+03 -0.52805102116E+03 -0.26052568718E+03  0.66976395307E+03  0.12500000000E+03 0.  0.
         25    1    1    2    0    0 -0.50492081896E+02  0.33765162311E+03  0.12593917783E+03  0.38476453245E+03  0.12500000000E+03 0.  0.
</event>
<event>
 5    0  0.5660959E-005  0.6266373E+03  0.7546771E-02  0.9851633E-01
         21   -1    0    0  502  501  0.00000000000E+00  0.00000000000E+00  0.24884677065E+04  0.24884677065E+04  0.00000000000E+00 0.  1.
         21   -1    0    0  501  502 -0.00000000000E+00 -0.00000000000E+00 -0.15779765332E+03  0.15779765332E+03  0.00000000000E+00 0.  1.
         25    1    1    2    0    0  0.54899043814E+02  0.43301531832E+03  0.43551351250E+03  0.62913686148E+03  0.12500000000E+03 0.  0.
         25    1    1    2    0    0 -0.74582274395E+02 -0.51807923212E+03  0.14953486020E+04  0.15892328489E+04  0.12500000000E+03 0.  0.
         25    1    1    2    0    0  0.19683230580E+02  0.85063913804E+02  0.39980793863E+03  0.42789564942E+03  0.12500000000E+03 0.  0.
</event>
<event>
 5    0  0.5660959E-005  0.2706002E+03  0.7546771E-02  0.1100937E+00
         21   -1    0    0  502  501  0.00000000000E+00  0.00000000000E+00  0.20700329486E+03  0.20700329486E+03  0.00000000000E+00 0. -1.
         21   -1    0    0  501  502 -0.00000000000E+00 -0.00000000000E+00 -0.35373583365E+03  0.35373583365E+03  0.00000000000E+00 0. -1.
         25    1    1    2    0    0 -0.50488793911E+02  0.71242229252E+02 -0.16768879527E+03  0.22664753605E+03  0.12500000000E+03 0.  0.
         25    1    1    2    0    0  0.52287561409E+02 -0.11350264160E+03 -0.50763371688E+02  0.18389877279E+03  0.12500000000E+03 0.  0.
         25    1    1    2    0    0 -0.17987674978E+01  0.42260412343E+02  0.71719628173E+02  0.15019281967E+03  0.12500000000E+03 0.  0.
</event>
<event>
 5    0  0.5660959E-005  0.2235938E+03  0.7546771E-02  0.1131232E+00
         21   -1    0    0  502  501  0.00000000000E+00  0.00000000000E+00  0.17986004513E+03  0.17986004513E+03  0.00000000000E+00 0.  1.
         21   -1    0    0  501  502 -0.00000000000E+00 -0.00000000000E+00 -0.27796155364E+03  0.27796155364E+03  0.00000000000E+00 0.  1.
         25    1    1    2    0    0 -0.15947248225E+02  0.61066120522E+02 -0.94339835786E+02  0.16884427861E+03  0.12500000000E+03 0.  0.
         25    1    1    2    0    0 -0.48278982481E+02 -0.54275878370E+02  0.21078194729E+02  0.14610277689E+03  0.12500000000E+03 0.  0.
         25    1    1    2    0    0  0.64226230705E+02 -0.67902421519E+01 -0.24839867455E+02  0.14287454327E+03  0.12500000000E+03 0.  0.
</event>
<event>
 5    0  0.5660959E-005  0.2490842E+03  0.7546771E-02  0.1113885E+00
         21   -1    0    0  502  501  0.00000000000E+00  0.00000000000E+00  0.16701217560E+03  0.16701217560E+03  0.00000000000E+00 0. -1.
         21   -1    0    0  501  502 -0.00000000000E+00 -0.00000000000E+00 -0.37148740275E+03  0.37148740275E+03  0.00000000000E+00 0. -1.
         25    1    1    2    0    0  0.12648255417E+03 -0.77921414379E+02 -0.66046836818E+02  0.20507746824E+03  0.12500000000E+03 0.  0.
         25    1    1    2    0    0 -0.75325318474E+02  0.83517089724E+02 -0.76928414611E+02  0.18491075916E+03  0.12500000000E+03 0.  0.
         25    1    1    2    0    0 -0.51157235694E+02 -0.55956753456E+01 -0.61499975720E+02  0.14851135095E+03  0.12500000000E+03 0.  0.
</event>
<event>
 5    0  0.5660959E-005  0.3283593E+03  0.7546771E-02  0.1071865E+00
         21   -1    0    0  502  501  0.00000000000E+00  0.00000000000E+00  0.76082672872E+02  0.76082672872E+02  0.00000000000E+00 0. -1.
         21   -1    0    0  501  502 -0.00000000000E+00 -0.00000000000E+00 -0.14171400635E+04  0.14171400635E+04  0.00000000000E+00 0. -1.
         25    1    1    2    0    0  0.46955490820E+02  0.25832138737E+03 -0.54307349759E+03  0.61602644511E+03  0.12500000000E+03 0.  0.
         25    1    1    2    0    0 -0.19729247461E+02 -0.12710672896E+03 -0.43649087756E+03  0.47190534003E+03  0.12500000000E+03 0.  0.
         25    1    1    2    0    0 -0.27226243359E+02 -0.13121465841E+03 -0.36149301545E+03  0.40529095120E+03  0.12500000000E+03 0.  0.
</event>
<event>
 5    0  0.5660959E-005  0.2930187E+03  0.7546771E-02  0.1088784E+00
         21   -1    0    0  502  501  0.00000000000E+00  0.00000000000E+00  0.32634411181E+03  0.32634411181E+03  0.00000000000E+00 0. -1.
         21   -1    0    0  501  502 -0.00000000000E+00 -0.00000000000E+00 -0.26309638704E+03  0.26309638704E+03  0.00000000000E+00 0. -1.
         25    1    1    2    0    0  0.67527231867E+02  0.12073299358E+03  0.13119141051E+03  0.22797493058E+03  0.12500000000E+03 0.  0.
         25    1    1    2    0    0 -0.16407323516E+02 -0.14732125227E+03  0.24819023057E+02  0.19548333827E+03  0.12500000000E+03 0.  0.
         25    1    1    2    0    0 -0.51119908351E+02  0.26588258695E+02 -0.92762708802E+02  0.16598223000E+03  0.12500000000E+03 0.  0.
</event>
<event>
 5    0  0.5660959E-005  0.6907688E+03  0.7546771E-02  0.9733150E-01
         21   -1    0    0  502  501  0.00000000000E+00  0.00000000000E+00  0.73679158086E+03  0.73679158086E+03  0.00000000000E+00 0. -1.
         21   -1    0    0  501  502 -0.00000000000E+00 -0.00000000000E+00 -0.64762082750E+03  0.64762082750E+03  0.00000000000E+00 0. -1.
         25    1    1    2    0    0  0.16672525558E+03 -0.12070670136E+03 -0.18348505230E+03  0.30275267632E+03  0.12500000000E+03 0.  0.
         25    1    1    2    0    0 -0.38977356488E+03  0.81301250766E+02  0.55780769658E+03  0.69664033161E+03  0.12500000000E+03 0.  0.
         25    1    1    2    0    0  0.22304830930E+03  0.39405450592E+02 -0.28515189093E+03  0.38501940044E+03  0.12500000000E+03 0.  0.
</event>
<event>
 5    0  0.5764651E-005  0.2771498E+03  0.7546771E-02  0.1097256E+00
         21   -1    0    0  502  501  0.00000000000E+00  0.00000000000E+00  0.58743940600E+03  0.58743940600E+03  0.00000000000E+00 0. -1.
         21   -1    0    0  501  502 -0.00000000000E+00 -0.00000000000E+00 -0.13075729098E+03  0.13075729098E+03  0.00000000000E+00 0. -1.
         25    1    1    2    0    0 -0.59906447805E+02  0.26235778494E+02 -0.94979498868E+01  0.14139416400E+03  0.12500000000E+03 0.  0.
         25    1    1    2    0    0  0.10816900483E+03 -0.76277791366E+02  0.17566862106E+03  0.25298873391E+03  0.12500000000E+03 0.  0.
         25    1    1    2    0    0 -0.48262557023E+02  0.50042012872E+02  0.29051144385E+03  0.32381379907E+03  0.12500000000E+03 0.  0.
</event>
<event>
 5    0  0.5660959E-005  0.3811712E+03  0.7546771E-02  0.1050502E+00
         21   -1    0    0  502  501  0.00000000000E+00  0.00000000000E+00  0.31187757340E+03  0.31187757340E+03  0.00000000000E+00 0. -1.
         21   -1    0    0  501  502 -0.00000000000E+00 -0.00000000000E+00 -0.46586074535E+03  0.46586074535E+03  0.00000000000E+00 0. -1.
         25    1    1    2    0    0  0.38741750894E+02  0.82522737921E+02 -0.74748906789E+02  0.17182352750E+03  0.12500000000E+03 0.  0.
         25    1    1    2    0    0 -0.21316047611E+02  0.21149618904E+03 -0.13499640750E+03  0.28112993775E+03  0.12500000000E+03 0.  0.
         25    1    1    2    0    0 -0.17425703283E+02 -0.29401892696E+03  0.55762142336E+02  0.32478485350E+03  0.12500000000E+03 0.  0.
</event>
<event>
 5    0  0.5660959E-005  0.2887063E+03  0.7546771E-02  0.1091027E+00
         21   -1    0    0  502  501  0.00000000000E+00  0.00000000000E+00  0.25084715295E+03  0.25084715295E+03  0.00000000000E+00 0. -1.
         21   -1    0    0  501  502 -0.00000000000E+00 -0.00000000000E+00 -0.33227930433E+03  0.33227930433E+03  0.00000000000E+00 0. -1.
         25    1    1    2    0    0 -0.14112439042E+03 -0.23157393888E+02  0.76940710736E+02  0.20493226059E+03  0.12500000000E+03 0.  0.
         25    1    1    2    0    0  0.81293747832E+01 -0.22207176045E+01  0.13751850156E+02  0.12603623171E+03  0.12500000000E+03 0.  0.
         25    1    1    2    0    0  0.13299501563E+03  0.25378111493E+02 -0.17212471228E+03  0.25215796498E+03  0.12500000000E+03 0.  0.
</event>
<event>
 5    0  0.5660959E-005  0.3212768E+03  0.7546771E-02  0.1075063E+00
         21   -1    0    0  502  501  0.00000000000E+00  0.00000000000E+00  0.10037444444E+03  0.10037444444E+03  0.00000000000E+00 0.  1.
         21   -1    0    0  501  502 -0.00000000000E+00 -0.00000000000E+00 -0.10283375750E+04  0.10283375750E+04  0.00000000000E+00 0.  1.
         25    1    1    2    0    0 -0.50028164645E+02 -0.47214688653E+01 -0.99605530108E+02  0.16754513169E+03  0.12500000000E+03 0.  0.
         25    1    1    2    0    0  0.16414721530E+03  0.14765816907E+03 -0.54767372552E+03  0.60358823117E+03  0.12500000000E+03 0.  0.
         25    1    1    2    0    0 -0.11411905065E+03 -0.14293670020E+03 -0.28068387488E+03  0.35757865653E+03  0.12500000000E+03 0.  0.
</event>
<event>
 5    0  0.5660959E-005  0.2721521E+03  0.7546771E-02  0.1100054E+00
         21   -1    0    0  502  501  0.00000000000E+00  0.00000000000E+00  0.65126377400E+02  0.65126377400E+02  0.00000000000E+00 0. -1.
         21   -1    0    0  501  502 -0.00000000000E+00 -0.00000000000E+00 -0.11372772065E+04  0.11372772065E+04  0.00000000000E+00 0. -1.
         25    1    1    2    0    0 -0.45214509592E+02 -0.12913492074E+03 -0.44446532967E+03  0.48155436755E+03  0.12500000000E+03 0.  0.
         25    1    1    2    0    0  0.17074236362E+02 -0.16492797286E+02 -0.40997052886E+03  0.42926026656E+03  0.12500000000E+03 0.  0.
         25    1    1    2    0    0  0.28140273229E+02  0.14562771803E+03 -0.21771497060E+03  0.29158894982E+03  0.12500000000E+03 0.  0.
</event>
<event>
 5    0  0.5810782E-005  0.3201103E+03  0.7546771E-02  0.1075599E+00
         21   -1    0    0  502  501  0.00000000000E+00  0.00000000000E+00  0.39843506964E+03  0.39843506964E+03  0.00000000000E+00 0. -1.
         21   -1    0    0  501  502 -0.00000000000E+00 -0.00000000000E+00 -0.25718271089E+03  0.25718271089E+03  0.00000000000E+00 0. -1.
         25    1    1    2    0    0  0.28072290403E+02 -0.34254786948E+02 -0.65447592498E+02  0.14788452009E+03  0.12500000000E+03 0.  0.
         25    1    1    2    0    0  0.15496204108E+02  0.20257795983E+03  0.16372193935E+03  0.28932306437E+03  0.12500000000E+03 0.  0.
         25    1    1    2    0    0 -0.43568494511E+02 -0.16832317288E+03  0.42978011906E+02  0.21841019608E+03  0.12500000000E+03 0.  0.
</event>
<event>
 5    0  0.5660959E-005  0.3668760E+03  0.7546771E-02  0.1055894E+00
         21   -1    0    0  502  501  0.00000000000E+00  0.00000000000E+00  0.93590369313E+03  0.93590369313E+03  0.00000000000E+00 0.  1.
         21   -1    0    0  501  502 -0.00000000000E+00 -0.00000000000E+00 -0.14381606349E+03  0.14381606349E+03  0.00000000000E+00 0.  1.
         25    1    1    2    0    0 -0.17608267470E+03  0.21847176968E+03  0.30991169689E+03  0.43635453744E+03  0.12500000000E+03 0.  0.
         25    1    1    2    0    0  0.83014271537E+01 -0.14625007951E+03  0.14952239279E+03  0.24380308734E+03  0.12500000000E+03 0.  0.
         25    1    1    2    0    0  0.16778124754E+03 -0.72221690164E+02  0.33265353995E+03  0.39956213184E+03  0.12500000000E+03 0.  0.
</event>
<event>
 5    0  0.6303099E-005  0.2725679E+03  0.7546771E-02  0.1099819E+00
         21   -1    0    0  502  501  0.00000000000E+00  0.00000000000E+00  0.42134596096E+03  0.42134596096E+03  0.00000000000E+00 0. -1.
         21   -1    0    0  501  502 -0.00000000000E+00 -0.00000000000E+00 -0.17632368329E+03  0.17632368329E+03  0.00000000000E+00 0. -1.
         25    1    1    2    0    0 -0.16227627949E+03  0.80120322502E+02  0.84069013740E+02  0.23546858821E+03  0.12500000000E+03 0.  0.
         25    1    1    2    0    0  0.11860753768E+03 -0.76367468582E+02  0.67967776173E+02  0.20036056710E+03  0.12500000000E+03 0.  0.
         25    1    1    2    0    0  0.43668741812E+02 -0.37528539198E+01  0.92985487760E+02  0.16184048893E+03  0.12500000000E+03 0.  0.
</event>
<event>
 5    0  0.6186647E-005  0.3777816E+03  0.7546771E-02  0.1051757E+00
         21   -1    0    0  502  501  0.00000000000E+00  0.00000000000E+00  0.11529239370E+04  0.11529239370E+04  0.00000000000E+00 0.  1.
         21   -1    0    0  501  502 -0.00000000000E+00 -0.00000000000E+00 -0.12378869165E+03  0.12378869165E+03  0.00000000000E+00 0.  1.
         25    1    1    2    0    0 -0.28232760394E+02  0.19318249088E+03  0.28294282278E+03  0.36578436887E+03  0.12500000000E+03 0.  0.
         25    1    1    2    0    0  0.20901344159E+03 -0.10842754580E+03  0.26878585966E+03  0.37856834232E+03  0.12500000000E+03 0.  0.
         25    1    1    2    0    0 -0.18078068120E+03 -0.84754945084E+02  0.47740656290E+03  0.53235991745E+03  0.12500000000E+03 0.  0.
</event>
<event>
 5    0  0.5660959E-005  0.4359320E+03  0.7546771E-02  0.1032002E+00
         21   -1    0    0  502  501  0.00000000000E+00  0.00000000000E+00  0.31572244062E+03  0.31572244062E+03  0.00000000000E+00 0. -1.
         21   -1    0    0  501  502 -0.00000000000E+00 -0.00000000000E+00 -0.60191069593E+03  0.60191069593E+03  0.00000000000E+00 0. -1.
         25    1    1    2    0    0  0.14948783324E+03  0.10785448049E+03  0.35897294225E+02  0.22559436381E+03  0.12500000000E+03 0.  0.
         25    1    1    2    0    0 -0.17281630472E+03  0.18452441367E+03 -0.84486165068E+02  0.29441067661E+03  0.12500000000E+03 0.  0.
         25    1    1    2    0    0  0.23328471478E+02 -0.29237889416E+03 -0.23759938446E+03  0.39762809612E+03  0.12500000000E+03 0.  0.
</event>
<event>
 5    0  0.5660959E-005  0.4907756E+03  0.7546771E-02  0.1016215E+00
         21   -1    0    0  502  501  0.00000000000E+00  0.00000000000E+00  0.44654965898E+03  0.44654965898E+03  0.00000000000E+00 0. -1.
         21   -1    0    0  501  502 -0.00000000000E+00 -0.00000000000E+00 -0.53938161083E+03  0.53938161083E+03  0.00000000000E+00 0. -1.
         25    1    1    2    0    0 -0.43843620200E+02 -0.14232331291E+03 -0.58879057721E+02  0.20315002306E+03  0.12500000000E+03 0.  0.
         25    1    1    2    0    0  0.16287480092E+03  0.28799214547E+03 -0.27829200754E+03  0.45004346244E+03  0.12500000000E+03 0.  0.
         25    1    1    2    0    0 -0.11903118072E+03 -0.14566883256E+03  0.24433911341E+03  0.33273778431E+03  0.12500000000E+03 0.  0.
</event>
<event>
 5    0  0.5660959E-005  0.3287100E+03  0.7546771E-02  0.1071709E+00
         21   -1    0    0  502  501  0.00000000000E+00  0.00000000000E+00  0.76494249980E+02  0.76494249980E+02  0.00000000000E+00 0.  1.
         21   -1    0    0  501  502 -0.00000000000E+00 -0.00000000000E+00 -0.14125283445E+04  0.14125283445E+04  0.00000000000E+00 0.  1.
         25    1    1    2    0    0 -0.44999861188E+01 -0.19903718412E+01 -0.56233382225E+03  0.57608032348E+03  0.12500000000E+03 0.  0.
         25    1    1    2    0    0 -0.13184071913E+03 -0.15130568777E+03 -0.46618254586E+03  0.52271077322E+03  0.12500000000E+03 0.  0.
         25    1    1    2    0    0  0.13634070525E+03  0.15329605962E+03 -0.30751772639E+03  0.39023149776E+03  0.12500000000E+03 0.  0.
</event>
<event>
 5    0  0.5719901E-005  0.2967576E+03  0.7546771E-02  0.1086873E+00
         21   -1    0    0  502  501  0.00000000000E+00  0.00000000000E+00  0.20406957867E+03  0.20406957867E+03  0.00000000000E+00 0.  1.
         21   -1    0    0  501  502 -0.00000000000E+00 -0.00000000000E+00 -0.43154433163E+03  0.43154433163E+03  0.00000000000E+00 0.  1.
         25    1    1    2    0    0  0.88960579415E+02 -0.20702807907E+02  0.79569049828E+02  0.17406557568E+03  0.12500000000E+03 0.  0.
         25    1    1    2    0    0 -0.11213660369E+03  0.34091637495E+02 -0.56761082733E+02  0.18050949600E+03  0.12500000000E+03 0.  0.
         25    1    1    2    0    0  0.23176024274E+02 -0.13388829587E+02 -0.25028272005E+03  0.28103883862E+03  0.12500000000E+03 0.  0.
</event>
<event>
 5    0  0.5660959E-005  0.2654953E+03  0.7546771E-02  0.1103886E+00
         21   -1    0    0  502  501  0.00000000000E+00  0.00000000000E+00  0.12558452685E+04  0.12558452685E+04  0.00000000000E+00 0.  1.
         21   -1    0    0  501  502 -0.00000000000E+00 -0.00000000000E+00 -0.56127736045E+02  0.56127736045E+02  0.00000000000E+00 0.  1.
         25    1    1    2    0    0 -0.12791422939E+03 -0.31246802711E+02  0.27069876417E+03  0.32594667307E+03  0.12500000000E+03 0.  0.
         25    1    1    2    0    0  0.68506876371E+02  0.90492532285E+02  0.61546881788E+03  0.63820761222E+03  0.12500000000E+03 0.  0.
         25    1    1    2    0    0  0.59407353021E+02 -0.59245729574E+02  0.31354995037E+03  0.34781871923E+03  0.12500000000E+03 0.  0.
</event>
<event>
 5    0  0.5660959E-005  0.3262480E+03  0.7546771E-02  0.1072809E+00
         21   -1    0    0  502  501  0.00000000000E+00  0.00000000000E+00  0.11497573765E+03  0.11497573765E+03  0.00000000000E+00 0. -1.
         21   -1    0    0  501  502 -0.00000000000E+00 -0.00000000000E+00 -0.92574082378E+03  0.92574082378E+03  0.00000000000E+00 0. -1.
         25    1    1    2    0    0  0.58542827788E+02 -0.10458815250E+03 -0.56403198503E+03  0.59001951194E+03  0.12500000000E+03 0.  0.
         25    1    1    2    0    0  0.52896915571E+02  0.14032701369E+03 -0.18417426410E+03  0.26839320782E+03  0.12500000000E+03 0.  0.
         25    1    1    2    0    0 -0.11143974336E+03 -0.35738861189E+02 -0.62558837004E+02  0.18230384167E+03  0.12500000000E+03 0.  0.
</event>
<event>
 5    0  0.5660959E-005  0.3625354E+03  0.7546771E-02  0.1057584E+00
         21   -1    0    0  502  501  0.00000000000E+00  0.00000000000E+00  0.74901201700E+03  0.74901201700E+03  0.00000000000E+00 0.  1.
         21   -1    0    0  501  502 -0.00000000000E+00 -0.00000000000E+00 -0.17547372804E+03  0.17547372804E+03  0.00000000000E+00 0.  1.
         25    1    1    2    0    0 -0.11007665634E+03 -0.83171398326E+02  0.28187602950E+03  0.33780682021E+03  0.12500000000E+03 0.  0.
         25    1    1    2    0    0 -0.54493488443E+01  0.20154559879E+02  0.36842554479E+03  0.38961299227E+03  0.12500000000E+03 0.  0.
         25    1    1    2    0    0  0.11552600519E+03  0.63016838447E+02 -0.76763285333E+02  0.19706593256E+03  0.12500000000E+03 0.  0.
</event>
<event>
 5    0  0.5660959E-005  0.2363093E+03  0.7546771E-02  0.1122276E+00
         21   -1    0    0  502  501  0.00000000000E+00  0.00000000000E+00  0.84410943246E+03  0.84410943246E+03  0.00000000000E+00 0. -1.
         21   -1    0    0  501  502 -0.00000000000E+00 -0.00000000000E+00 -0.66155038493E+02  0.66155038493E+02  0.00000000000E+00 0. -1.
         25    1    1    2    0    0 -0.87990998848E+02 -0.43247453465E+02  0.17487099272E+03  0.23625753365E+03  0.12500000000E+03 0.  0.
         25    1    1    2    0    0 -0.13387469278E+02  0.13781014004E+02  0.17658823902E+03  0.21720392916E+03  0.12500000000E+03 0.  0.
         25    1    1    2    0    0  0.10137846813E+03  0.29466439461E+02  0.42649516223E+03  0.45680300815E+03  0.12500000000E+03 0.  0.
</event>
<event>
 5    0  0.5660959E-005  0.2905100E+03  0.7546771E-02  0.1090083E+00
         21   -1    0    0  502  501  0.00000000000E+00  0.00000000000E+00  0.11140543562E+04  0.11140543562E+04  0.00000000000E+00 0. -1.
         21   -1    0    0  501  502 -0.00000000000E+00 -0.00000000000E+00 -0.75755761000E+02  0.75755761000E+02  0.00000000000E+00 0. -1.
         25    1    1    2    0    0  0.49361131846E+02  0.17296350291E+03  0.33563456328E+03  0.40078479855E+03  0.12500000000E+03 0.  0.
         25    1    1    2    0    0 -0.79639307654E+02 -0.16652223869E+03  0.51759707015E+03  0.56356348563E+03  0.12500000000E+03 0.  0.
         25    1    1    2    0    0  0.30278175809E+02 -0.64412642269E+01  0.18506696178E+03  0.22546183304E+03  0.12500000000E+03 0.  0.
</event>
<event>
 5    0  0.5660959E-005  0.3989830E+03  0.7546771E-02  0.1044132E+00
         21   -1    0    0  502  501  0.00000000000E+00  0.00000000000E+00  0.15454009380E+03  0.15454009380E+03  0.00000000000E+00 0. -1.
         21   -1    0    0  501  502 -0.00000000000E+00 -0.00000000000E+00 -0.10300720620E+04  0.10300720620E+04  0.00000000000E+00 0. -1.
         25    1    1    2    0    0  0.78699027756E+02  0.92675335861E+02 -0.18597199332E+03  0.25493692778E+03  0.12500000000E+03 0.  0.
         25    1    1    2    0    0  0.32357371183E+02  0.22650674429E+03 -0.24896714588E+03  0.36050235007E+03  0.12500000000E+03 0.  0.
         25    1    1    2    0    0 -0.11105639894E+03 -0.31918208015E+03 -0.44059282904E+03  0.56917287799E+03  0.12500000000E+03 0.  0.
</event>
<event>
 5    0  0.5660959E-005  0.2492239E+03  0.7546771E-02  0.1113796E+00
         21   -1    0    0  502  501  0.00000000000E+00  0.00000000000E+00  0.18378754903E+04  0.18378754903E+04  0.00000000000E+00 0.  1.
         21   -1    0    0  501  502 -0.00000000000E+00 -0.00000000000E+00 -0.33795830304E+02  0.33795830304E+02  0.00000000000E+00 0.  1.
         25    1    1    2    0    0  0.23757543155E+02  0.30779927511E+02  0.53794818584E+03  0.55364706758E+03  0.12500000000E+03 0.  0.
         25    1    1    2    0    0  0.88388914956E+02 -0.89529346206E+02  0.47230393674E+03  0.50450382831E+03  0.12500000000E+03 0.  0.
         25    1    1    2    0    0 -0.11214645811E+03  0.58749418695E+02  0.79382753745E+03  0.81352042475E+03  0.12500000000E+03 0.  0.
</event>
<event>
 5    0  0.6359006E-005  0.3008524E+03  0.7546771E-02  0.1084815E+00
         21   -1    0    0  502  501  0.00000000000E+00  0.00000000000E+00  0.35024075191E+03  0.35024075191E+03  0.00000000000E+00 0.  1.
         21   -1    0    0  501  502 -0.00000000000E+00 -0.00000000000E+00 -0.25842842233E+03  0.25842842233E+03  0.00000000000E+00 0.  1.
         25    1    1    2    0    0  0.79837759498E+02 -0.16898936184E+03  0.73376458522E+02  0.23651760383E+03  0.12500000000E+03 0.  0.
         25    1    1    2    0    0 -0.69830132509E+02  0.67569550121E+02  0.10414954135E+03  0.18950994294E+03  0.12500000000E+03 0.  0.
         25    1    1    2    0    0 -0.10007626989E+02  0.10141981172E+03 -0.85713670297E+02  0.18264162746E+03  0.12500000000E+03 0.  0.
</event>
<event>
 5    0  0.5660959E-005  0.4347027E+03  0.7546771E-02  0.1032385E+00
         21   -1    0    0  502  501  0.00000000000E+00  0.00000000000E+00  0.10780855960E+04  0.10780855960E+04  0.00000000000E+00 0.  1.
         21   -1    0    0  501  502 -0.00000000000E+00 -0.00000000000E+00 -0.17527960261E+03  0.17527960261E+03  0.00000000000E+00 0.  1.
         25    1    1    2    0    0 -0.21107562703E+03 -0.21190123090E+03  0.48133018249E+03  0.58030922495E+03  0.12500000000E+03 0.  0.
         25    1    1    2    0    0  0.82399486199E+02  0.62828600374E+02  0.40834176956E+03  0.43943726415E+03  0.12500000000E+03 0.  0.
         25    1    1    2    0    0  0.12867614083E+03  0.14907263053E+03  0.13134041319E+02  0.23361870951E+03  0.12500000000E+03 0.  0.
</event>
<event>
 5    0  0.5660959E-005  0.3313566E+03  0.7546771E-02  0.1070538E+00
         21   -1    0    0  502  501  0.00000000000E+00  0.00000000000E+00  0.59111739479E+03  0.59111739479E+03  0.00000000000E+00 0. -1.
         21   -1    0    0  501  502 -0.00000000000E+00 -0.00000000000E+00 -0.18574511976E+03  0.18574511976E+03  0.00000000000E+00 0. -1.
         25    1    1    2    0    0 -0.51269536681E+02  0.19152081894E+03  0.30412003469E+02  0.23634440851E+03  0.12500000000E+03 0.  0.
         25    1    1    2    0    0  0.10582039169E+03 -0.14966958482E+03  0.13028561610E+03  0.25729026736E+03  0.12500000000E+03 0.  0.
         25    1    1    2    0    0 -0.54550855007E+02 -0.41851234121E+02  0.24467465546E+03  0.28322783868E+03  0.12500000000E+03 0.  0.
</event>
<event>
 5    0  0.5660959E-005  0.3934223E+03  0.7546771E-02  0.1046081E+00
         21   -1    0    0  502  501  0.00000000000E+00  0.00000000000E+00  0.10101210323E+04  0.10101210323E+04  0.00000000000E+00 0. -1.
         21   -1    0    0  501  502 -0.00000000000E+00 -0.00000000000E+00 -0.15323024060E+03  0.15323024060E+03  0.00000000000E+00 0. -1.
         25    1    1    2    0    0  0.38920001950E+02 -0.80543642772E+02  0.68948515486E+02  0.16846644393E+03  0.12500000000E+03 0.  0.
         25    1    1    2    0    0  0.59290892495E+02  0.28903676727E+03  0.29022291324E+03  0.43233320730E+03  0.12500000000E+03 0.  0.
         25    1    1    2    0    0 -0.98210894445E+02 -0.20849312450E+03  0.49771936299E+03  0.56255162167E+03  0.12500000000E+03 0.  0.
</event>
<event>
 5    0  0.5660959E-005  0.3028089E+03  0.7546771E-02  0.1083845E+00
         21   -1    0    0  502  501  0.00000000000E+00  0.00000000000E+00  0.52143014663E+03  0.52143014663E+03  0.00000000000E+00 0. -1.
         21   -1    0    0  501  502 -0.00000000000E+00 -0.00000000000E+00 -0.17584949858E+03  0.17584949858E+03  0.00000000000E+00 0. -1.
         25    1    1    2    0    0  0.78138219906E+02 -0.14954227735E+03  0.21064753537E+03  0.29743210701E+03  0.12500000000E+03 0.  0.
         25    1    1    2    0    0  0.49969719986E+02  0.14421989340E+03  0.73654905469E+02  0.21058583919E+03  0.12500000000E+03 0.  0.
         25    1    1    2    0    0 -0.12810793989E+03  0.53223839430E+01  0.61278207203E+02  0.18926169901E+03  0.12500000000E+03 0.  0.
</event>
<event>
 5    0  0.5660959E-005  0.3068338E+03  0.7546771E-02  0.1081873E+00
         21   -1    0    0  502  501  0.00000000000E+00  0.00000000000E+00  0.19386115161E+03  0.19386115161E+03  0.00000000000E+00 0.  1.
         21   -1    0    0  501  502 -0.00000000000E+00 -0.00000000000E+00 -0.48564144283E+03  0.48564144283E+03  0.00000000000E+00 0.  1.
         25    1    1    2    0    0 -0.55754618264E+02 -0.62440117444E+02 -0.20768777180E+02  0.15186733628E+03  0.12500000000E+03 0.  0.
         25    1    1    2    0    0  0.14204642325E+03 -0.99769543077E+02 -0.62364525362E+02  0.22281266146E+03  0.12500000000E+03 0.  0.
         25    1    1    2    0    0 -0.86291804991E+02  0.16220966052E+03 -0.20864698867E+03  0.30482259670E+03  0.12500000000E+03 0.  0.
</event>
<event>
 5    0  0.5660959E-005  0.3464704E+03  0.7546771E-02  0.1064073E+00
         21   -1    0    0  502  501  0.00000000000E+00  0.00000000000E+00  0.85634413043E+02  0.85634413043E+02  0.00000000000E+00 0. -1.
         21   -1    0    0  501  502 -0.00000000000E+00 -0.00000000000E+00 -0.14017929133E+04  0.14017929133E+04  0.00000000000E+00 0. -1.
         25    1    1    2    0    0  0.13964604649E+03 -0.16443106696E+01 -0.23944763334E+03  0.30407875817E+03  0.12500000000E+03 0.  0.
         25    1    1    2    0    0  0.61139031940E+02 -0.14914793676E+03 -0.54996783727E+03  0.58657711368E+03  0.12500000000E+03 0.  0.
         25    1    1    2    0    0 -0.20078507843E+03  0.15079224743E+03 -0.52674302963E+03  0.59677145447E+03  0.12500000000E+03 0.  0.
</event>
<event>
 5    0  0.5660959E-005  0.2767219E+03  0.7546771E-02  0.1097493E+00
         21   -1    0    0  502  501  0.00000000000E+00  0.00000000000E+00  0.24117853102E+03  0.24117853102E+03  0.00000000000E+00 0. -1.
         21   -1    0    0  501  502 -0.00000000000E+00 -0.00000000000E+00 -0.31750332380E+03  0.31750332380E+03  0.00000000000E+00 0. -1.
         25    1    1    2    0    0 -0.32324553394E+02  0.10793881890E+03 -0.90168156888E+02  0.19092135002E+03  0.12500000000E+03 0.  0.
         25    1    1    2    0    0  0.12327574384E+03 -0.10250822096E+03 -0.33403615261E+02  0.20602341104E+03  0.12500000000E+03 0.  0.
         25    1    1    2    0    0 -0.90951190444E+02 -0.54305979364E+01  0.47246979372E+02  0.16173709376E+03  0.12500000000E+03 0.  0.
</event>
<event>
 5    0  0.5660959E-005  0.3311241E+03  0.7546771E-02  0.1070641E+00
         21   -1    0    0  502  501  0.00000000000E+00  0.00000000000E+00  0.11124613617E+03  0.11124613617E+03  0.00000000000E+00 0. -1.
         21   -1    0    0  501  502 -0.00000000000E+00 -0.00000000000E+00 -0.98559087686E+03  0.98559087686E+03  0.00000000000E+00 0. -1.
         25    1    1    2    0    0 -0.11939517564E+02 -0.10612169873E+03 -0.94704618032E+02  0.18973226320E+03  0.12500000000E+03 0.  0.
         25    1    1    2    0    0  0.89255332596E+02  0.15218730900E+03 -0.70213789501E+03  0.73467687797E+03  0.12500000000E+03 0.  0.
         25    1    1    2    0    0 -0.77315815032E+02 -0.46065610267E+02 -0.77502227655E+02  0.17242787186E+03  0.12500000000E+03 0.  0.
</event>
<event>
 5    0  0.5660959E-005  0.2978308E+03  0.7546771E-02  0.1086330E+00
         21   -1    0    0  502  501  0.00000000000E+00  0.00000000000E+00  0.37544059628E+03  0.37544059628E+03  0.00000000000E+00 0.  1.
         21   -1    0    0  501  502 -0.00000000000E+00 -0.00000000000E+00 -0.23626429326E+03  0.23626429326E+03  0.00000000000E+00 0.  1.
         25    1    1    2    0    0 -0.10531114751E+03  0.19756680496E+03  0.58036408435E+02  0.26289980015E+03  0.12500000000E+03 0.  0.
         25    1    1    2    0    0  0.65451047538E+02 -0.12344888328E+03  0.31211189182E+02  0.19005947684E+03  0.12500000000E+03 0.  0.
         25    1    1    2    0    0  0.39860099967E+02 -0.74117921688E+02  0.49928705402E+02  0.15874561256E+03  0.12500000000E+03 0.  0.
</event>
<event>
 5    0  0.5660959E-005  0.2473795E+03  0.7546771E-02  0.1114972E+00
         21   -1    0    0  502  501  0.00000000000E+00  0.00000000000E+00  0.55603446786E+02  0.55603446786E+02  0.00000000000E+00 0.  1.
         21   -1    0    0  501  502 -0.00000000000E+00 -0.00000000000E+00 -0.11005906410E+04  0.11005906410E+04  0.00000000000E+00 0.  1.
         25    1    1    2    0    0  0.39005882570E+02 -0.41778774462E+02 -0.10549984333E+03  0.17326898687E+03  0.12500000000E+03 0.  0.
         25    1    1    2    0    0 -0.50683927762E+02 -0.12554007701E+02 -0.30301768592E+03  0.33192044472E+03  0.12500000000E+03 0.  0.
         25    1    1    2    0    0  0.11678045193E+02  0.54332782164E+02 -0.63646966492E+03  0.65100465614E+03  0.12500000000E+03 0.  0.
</event>
<event>
 5    0  0.5660959E-005  0.3802803E+03  0.7546771E-02  0.1050830E+00
         21   -1    0    0  502  501  0.00000000000E+00  0.00000000000E+00  0.46725843504E+03  0.46725843504E+03  0.00000000000E+00 0. -1.
         21   -1    0    0  501  502 -0.00000000000E+00 -0.00000000000E+00 -0.30949280459E+03  0.30949280459E+03  0.00000000000E+00 0. -1.
         25    1    1    2    0    0  0.13277169531E+03  0.57187984268E+02  0.13989220750E+02  0.19162329430E+03  0.12500000000E+03 0.  0.
         25    1    1    2    0    0 -0.28998886593E+03  0.76129228462E+02  0.62996587684E+02  0.33088180949E+03  0.12500000000E+03 0.  0.
         25    1    1    2    0    0  0.15721717062E+03 -0.13331721273E+03  0.80779822011E+02  0.25424613584E+03  0.12500000000E+03 0.  0.
</event>
<event>
 5    0  0.5660959E-005  0.2909289E+03  0.7546771E-02  0.1089865E+00
         21   -1    0    0  502  501  0.00000000000E+00  0.00000000000E+00  0.74991672499E+02  0.74991672499E+02  0.00000000000E+00 0.  1.
         21   -1    0    0  501  502 -0.00000000000E+00 -0.00000000000E+00 -0.11286537279E+04  0.11286537279E+04  0.00000000000E+00 0.  1.
         25    1    1    2    0    0  0.28613677979E+02 -0.14719293790E+03 -0.21109912444E+03  0.28752798798E+03  0.12500000000E+03 0.  0.
         25    1    1    2    0    0 -0.66225711161E+02  0.16256595767E+02 -0.56461115442E+03  0.58228934166E+03  0.12500000000E+03 0.  0.
         25    1    1    2    0    0  0.37612033183E+02  0.13093634213E+03 -0.27795177652E+03  0.33382807072E+03  0.12500000000E+03 0.  0.
</event>
<event>
 5    0  0.5660959E-005  0.2499716E+03  0.7546771E-02  0.1113323E+00
         21   -1    0    0  502  501  0.00000000000E+00  0.00000000000E+00  0.45966648978E+03  0.45966648978E+03  0.00000000000E+00 0. -1.
         21   -1    0    0  501  502 -0.00000000000E+00 -0.00000000000E+00 -0.13593720528E+03  0.13593720528E+03  0.00000000000E+00 0. -1.
         25    1    1    2    0    0  0.29411522845E+02 -0.23526175187E+02 -0.39083730588E+02  0.13627566397E+03  0.12500000000E+03 0.  0.
         25    1    1    2    0    0 -0.62268577034E+02  0.47998719192E+02  0.22204268541E+03  0.26666309620E+03  0.12500000000E+03 0.  0.
         25    1    1    2    0    0  0.32857054189E+02 -0.24472544005E+02  0.14077032967E+03  0.19266493489E+03  0.12500000000E+03 0.  0.
</event>
<event>
 5    0  0.5660959E-005  0.3913658E+03  0.7546771E-02  0.1046811E+00
         21   -1    0    0  502  501  0.00000000000E+00  0.00000000000E+00  0.73566837644E+03  0.73566837644E+03  0.00000000000E+00 0.  1.
         21   -1    0    0  501  502 -0.00000000000E+00 -0.00000000000E+00 -0.20820141997E+03  0.20820141997E+03  0.00000000000E+00 0.  1.
         25    1    1    2    0    0  0.13191782834E+03 -0.14257852871E+02  0.33134975001E+03  0.37818415704E+03  0.12500000000E+03 0.  0.
         25    1    1    2    0    0  0.16108065313E+03  0.28396042849E+02  0.36379220070E+02  0.20904965849E+03  0.12500000000E+03 0.  0.
         25    1    1    2    0    0 -0.29299848148E+03 -0.14138189978E+02  0.15973798638E+03  0.35663598088E+03  0.12500000000E+03 0.  0.
</event>
<event>
 5    0  0.5660959E-005  0.2929545E+03  0.7546771E-02  0.1088817E+00
         21   -1    0    0  502  501  0.00000000000E+00  0.00000000000E+00  0.43354046766E+02  0.43354046766E+02  0.00000000000E+00 0. -1.
         21   -1    0    0  501  502 -0.00000000000E+00 -0.00000000000E+00 -0.19795691032E+04  0.19795691032E+04  0.00000000000E+00 0. -1.
         25    1    1    2    0    0 -0.72585423340E+02 -0.10686042446E+03 -0.10530064808E+04  0.10682394126E+04  0.12500000000E+03 0.  0.
         25    1    1    2    0    0  0.64708848990E+02  0.15488953477E+03 -0.67760731404E+03  0.70919297456E+03  0.12500000000E+03 0.  0.
         25    1    1    2    0    0  0.78765743506E+01 -0.48029110310E+02 -0.20560126157E+03  0.24549076280E+03  0.12500000000E+03 0.  0.
</event>
<event>
 5    0  0.6360076E-005  0.2965402E+03  0.7546771E-02  0.1086983E+00
         21   -1    0    0  502  501  0.00000000000E+00  0.00000000000E+00  0.66910064070E+03  0.66910064070E+03  0.00000000000E+00 0. -1.
         21   -1    0    0  501  502 -0.00000000000E+00 -0.00000000000E+00 -0.13142429828E+03  0.13142429828E+03  0.00000000000E+00 0. -1.
         25    1    1    2    0    0 -0.30002801001E+02 -0.11871344684E+03  0.29079317775E+03  0.33937990918E+03  0.12500000000E+03 0.  0.
         25    1    1    2    0    0 -0.57929233283E+02  0.58559992724E+02  0.25610122641E+03  0.29664441169E+03  0.12500000000E+03 0.  0.
         25    1    1    2    0    0  0.87932034284E+02  0.60153454112E+02 -0.92180617433E+01  0.16450061811E+03  0.12500000000E+03 0.  0.
</event>
<event>
 5    0  0.5660959E-005  0.2976489E+03  0.7546771E-02  0.1086422E+00
         21   -1    0    0  502  501  0.00000000000E+00  0.00000000000E+00  0.87216052192E+03  0.87216052192E+03  0.00000000000E+00 0. -1.
         21   -1    0    0  501  502 -0.00000000000E+00 -0.00000000000E+00 -0.10158093590E+03  0.10158093590E+03  0.00000000000E+00 0.  1.
         25    1    1    2    0    0  0.85301973960E+02  0.74665744618E+02  0.26508964063E+03  0.31424340526E+03  0.12500000000E+03 0.  0.
         25    1    1    2    0    0 -0.17643062649E+03 -0.12702772016E+03  0.37166949941E+03  0.44836037341E+03  0.12500000000E+03 0.  0.
         25    1    1    2    0    0  0.91128652532E+02  0.52361975538E+02  0.13382044598E+03  0.21113767915E+03  0.12500000000E+03 0.  0.
</event>
<event>
 5    0  0.5660959E-005  0.2654485E+03  0.7546771E-02  0.1103913E+00
         21   -1    0    0  502  501  0.00000000000E+00  0.00000000000E+00  0.30166307152E+03  0.30166307152E+03  0.00000000000E+00 0. -1.
         21   -1    0    0  501  502 -0.00000000000E+00 -0.00000000000E+00 -0.23358146857E+03  0.23358146857E+03  0.00000000000E+00 0. -1.
         25    1    1    2    0    0  0.29361340276E+02 -0.91463609443E+02 -0.24567522361E+02  0.15955012789E+03  0.12500000000E+03 0.  0.
         25    1    1    2    0    0  0.36768164228E+02 -0.48541597822E+02  0.10806749965E+03  0.17610158745E+03  0.12500000000E+03 0.  0.
         25    1    1    2    0    0 -0.66129504504E+02  0.14000520726E+03 -0.15418374339E+02  0.19959282476E+03  0.12500000000E+03 0.  0.
</event>
<event>
 5    0  0.5660959E-005  0.3190869E+03  0.7546771E-02  0.1076070E+00
         21   -1    0    0  502  501  0.00000000000E+00  0.00000000000E+00  0.31369580824E+03  0.31369580824E+03  0.00000000000E+00 0. -1.
         21   -1    0    0  501  502 -0.00000000000E+00 -0.00000000000E+00 -0.32457061415E+03  0.32457061415E+03  0.00000000000E+00 0. -1.
         25    1    1    2    0    0  0.41679016171E+02 -0.92035983125E+02 -0.12614818261E+03  0.20431868871E+03  0.12500000000E+03 0.  0.
         25    1    1    2    0    0 -0.17957616517E+03  0.55613508094E+02  0.36943697861E+02  0.22875816530E+03  0.12500000000E+03 0.  0.
         25    1    1    2    0    0  0.13789714899E+03  0.36422475031E+02  0.78329678832E+02  0.20518956839E+03  0.12500000000E+03 0.  0.
</event>
<event>
 5    0  0.5660959E-005  0.3183295E+03  0.7546771E-02  0.1076421E+00
         21   -1    0    0  502  501  0.00000000000E+00  0.00000000000E+00  0.16890030149E+03  0.16890030149E+03  0.00000000000E+00 0.  1.
         21   -1    0    0  501  502 -0.00000000000E+00 -0.00000000000E+00 -0.59996137052E+03  0.59996137052E+03  0.00000000000E+00 0.  1.
         25    1    1    2    0    0 -0.11882749652E+02  0.90452640434E+02 -0.21835233412E+03  0.26762963534E+03  0.12500000000E+03 0.  0.
         25    1    1    2    0    0  0.16536390020E+03 -0.11981592039E+03 -0.53051312373E+02  0.24523563365E+03  0.12500000000E+03 0.  0.
         25    1    1    2    0    0 -0.15348115055E+03  0.29363279960E+02 -0.15965742255E+03  0.25599640302E+03  0.12500000000E+03 0.  0.
</event>
<event>
 5    0  0.5660959E-005  0.2520170E+03  0.7546771E-02  0.1112037E+00
         21   -1    0    0  502  501  0.00000000000E+00  0.00000000000E+00  0.17505586506E+03  0.17505586506E+03  0.00000000000E+00 0.  1.
         21   -1    0    0  501  502 -0.00000000000E+00 -0.00000000000E+00 -0.36281325807E+03  0.36281325807E+03  0.00000000000E+00 0.  1.
         25    1    1    2    0    0  0.82034167142E+02 -0.56228601056E+02  0.92610376030E+01  0.16000633416E+03  0.12500000000E+03 0.  0.
         25    1    1    2    0    0 -0.27616832741E+02  0.10800164759E+03 -0.60431591351E+02  0.17805623428E+03  0.12500000000E+03 0.  0.
         25    1    1    2    0    0 -0.54417334401E+02 -0.51773046538E+02 -0.13658683926E+03  0.19980655468E+03  0.12500000000E+03 0.  0.
</event>
<event>
 5    0  0.5660959E-005  0.2955184E+03  0.7546771E-02  0.1087503E+00
         21   -1    0    0  502  501  0.00000000000E+00  0.00000000000E+00  0.50237118533E+03  0.50237118533E+03  0.00000000000E+00 0. -1.
         21   -1    0    0  501  502 -0.00000000000E+00 -0.00000000000E+00 -0.17383780698E+03  0.17383780698E+03  0.00000000000E+00 0. -1.
         25    1    1    2    0    0 -0.71104021932E+02  0.72274024598E+02  0.28623039899E+03  0.32837807155E+03  0.12500000000E+03 0.  0.
         25    1    1    2    0    0  0.40664494171E+01 -0.13863463812E+03  0.46444304053E+01  0.18676902749E+03  0.12500000000E+03 0.  0.
         25    1    1    2    0    0  0.67037572515E+02  0.66360613517E+02  0.37658548944E+02  0.16106189327E+03  0.12500000000E+03 0.  0.
</event>
<event>
 5    0  0.5660959E-005  0.2684801E+03  0.7546771E-02  0.1102153E+00
         21   -1    0    0  502  501  0.00000000000E+00  0.00000000000E+00  0.15881052377E+03  0.15881052377E+03  0.00000000000E+00 0.  1.
         21   -1    0    0  501  502 -0.00000000000E+00 -0.00000000000E+00 -0.45388415038E+03  0.45388415038E+03  0.00000000000E+00 0.  1.
         25    1    1    2    0    0 -0.39464073665E+02  0.93451710034E+02 -0.52436010489E+02  0.16930791598E+03  0.12500000000E+03 0.  0.
         25    1    1    2    0    0 -0.85647793362E+02 -0.21840306459E+02 -0.19278425874E+03  0.24617740334E+03  0.12500000000E+03 0.  0.
         25    1    1    2    0    0  0.12511186703E+03 -0.71611403575E+02 -0.49853357375E+02  0.19720935484E+03  0.12500000000E+03 0.  0.
</event>
<event>
 5    0  0.5660959E-005  0.2139941E+03  0.7546771E-02  0.1138442E+00
         21   -1    0    0  502  501  0.00000000000E+00  0.00000000000E+00  0.86025818882E+02  0.86025818882E+02  0.00000000000E+00 0.  1.
         21   -1    0    0  501  502 -0.00000000000E+00 -0.00000000000E+00 -0.53232244003E+03  0.53232244003E+03  0.00000000000E+00 0.  1.
         25    1    1    2    0    0 -0.63234834701E+02  0.28119709899E+02 -0.19500104580E+03  0.24174319074E+03  0.12500000000E+03 0.  0.
         25    1    1    2    0    0  0.31206585521E+02 -0.66777114840E+02 -0.11715702416E+03  0.18650416176E+03  0.12500000000E+03 0.  0.
         25    1    1    2    0    0  0.32028249180E+02  0.38657404941E+02 -0.13413855118E+03  0.19010090641E+03  0.12500000000E+03 0.  0.
</event>
<event>
 5    0  0.5660959E-005  0.4420978E+03  0.7546771E-02  0.1030105E+00
         21   -1    0    0  502  501  0.00000000000E+00  0.00000000000E+00  0.40171824715E+03  0.40171824715E+03  0.00000000000E+00 0.  1.
         21   -1    0    0  501  502 -0.00000000000E+00 -0.00000000000E+00 -0.48653611278E+03  0.48653611278E+03  0.00000000000E+00 0.  1.
         25    1    1    2    0    0  0.27695188209E+03  0.11090679097E+03  0.15548271962E+03  0.35889070394E+03  0.12500000000E+03 0.  0.
         25    1    1    2    0    0 -0.24481948778E+03 -0.10720168807E+03 -0.26653167768E+03  0.39760900232E+03  0.12500000000E+03 0.  0.
         25    1    1    2    0    0 -0.32132394318E+02 -0.37051028976E+01  0.26231092442E+02  0.13175465367E+03  0.12500000000E+03 0.  0.
</event>
<event>
 5    0  0.5660959E-005  0.3146727E+03  0.7546771E-02  0.1078128E+00
         21   -1    0    0  502  501  0.00000000000E+00  0.00000000000E+00  0.10315905729E+04  0.10315905729E+04  0.00000000000E+00 0. -1.
         21   -1    0    0  501  502 -0.00000000000E+00 -0.00000000000E+00 -0.95986642104E+02  0.95986642104E+02  0.00000000000E+00 0. -1.
         25    1    1    2    0    0  0.46155998233E+02  0.77044774489E+02  0.29530070546E+03  0.33300717724E+03  0.12500000000E+03 0.  0.
         25    1    1    2    0    0  0.12902486853E+03 -0.11361969548E+03  0.47616261522E+03  0.52145247917E+03  0.12500000000E+03 0.  0.
         25    1    1    2    0    0 -0.17518086677E+03  0.36574920987E+02  0.16414061014E+03  0.27311755861E+03  0.12500000000E+03 0.  0.
</event>
<event>
 5    0  0.5660959E-005  0.3115406E+03  0.7546771E-02  0.1079610E+00
         21   -1    0    0  502  501  0.00000000000E+00  0.00000000000E+00  0.16320114259E+03  0.16320114259E+03  0.00000000000E+00 0. -1.
         21   -1    0    0  501  502 -0.00000000000E+00 -0.00000000000E+00 -0.59471132415E+03  0.59471132415E+03  0.00000000000E+00 0. -1.
         25    1    1    2    0    0 -0.91593627514E+02  0.11203698278E+03 -0.21123322283E+03  0.28493183841E+03  0.12500000000E+03 0.  0.
         25    1    1    2    0    0 -0.10464585159E+03 -0.73386022408E+02 -0.12725099626E+03  0.21944037593E+03  0.12500000000E+03 0.  0.
         25    1    1    2    0    0  0.19623947910E+03 -0.38650960374E+02 -0.93025962462E+02  0.25354025240E+03  0.12500000000E+03 0.  0.
</event>
<event>
 5    0  0.5660959E-005  0.4584679E+03  0.7546771E-02  0.1025226E+00
         21   -1    0    0  502  501  0.00000000000E+00  0.00000000000E+00  0.32663513849E+03  0.32663513849E+03  0.00000000000E+00 0. -1.
         21   -1    0    0  501  502 -0.00000000000E+00 -0.00000000000E+00 -0.64350961186E+03  0.64350961186E+03  0.00000000000E+00 0. -1.
         25    1    1    2    0    0 -0.18102640773E+03  0.17327961332E+03 -0.98483460792E+02  0.29685076509E+03  0.12500000000E+03 0.  0.
         25    1    1    2    0    0  0.26407585054E+03 -0.31515835707E+03 -0.16130605603E+03  0.45902667524E+03  0.12500000000E+03 0.  0.
         25    1    1    2    0    0 -0.83049442814E+02  0.14187874375E+03 -0.57084956544E+02  0.21426731002E+03  0.12500000000E+03 0.  0.
</event>
<event>
 5    0  0.5660959E-005  0.3479080E+03  0.7546771E-02  0.1063477E+00
         21   -1    0    0  502  501  0.00000000000E+00  0.00000000000E+00  0.21389090065E+04  0.21389090065E+04  0.00000000000E+00 0. -1.
         21   -1    0    0  501  502 -0.00000000000E+00 -0.00000000000E+00 -0.56589580450E+02  0.56589580450E+02  0.00000000000E+00 0. -1.
         25    1    1    2    0    0  0.18156821891E+03  0.11252034241E+03  0.42992530149E+03  0.49607319061E+03  0.12500000000E+03 0.  0.
         25    1    1    2    0    0 -0.58532832076E+02  0.22284744355E+02  0.10182757082E+04  0.10278293244E+04  0.12500000000E+03 0.  0.
         25    1    1    2    0    0 -0.12303538684E+03 -0.13480508677E+03  0.63411841635E+03  0.67159607189E+03  0.12500000000E+03 0.  0.
</event>
<event>
 5    0  0.5660959E-005  0.3186861E+03  0.7546771E-02  0.1076256E+00
         21   -1    0    0  502  501  0.00000000000E+00  0.00000000000E+00  0.50608888570E+02  0.50608888570E+02  0.00000000000E+00 0.  1.
         21   -1    0    0  501  502 -0.00000000000E+00 -0.00000000000E+00 -0.20067786061E+04  0.20067786061E+04  0.00000000000E+00 0.  1.
         25    1    1    2    0    0 -0.83959063740E+02  0.44177038648E+02 -0.13382187127E+04  0.13473882358E+04  0.12500000000E+03 0.  0.
         25    1    1    2    0    0  0.79873382725E+02 -0.31162403791E+02 -0.11149580454E+03  0.18816792263E+03  0.12500000000E+03 0.  0.
         25    1    1    2    0    0  0.40856810150E+01 -0.13014634857E+02 -0.50645520027E+03  0.52183133616E+03  0.12500000000E+03 0.  0.
</event>
<event>
 5    0  0.5855458E-005  0.3042853E+03  0.7546771E-02  0.1083118E+00
         21   -1    0    0  502  501  0.00000000000E+00  0.00000000000E+00  0.39689203608E+03  0.39689203608E+03  0.00000000000E+00 0.  1.
         21   -1    0    0  501  502 -0.00000000000E+00 -0.00000000000E+00 -0.23328653246E+03  0.23328653246E+03  0.00000000000E+00 0.  1.
         25    1    1    2    0    0 -0.10180887074E+03 -0.73026613489E+02  0.14653748618E+03  0.22977416586E+03  0.12500000000E+03 0.  0.
         25    1    1    2    0    0  0.66440018496E+02 -0.78488557889E+02  0.93220293791E+02  0.18678798931E+03  0.12500000000E+03 0.  0.
         25    1    1    2    0    0  0.35368852247E+02  0.15151517138E+03 -0.76152276353E+02  0.21361641337E+03  0.12500000000E+03 0.  0.
</event>
<event>
 5    0  0.5660959E-005  0.3568867E+03  0.7546771E-02  0.1059823E+00
         21   -1    0    0  502  501  0.00000000000E+00  0.00000000000E+00  0.11862084194E+03  0.11862084194E+03  0.00000000000E+00 0.  1.
         21   -1    0    0  501  502 -0.00000000000E+00 -0.00000000000E+00 -0.10737417226E+04  0.10737417226E+04  0.00000000000E+00 0.  1.
         25    1    1    2    0    0 -0.16682815086E+03  0.74867188787E+02 -0.65043270605E+02  0.23085136977E+03  0.12500000000E+03 0.  0.
         25    1    1    2    0    0  0.78976345987E+02 -0.61953332272E+02 -0.69573275921E+03  0.71396397027E+03  0.12500000000E+03 0.  0.
         25    1    1    2    0    0  0.87851804871E+02 -0.12913856515E+02 -0.19434485083E+03  0.24754722449E+03  0.12500000000E+03 0.  0.
</event>
<event>
 5    0  0.5660959E-005  0.5474527E+03  0.7546771E-02  0.1002085E+00
         21   -1    0    0  502  501  0.00000000000E+00  0.00000000000E+00  0.55144110020E+03  0.55144110020E+03  0.00000000000E+00 0.  1.
         21   -1    0    0  501  502 -0.00000000000E+00 -0.00000000000E+00 -0.54349316429E+03  0.54349316429E+03  0.00000000000E+00 0.  1.
         25    1    1    2    0    0 -0.24256374483E+03  0.22984311056E+03 -0.56563285922E+02  0.36123320874E+03  0.12500000000E+03 0.  0.
         25    1    1    2    0    0 -0.15634771759E+03  0.30158984727E+01 -0.10498199972E+03  0.22605292457E+03  0.12500000000E+03 0.  0.
         25    1    1    2    0    0  0.39891146243E+03 -0.23285900903E+03  0.16949322156E+03  0.50764813119E+03  0.12500000000E+03 0.  0.
</event>
<event>
 5    0  0.5660959E-005  0.3483319E+03  0.7546771E-02  0.1063302E+00
         21   -1    0    0  502  501  0.00000000000E+00  0.00000000000E+00  0.51660841421E+03  0.51660841421E+03  0.00000000000E+00 0. -1.
         21   -1    0    0  501  502 -0.00000000000E+00 -0.00000000000E+00 -0.23486859668E+03  0.23486859668E+03  0.00000000000E+00 0. -1.
         25    1    1    2    0    0  0.83425688982E+02 -0.99333705743E+02 -0.12483484524E+03  0.21917063961E+03  0.12500000000E+03 0.  0.
         25    1    1    2    0    0  0.48743350380E+02  0.89621583602E+02  0.18613116213E+03  0.24632854477E+03  0.12500000000E+03 0.  0.
         25    1    1    2    0    0 -0.13216903936E+03  0.97121221410E+01  0.22044350064E+03  0.28597782651E+03  0.12500000000E+03 0.  0.
</event>
<event>
 5    0  0.5660959E-005  0.2236819E+03  0.7546771E-02  0.1131167E+00
         21   -1    0    0  502  501  0.00000000000E+00  0.00000000000E+00  0.11643390305E+03  0.11643390305E+03  0.00000000000E+00 0.  1.
         21   -1    0    0  501  502 -0.00000000000E+00 -0.00000000000E+00 -0.42971681479E+03  0.42971681479E+03  0.00000000000E+00 0.  1.
         25    1    1    2    0    0 -0.51749566128E+01 -0.11371802254E+03 -0.15345358980E+03  0.22832339575E+03  0.12500000000E+03 0.  0.
         25    1    1    2    0    0  0.36750062129E+01  0.55605001965E+02 -0.79882689206E+02  0.15846660831E+03  0.12500000000E+03 0.  0.
         25    1    1    2    0    0  0.14999503999E+01  0.58113020573E+02 -0.79946632732E+02  0.15936071378E+03  0.12500000000E+03 0.  0.
</event>
<event>
 5    0  0.5994803E-005  0.4000410E+03  0.7546771E-02  0.1043765E+00
         21   -1    0    0  502  501  0.00000000000E+00  0.00000000000E+00  0.10512546613E+04  0.10512546613E+04  0.00000000000E+00 0.  1.
         21   -1    0    0  501  502 -0.00000000000E+00 -0.00000000000E+00 -0.15223031265E+03  0.15223031265E+03  0.00000000000E+00 0.  1.
         25    1    1    2    0    0 -0.19550893643E+03  0.55560676563E+02  0.56399882974E+03  0.61239726727E+03  0.12500000000E+03 0.  0.
         25    1    1    2    0    0  0.88672143780E+02  0.55489590122E+02  0.35602091605E+03  0.39155808810E+03  0.12500000000E+03 0.  0.
         25    1    1    2    0    0  0.10683679265E+03 -0.11105026668E+03 -0.20995397132E+02  0.19952961859E+03  0.12500000000E+03 0.  0.
</event>
<event>
 5    0  0.5660959E-005  0.2419239E+03  0.7546771E-02  0.1118518E+00
         21   -1    0    0  502  501  0.00000000000E+00  0.00000000000E+00  0.20339752549E+04  0.20339752549E+04  0.00000000000E+00 0. -1.
         21   -1    0    0  501  502 -0.00000000000E+00 -0.00000000000E+00 -0.28774774769E+02  0.28774774769E+02  0.00000000000E+00 0. -1.
         25    1    1    2    0    0 -0.98509037575E+02 -0.25778735361E+01  0.43218912794E+03  0.46056825578E+03  0.12500000000E+03 0.  0.
         25    1    1    2    0    0  0.10325692294E+03  0.44938350624E+02  0.10076972125E+04  0.10216457897E+04  0.12500000000E+03 0.  0.
         25    1    1    2    0    0 -0.47478853686E+01 -0.42360477088E+02  0.56531413968E+03  0.58053598421E+03  0.12500000000E+03 0.  0.
</event>
<event>
 5    0  0.5660959E-005  0.2739822E+03  0.7546771E-02  0.1099022E+00
         21   -1    0    0  502  501  0.00000000000E+00  0.00000000000E+00  0.35314257472E+03  0.35314257472E+03  0.00000000000E+00 0. -1.
         21   -1    0    0  501  502 -0.00000000000E+00 -0.00000000000E+00 -0.21256635039E+03  0.21256635039E+03  0.00000000000E+00 0. -1.
         25    1    1    2    0    0 -0.14998941104E+03  0.23400568512E+02  0.10125581093E+03  0.22118351945E+03  0.12500000000E+03 0.  0.
         25    1    1    2    0    0  0.31379968775E+02 -0.76897253753E+02  0.62581700958E+02  0.16260184307E+03  0.12500000000E+03 0.  0.
         25    1    1    2    0    0  0.11860944226E+03  0.53496685240E+02 -0.23261287556E+02  0.18192356259E+03  0.12500000000E+03 0.  0.
</event>
<event>
 5    0  0.5660959E-005  0.3237141E+03  0.7546771E-02  0.1073953E+00
         21   -1    0    0  502  501  0.00000000000E+00  0.00000000000E+00  0.85802158006E+02  0.85802158006E+02  0.00000000000E+00 0. -1.
         21   -1    0    0  501  502 -0.00000000000E+00 -0.00000000000E+00 -0.12213074347E+04  0.12213074347E+04  0.00000000000E+00 0. -1.
         25    1    1    2    0    0 -0.58732758783E+02  0.86574414565E+02 -0.87063949330E+03  0.88576678280E+03  0.12500000000E+03 0.  0.
         25    1    1    2    0    0  0.25067036091E+01 -0.12856117256E+03 -0.18320131285E+03  0.25636298423E+03  0.12500000000E+03 0.  0.
         25    1    1    2    0    0  0.56226055174E+02  0.41986757994E+02 -0.81664470510E+02  0.16497982565E+03  0.12500000000E+03 0.  0.
</event>
<event>
 5    0  0.5660959E-005  0.2526607E+03  0.7546771E-02  0.1111635E+00
         21   -1    0    0  502  501  0.00000000000E+00  0.00000000000E+00  0.16180059298E+04  0.16180059298E+04  0.00000000000E+00 0. -1.
         21   -1    0    0  501  502 -0.00000000000E+00 -0.00000000000E+00 -0.39454370883E+02  0.39454370883E+02  0.00000000000E+00 0. -1.
         25    1    1    2    0    0  0.20487433805E+02  0.43759979745E+01  0.23993299130E+03  0.27135166227E+03  0.12500000000E+03 0.  0.
         25    1    1    2    0    0 -0.43289645379E+02  0.67370320305E+02  0.10714807753E+04  0.10817156767E+04  0.12500000000E+03 0.  0.
         25    1    1    2    0    0  0.22802211574E+02 -0.71746318279E+02  0.26713779236E+03  0.30439296172E+03  0.12500000000E+03 0.  0.
</event>
<event>
 5    0  0.6073422E-005  0.3909785E+03  0.7546771E-02  0.1046949E+00
         21   -1    0    0  502  501  0.00000000000E+00  0.00000000000E+00  0.43562519744E+03  0.43562519744E+03  0.00000000000E+00 0.  1.
         21   -1    0    0  501  502 -0.00000000000E+00 -0.00000000000E+00 -0.35090767639E+03  0.35090767639E+03  0.00000000000E+00 0.  1.
         25    1    1    2    0    0  0.79336713703E+02 -0.88823600147E+02 -0.10690379507E+03  0.20306985863E+03  0.12500000000E+03 0.  0.
         25    1    1    2    0    0 -0.70900310346E+02  0.16193550450E+03 -0.11434966296E+03  0.24484853899E+03  0.12500000000E+03 0.  0.
         25    1    1    2    0    0 -0.84364033569E+01 -0.73111904358E+02  0.30597097908E+03  0.33861447621E+03  0.12500000000E+03 0.  0.
</event>
<event>
 5    0  0.5660959E-005  0.5028990E+03  0.7546771E-02  0.1013025E+00
         21   -1    0    0  502  501  0.00000000000E+00  0.00000000000E+00  0.25105432456E+03  0.25105432456E+03  0.00000000000E+00 0. -1.
         21   -1    0    0  501  502 -0.00000000000E+00 -0.00000000000E+00 -0.10073810682E+04  0.10073810682E+04  0.00000000000E+00 0. -1.
         25    1    1    2    0    0  0.27395162026E+02 -0.18973525010E+02  0.15146125744E+01  0.12937458640E+03  0.12500000000E+03 0.  0.
         25    1    1    2    0    0 -0.28962764620E+03  0.72120454126E+02 -0.85855934952E+01  0.32370394771E+03  0.12500000000E+03 0.  0.
         25    1    1    2    0    0  0.26223248417E+03 -0.53146929116E+02 -0.74925576272E+03  0.80535685866E+03  0.12500000000E+03 0.  0.
</event>
<event>
 5    0  0.5660959E-005  0.3476611E+03  0.7546771E-02  0.1063579E+00
         21   -1    0    0  502  501  0.00000000000E+00  0.00000000000E+00  0.77848526059E+03  0.77848526059E+03  0.00000000000E+00 0. -1.
         21   -1    0    0  501  502 -0.00000000000E+00 -0.00000000000E+00 -0.15526075981E+03  0.15526075981E+03  0.00000000000E+00 0. -1.
         25    1    1    2    0    0 -0.14982732347E+03  0.50476354978E+02  0.16343074887E+02  0.20220827225E+03  0.12500000000E+03 0.  0.
         25    1    1    2    0    0  0.10014892216E+03 -0.20506041816E+02  0.56482565502E+03  0.58745495566E+03  0.12500000000E+03 0.  0.
         25    1    1    2    0    0  0.49678401312E+02 -0.29970313162E+02  0.42055770871E+02  0.14408279249E+03  0.12500000000E+03 0.  0.
</event>
<event>
 5    0  0.5660959E-005  0.3026427E+03  0.7546771E-02  0.1083927E+00
         21   -1    0    0  502  501  0.00000000000E+00  0.00000000000E+00  0.19366685443E+03  0.19366685443E+03  0.00000000000E+00 0.  1.
         21   -1    0    0  501  502 -0.00000000000E+00 -0.00000000000E+00 -0.47293900845E+03  0.47293900845E+03  0.00000000000E+00 0.  1.
         25    1    1    2    0    0  0.41821169669E+02 -0.14442080185E+03 -0.21437760720E+03  0.29015364328E+03  0.12500000000E+03 0.  0.
         25    1    1    2    0    0 -0.88256376272E+02 -0.14758767387E+02  0.13897904038E+02  0.15435401162E+03  0.12500000000E+03 0.  0.
         25    1    1    2    0    0  0.46435206603E+02  0.15917956923E+03 -0.78792450860E+02  0.22209820798E+03  0.12500000000E+03 0.  0.
</event>
<event>
 5    0  0.5660959E-005  0.3627111E+03  0.7546771E-02  0.1057516E+00
         21   -1    0    0  502  501  0.00000000000E+00  0.00000000000E+00  0.43742350601E+03  0.43742350601E+03  0.00000000000E+00 0.  1.
         21   -1    0    0  501  502 -0.00000000000E+00 -0.00000000000E+00 -0.30075964626E+03  0.30075964626E+03  0.00000000000E+00 0.  1.
         25    1    1    2    0    0 -0.10670649282E+02  0.95263528327E+02  0.35673319398E+02  0.16151343072E+03  0.12500000000E+03 0.  0.
         25    1    1    2    0    0  0.15146118886E+03 -0.15816018427E+03 -0.12031392749E+03  0.27938428153E+03  0.12500000000E+03 0.  0.
         25    1    1    2    0    0 -0.14079053957E+03  0.62896655942E+02  0.22130446784E+03  0.29728544002E+03  0.12500000000E+03 0.  0.
</event>
<event>
 5    0  0.5660959E-005  0.3159781E+03  0.7546771E-02  0.1077515E+00
         21   -1    0    0  502  501  0.00000000000E+00  0.00000000000E+00  0.14867805600E+03  0.14867805600E+03  0.00000000000E+00 0.  1.
         21   -1    0    0  501  502 -0.00000000000E+00 -0.00000000000E+00 -0.67153251019E+03  0.67153251019E+03  0.00000000000E+00 0.  1.
         25    1    1    2    0    0  0.10469922113E+02  0.10597002050E+03 -0.22990942808E+03  0.28252895362E+03  0.12500000000E+03 0.  0.
         25    1    1    2    0    0 -0.16260911647E+03  0.16933230948E+02 -0.20205114695E+03  0.28840618068E+03  0.12500000000E+03 0.  0.
         25    1    1    2    0    0  0.15213919436E+03 -0.12290325145E+03 -0.90893879174E+02  0.24927543190E+03  0.12500000000E+03 0.  0.
</event>
<event>
 5    0  0.5660959E-005  0.2466919E+03  0.7546771E-02  0.1115413E+00
         21   -1    0    0  502  501  0.00000000000E+00  0.00000000000E+00  0.28599727045E+02  0.28599727045E+02  0.00000000000E+00 0. -1.
         21   -1    0    0  501  502 -0.00000000000E+00 -0.00000000000E+00 -0.21278840936E+04  0.21278840936E+04  0.00000000000E+00 0. -1.
         25    1    1    2    0    0 -0.30887348982E+02  0.18411809874E+01 -0.28052786791E+03  0.30867183698E+03  0.12500000000E+03 0.  0.
         25    1    1    2    0    0  0.37954261045E+02  0.71170352514E+02 -0.13220180540E+04  0.13303617854E+04  0.12500000000E+03 0.  0.
         25    1    1    2    0    0 -0.70669120633E+01 -0.73011533501E+02 -0.49673844472E+03  0.51745019831E+03  0.12500000000E+03 0.  0.
</event>
<event>
 5    0  0.5660959E-005  0.3313132E+03  0.7546771E-02  0.1070557E+00
         21   -1    0    0  502  501  0.00000000000E+00  0.00000000000E+00  0.27764606382E+04  0.27764606382E+04  0.00000000000E+00 0. -1.
         21   -1    0    0  501  502 -0.00000000000E+00 -0.00000000000E+00 -0.39535384640E+02  0.39535384640E+02  0.00000000000E+00 0. -1.
         25    1    1    2    0    0  0.76651342254E+02  0.62861685717E+02  0.10203118733E+04  0.10327092227E+04  0.12500000000E+03 0.  0.
         25    1    1    2    0    0  0.59674348813E+02  0.13402605026E+03  0.97829248046E+03  0.99709838401E+03  0.12500000000E+03 0.  0.
         25    1    1    2    0    0 -0.13632569107E+03 -0.19688773598E+03  0.73832089974E+03  0.78618841611E+03  0.12500000000E+03 0.  0.
</event>
<event>
 5    0  0.6950724E-005  0.9934721E+03  0.7546771E-02  0.9315734E-01
         21   -1    0    0  502  501  0.00000000000E+00  0.00000000000E+00  0.86651414511E+03  0.86651414511E+03  0.00000000000E+00 0.  1.
         21   -1    0    0  501  502 -0.00000000000E+00 -0.00000000000E+00 -0.11390313730E+04  0.11390313730E+04  0.00000000000E+00 0.  1.
         25    1    1    2    0    0  0.30905670775E+03  0.51637008263E+03 -0.44499417370E+03  0.75881415740E+03  0.12500000000E+03 0.  0.
         25    1    1    2    0    0 -0.40645941794E+03  0.21957980532E+03  0.22500563127E+02  0.47911984375E+03  0.12500000000E+03 0.  0.
         25    1    1    2    0    0  0.97402710192E+02 -0.73594988794E+03  0.14997638274E+03  0.76761151691E+03  0.12500000000E+03 0.  0.
</event>
<event>
 5    0  0.5660959E-005  0.4043112E+03  0.7546771E-02  0.1042297E+00
         21   -1    0    0  502  501  0.00000000000E+00  0.00000000000E+00  0.26747307680E+03  0.26747307680E+03  0.00000000000E+00 0. -1.
         21   -1    0    0  501  502 -0.00000000000E+00 -0.00000000000E+00 -0.61115529027E+03  0.61115529027E+03  0.00000000000E+00 0. -1.
         25    1    1    2    0    0  0.19262157797E+03 -0.16352328336E+03  0.51704459777E+02  0.28660301405E+03  0.12500000000E+03 0.  0.
         25    1    1    2    0    0 -0.17031910507E+03  0.13350178922E+03 -0.38777271147E+03  0.46132851748E+03  0.12500000000E+03 0.  0.
         25    1    1    2    0    0 -0.22302472903E+02  0.30021494137E+02 -0.76139617760E+01  0.13069683555E+03  0.12500000000E+03 0.  0.
</event>
<event>
 5    0  0.5660959E-005  0.3150718E+03  0.7546771E-02  0.1077940E+00
         21   -1    0    0  502  501  0.00000000000E+00  0.00000000000E+00  0.89898851581E+02  0.89898851581E+02  0.00000000000E+00 0.  1.
         21   -1    0    0  501  502 -0.00000000000E+00 -0.00000000000E+00 -0.11042437826E+04  0.11042437826E+04  0.00000000000E+00 0.  1.
         25    1    1    2    0    0 -0.87069115145E+02 -0.11270142005E+03 -0.27502133191E+03  0.33398259520E+03  0.12500000000E+03 0.  0.
         25    1    1    2    0    0 -0.10907697864E+03  0.42659051351E+02 -0.17071230778E+03  0.24183728819E+03  0.12500000000E+03 0.  0.
         25    1    1    2    0    0  0.19614609378E+03  0.70042368695E+02 -0.56861129135E+03  0.61832275081E+03  0.12500000000E+03 0.  0.
</event>
<event>
 5    0  0.5660959E-005  0.4792958E+03  0.7546771E-02  0.1019329E+00
         21   -1    0    0  502  501  0.00000000000E+00  0.00000000000E+00  0.63777009388E+03  0.63777009388E+03  0.00000000000E+00 0. -1.
         21   -1    0    0  501  502 -0.00000000000E+00 -0.00000000000E+00 -0.36019955035E+03  0.36019955035E+03  0.00000000000E+00 0.  1.
         25    1    1    2    0    0  0.38441507034E+03 -0.76000099274E+02 -0.20850611987E+02  0.41183820781E+03  0.12500000000E+03 0.  0.
         25    1    1    2    0    0 -0.51337436504E+02  0.17224082890E+02  0.38271457678E+02  0.14149878406E+03  0.12500000000E+03 0.  0.
         25    1    1    2    0    0 -0.33307763383E+03  0.58776016383E+02  0.26014969783E+03  0.44463265236E+03  0.12500000000E+03 0.  0.
</event>
<event>
 5    0  0.5789463E-005  0.3694236E+03  0.7546771E-02  0.1054914E+00
         21   -1    0    0  502  501  0.00000000000E+00  0.00000000000E+00  0.37222624640E+03  0.37222624640E+03  0.00000000000E+00 0.  1.
         21   -1    0    0  501  502 -0.00000000000E+00 -0.00000000000E+00 -0.36664211530E+03  0.36664211530E+03  0.00000000000E+00 0.  1.
         25    1    1    2    0    0  0.71480583601E+02  0.18412962775E+02  0.10997592556E+03  0.18212142991E+03  0.12500000000E+03 0.  0.
         25    1    1    2    0    0  0.89577751437E+01  0.13355624878E+03 -0.24201885740E+03  0.30350558588E+03  0.12500000000E+03 0.  0.
         25    1    1    2    0    0 -0.80438358745E+02 -0.15196921155E+03  0.13762706294E+03  0.25324134590E+03  0.12500000000E+03 0.  0.
</event>
<event>
 5    0  0.5660959E-005  0.2834039E+03  0.7546771E-02  0.1093844E+00
         21   -1    0    0  502  501  0.00000000000E+00  0.00000000000E+00  0.10994946573E+04  0.10994946573E+04  0.00000000000E+00 0.  1.
         21   -1    0    0  501  502 -0.00000000000E+00 -0.00000000000E+00 -0.73049708144E+02  0.73049708144E+02  0.00000000000E+00 0.  1.
         25    1    1    2    0    0 -0.17760906826E+03  0.61540583129E+02  0.28253181530E+03  0.36163718166E+03  0.12500000000E+03 0.  0.
         25    1    1    2    0    0  0.70476419391E+02 -0.55767357587E+02  0.29561779236E+03  0.33330436994E+03  0.12500000000E+03 0.  0.
         25    1    1    2    0    0  0.10713264887E+03 -0.57732255420E+01  0.44829534149E+03  0.47760281384E+03  0.12500000000E+03 0.  0.
</event>
<event>
 5    0  0.5660959E-005  0.2598002E+03  0.7546771E-02  0.1107263E+00
         21   -1    0    0  502  501  0.00000000000E+00  0.00000000000E+00  0.52793785112E+02  0.52793785112E+02  0.00000000000E+00 0. -1.
         21   -1    0    0  501  502 -0.00000000000E+00 -0.00000000000E+00 -0.12784862018E+04  0.12784862018E+04  0.00000000000E+00 0. -1.
         25    1    1    2    0    0  0.14668898927E+03 -0.61781807822E+01 -0.30572997557E+03  0.36145767035E+03  0.12500000000E+03 0.  0.
         25    1    1    2    0    0 -0.46515883943E+02 -0.98525107364E+01 -0.55578537991E+03  0.57164953245E+03  0.12500000000E+03 0.  0.
         25    1    1    2    0    0 -0.10017310533E+03  0.16030691519E+02 -0.36417706124E+03  0.39817278415E+03  0.12500000000E+03 0.  0.
</event>
<event>
 5    0  0.5660959E-005  0.3290241E+03  0.7546771E-02  0.1071569E+00
         21   -1    0    0  502  501  0.00000000000E+00  0.00000000000E+00  0.14325615817E+03  0.14325615817E+03  0.00000000000E+00 0.  1.
         21   -1    0    0  501  502 -0.00000000000E+00 -0.00000000000E+00 -0.75568730807E+03  0.75568730807E+03  0.00000000000E+00 0.  1.
         25    1    1    2    0    0  0.47653507878E+02 -0.86256554085E+01  0.26909353801E+02  0.13672736400E+03  0.12500000000E+03 0.  0.
         25    1    1    2    0    0 -0.85950986021E+02 -0.46403242854E+02 -0.59168178036E+03  0.61257910686E+03  0.12500000000E+03 0.  0.
         25    1    1    2    0    0  0.38297478144E+02  0.55028898263E+02 -0.47658723346E+02  0.14963699538E+03  0.12500000000E+03 0.  0.
</event>
<event>
 5    0  0.5660959E-005  0.3267048E+03  0.7546771E-02  0.1072604E+00
         21   -1    0    0  502  501  0.00000000000E+00  0.00000000000E+00  0.96195723582E+03  0.96195723582E+03  0.00000000000E+00 0. -1.
         21   -1    0    0  501  502 -0.00000000000E+00 -0.00000000000E+00 -0.11095715346E+03  0.11095715346E+03  0.00000000000E+00 0. -1.
         25    1    1    2    0    0 -0.15162694948E+02 -0.73912252851E+01  0.27115043725E+02  0.12901458493E+03  0.12500000000E+03 0.  0.
         25    1    1    2    0    0  0.18201475506E+03 -0.78402435504E+02  0.44857655195E+03  0.50608520617E+03  0.12500000000E+03 0.  0.
         25    1    1    2    0    0 -0.16685206011E+03  0.85793660789E+02  0.37530848669E+03  0.43781459818E+03  0.12500000000E+03 0.  0.
</event>
<event>
 5    0  0.5660959E-005  0.2826810E+03  0.7546771E-02  0.1094234E+00
         21   -1    0    0  502  501  0.00000000000E+00  0.00000000000E+00  0.16104341976E+03  0.16104341976E+03  0.00000000000E+00 0. -1.
         21   -1    0    0  501  502 -0.00000000000E+00 -0.00000000000E+00 -0.49619249368E+03  0.49619249368E+03  0.00000000000E+00 0. -1.
         25    1    1    2    0    0 -0.13425231369E+03 -0.76896745388E+02 -0.19950134868E+02  0.19989947740E+03  0.12500000000E+03 0.  0.
         25    1    1    2    0    0  0.41428184746E+02 -0.36361103582E+02 -0.15725188046E+03  0.20830645274E+03  0.12500000000E+03 0.  0.
         25    1    1    2    0    0  0.92824128945E+02  0.11325784897E+03 -0.15794705859E+03  0.24902998330E+03  0.12500000000E+03 0.  0.
</event>
<event>
 5    0  0.5660959E-005  0.2303716E+03  0.7546771E-02  0.1126379E+00
         21   -1    0    0  502  501  0.00000000000E+00  0.00000000000E+00  0.29238054422E+03  0.29238054422E+03  0.00000000000E+00 0.  1.
         21   -1    0    0  501  502 -0.00000000000E+00 -0.00000000000E+00 -0.18151365395E+03  0.18151365395E+03  0.00000000000E+00 0.  1.
         25    1    1    2    0    0 -0.26722464764E+02  0.17037367545E+02  0.15689911689E+03  0.20309282335E+03  0.12500000000E+03 0.  0.
         25    1    1    2    0    0  0.36519768139E+02 -0.40877119895E+02 -0.43115883416E+02  0.14313843578E+03  0.12500000000E+03 0.  0.
         25    1    1    2    0    0 -0.97973033754E+01  0.23839752351E+02 -0.29163432018E+01  0.12766293904E+03  0.12500000000E+03 0.  0.
</event>
<event>
 5    0  0.5660959E-005  0.2461588E+03  0.7546771E-02  0.1115757E+00
         21   -1    0    0  502  501  0.00000000000E+00  0.00000000000E+00  0.33000838168E+03  0.33000838168E+03  0.00000000000E+00 0.  1.
         21   -1    0    0  501  502 -0.00000000000E+00 -0.00000000000E+00 -0.18361391741E+03  0.18361391741E+03  0.00000000000E+00 0.  1.
         25    1    1    2    0    0 -0.23207904316E+02  0.54892417158E+02  0.74451919285E+02  0.15722554681E+03  0.12500000000E+03 0.  0.
         25    1    1    2    0    0 -0.95486812737E+02 -0.73162378638E+02  0.56133170022E+02  0.18233594772E+03  0.12500000000E+03 0.  0.
         25    1    1    2    0    0  0.11869471705E+03  0.18269961480E+02  0.15809374964E+02  0.17406080456E+03  0.12500000000E+03 0.  0.
</event>
<event>
 5    0  0.6038919E-005  0.2963478E+03  0.7546771E-02  0.1087081E+00
         21   -1    0    0  502  501  0.00000000000E+00  0.00000000000E+00  0.40877326267E+03  0.40877326267E+03  0.00000000000E+00 0. -1.
         21   -1    0    0  501  502 -0.00000000000E+00 -0.00000000000E+00 -0.21484284764E+03  0.21484284764E+03  0.00000000000E+00 0. -1.
         25    1    1    2    0    0  0.87805576192E+02  0.33422826319E+02 -0.10060352582E+02  0.15669433692E+03  0.12500000000E+03 0.  0.
         25    1    1    2    0    0 -0.40786408979E+02  0.17398884949E+02  0.27651371941E+03  0.30667750061E+03  0.12500000000E+03 0.  0.
         25    1    1    2    0    0 -0.47019167213E+02 -0.50821711268E+02 -0.72522951798E+02  0.16024427278E+03  0.12500000000E+03 0.  0.
</event>
<event>
 5    0  0.5660959E-005  0.4050806E+03  0.7546771E-02  0.1042034E+00
         21   -1    0    0  502  501  0.00000000000E+00  0.00000000000E+00  0.28691390484E+03  0.28691390484E+03  0.00000000000E+00 0. -1.
         21   -1    0    0  501  502 -0.00000000000E+00 -0.00000000000E+00 -0.57191486829E+03  0.57191486829E+03  0.00000000000E+00 0. -1.
         25    1    1    2    0    0 -0.13684442638E+02 -0.14079011065E+03 -0.22555000420E+03  0.29412059367E+03  0.12500000000E+03 0.  0.
         25    1    1    2    0    0 -0.12574188967E+03 -0.13420637234E+03 -0.65968676101E+02  0.23194663055E+03  0.12500000000E+03 0.  0.
         25    1    1    2    0    0  0.13942633231E+03  0.27499648300E+03  0.65177168538E+01  0.33276154891E+03  0.12500000000E+03 0.  0.
</event>
<event>
 5    0  0.5660959E-005  0.3750564E+03  0.7546771E-02  0.1052776E+00
         21   -1    0    0  502  501  0.00000000000E+00  0.00000000000E+00  0.74312542769E+03  0.74312542769E+03  0.00000000000E+00 0.  1.
         21   -1    0    0  501  502 -0.00000000000E+00 -0.00000000000E+00 -0.18929146365E+03  0.18929146365E+03  0.00000000000E+00 0.  1.
         25    1    1    2    0    0 -0.32152241346E+02 -0.10972562901E+03  0.27202409687E+03  0.32046152587E+03  0.12500000000E+03 0.  0.
         25    1    1    2    0    0 -0.15278428690E+03  0.20989184617E+03  0.92550993713E+02  0.30263560903E+03  0.12500000000E+03 0.  0.
         25    1    1    2    0    0  0.18493652825E+03 -0.10016621717E+03  0.18925887346E+03  0.30931975644E+03  0.12500000000E+03 0.  0.
</event>
<event>
 5    0  0.5660959E-005  0.2465475E+03  0.7546771E-02  0.1115506E+00
         21   -1    0    0  502  501  0.00000000000E+00  0.00000000000E+00  0.13213019838E+04  0.13213019838E+04  0.00000000000E+00 0. -1.
         21   -1    0    0  501  502 -0.00000000000E+00 -0.00000000000E+00 -0.46004387264E+02  0.46004387264E+02  0.00000000000E+00 0. -1.
         25    1    1    2    0    0  0.58163977102E+01 -0.37595947376E+02  0.20421906921E+03  0.24244115568E+03  0.12500000000E+03 0.  0.
         25    1    1    2    0    0  0.96945932893E+02 -0.32228624326E+02  0.40836191733E+03  0.43911462474E+03  0.12500000000E+03 0.  0.
         25    1    1    2    0    0 -0.10276233060E+03  0.69824571702E+02  0.66271661001E+03  0.68575059065E+03  0.12500000000E+03 0.  0.
</event>
<event>
 5    0  0.6027263E-005  0.2584437E+03  0.7546771E-02  0.1108082E+00
         21   -1    0    0  502  501  0.00000000000E+00  0.00000000000E+00  0.12808184739E+03  0.12808184739E+03  0.00000000000E+00 0.  1.
         21   -1    0    0  501  502 -0.00000000000E+00 -0.00000000000E+00 -0.52148783840E+03  0.52148783840E+03  0.00000000000E+00 0.  1.
         25    1    1    2    0    0 -0.51215202589E+02 -0.33929199632E+02 -0.20607649817E+02  0.14079724001E+03  0.12500000000E+03 0.  0.
         25    1    1    2    0    0 -0.84669824508E+02 -0.18993739186E+01 -0.11568453995E+03  0.19021172305E+03  0.12500000000E+03 0.  0.
         25    1    1    2    0    0  0.13588502710E+03  0.35828573550E+02 -0.25711380125E+03  0.31856072273E+03  0.12500000000E+03 0.  0.
</event>
<event>
 5    0  0.6114719E-005  0.2618592E+03  0.7546771E-02  0.1106031E+00
         21   -1    0    0  502  501  0.00000000000E+00  0.00000000000E+00  0.88405217030E+02  0.88405217030E+02  0.00000000000E+00 0. -1.
         21   -1    0    0  501  502 -0.00000000000E+00 -0.00000000000E+00 -0.77563553466E+03  0.77563553466E+03  0.00000000000E+00 0. -1.
         25    1    1    2    0    0 -0.56971931188E+02  0.56693150154E+02 -0.27606271347E+03  0.31352118905E+03  0.12500000000E+03 0.  0.
         25    1    1    2    0    0  0.13961843509E+03 -0.81078838656E+02 -0.17072687652E+03  0.26615738175E+03  0.12500000000E+03 0.  0.
         25    1    1    2    0    0 -0.82646503897E+02  0.24385688502E+02 -0.24044072765E+03  0.28436218089E+03  0.12500000000E+03 0.  0.
</event>
<event>
 5    0  0.5660959E-005  0.3182075E+03  0.7546771E-02  0.1076477E+00
         21   -1    0    0  502  501  0.00000000000E+00  0.00000000000E+00  0.60013314382E+03  0.60013314382E+03  0.00000000000E+00 0.  1.
         21   -1    0    0  501  502 -0.00000000000E+00 -0.00000000000E+00 -0.16872255548E+03  0.16872255548E+03  0.00000000000E+00 0.  1.
         25    1    1    2    0    0  0.18658253175E+03  0.74885694010E+02  0.16660571758E+03  0.28948812316E+03  0.12500000000E+03 0.  0.
         25    1    1    2    0    0 -0.14399801472E+03 -0.88570593760E+02  0.33827923661E+02  0.21295423626E+03  0.12500000000E+03 0.  0.
         25    1    1    2    0    0 -0.42584517029E+02  0.13684899750E+02  0.23097694710E+03  0.26641333988E+03  0.12500000000E+03 0.  0.
</event>
<event>
 5    0  0.6288114E-005  0.2575414E+03  0.7546771E-02  0.1108629E+00
         21   -1    0    0  502  501  0.00000000000E+00  0.00000000000E+00  0.32355262222E+03  0.32355262222E+03  0.00000000000E+00 0. -1.
         21   -1    0    0  501  502 -0.00000000000E+00 -0.00000000000E+00 -0.20499778877E+03  0.20499778877E+03  0.00000000000E+00 0. -1.
         25    1    1    2    0    0  0.16411231587E+02 -0.56245577363E+02 -0.67712025708E+01  0.13821628949E+03  0.12500000000E+03 0.  0.
         25    1    1    2    0    0  0.96531163509E+02 -0.36800186383E+02  0.28044480417E+01  0.16218934668E+03  0.12500000000E+03 0.  0.
         25    1    1    2    0    0 -0.11294239510E+03  0.93045763745E+02  0.12252158798E+03  0.22814477483E+03  0.12500000000E+03 0.  0.
</event>
<event>
 5    0  0.5660959E-005  0.2558710E+03  0.7546771E-02  0.1109650E+00
         21   -1    0    0  502  501  0.00000000000E+00  0.00000000000E+00  0.21681900308E+03  0.21681900308E+03  0.00000000000E+00 0.  1.
         21   -1    0    0  501  502 -0.00000000000E+00 -0.00000000000E+00 -0.30195688033E+03  0.30195688033E+03  0.00000000000E+00 0.  1.
         25    1    1    2    0    0 -0.59156643569E+02  0.34906696860E+02 -0.14479340907E+03  0.20324398460E+03  0.12500000000E+03 0.  0.
         25    1    1    2    0    0  0.24498865032E+02  0.44047841370E+00 -0.55086193913E+02  0.13877995954E+03  0.12500000000E+03 0.  0.
         25    1    1    2    0    0  0.34657778537E+02 -0.35347175274E+02  0.11474172573E+03  0.17675193927E+03  0.12500000000E+03 0.  0.
</event>
<event>
 5    0  0.7642589E-005  0.2724561E+03  0.7546771E-02  0.1099882E+00
         21   -1    0    0  502  501  0.00000000000E+00  0.00000000000E+00  0.28742065164E+03  0.28742065164E+03  0.00000000000E+00 0. -1.
         21   -1    0    0  501  502 -0.00000000000E+00 -0.00000000000E+00 -0.25827063603E+03  0.25827063603E+03  0.00000000000E+00 0. -1.
         25    1    1    2    0    0  0.13056258649E+02 -0.93759212717E+02  0.64383775409E+02  0.16950376514E+03  0.12500000000E+03 0.  0.
         25    1    1    2    0    0  0.46305552464E+02  0.17037774116E+03 -0.22753614749E+02  0.21752127679E+03  0.12500000000E+03 0.  0.
         25    1    1    2    0    0 -0.59361811113E+02 -0.76618528447E+02 -0.12480145050E+02  0.15866624575E+03  0.12500000000E+03 0.  0.
</event>
<event>
 5    0  0.5814631E-005  0.3009408E+03  0.7546771E-02  0.1084771E+00
         21   -1    0    0  502  501  0.00000000000E+00  0.00000000000E+00  0.11362773148E+03  0.11362773148E+03  0.00000000000E+00 0.  1.
         21   -1    0    0  501  502 -0.00000000000E+00 -0.00000000000E+00 -0.79703593466E+03  0.79703593466E+03  0.00000000000E+00 0.  1.
         25    1    1    2    0    0 -0.11156357188E+03 -0.91883430903E+01 -0.85219142792E+02  0.18819712675E+03  0.12500000000E+03 0.  0.
         25    1    1    2    0    0  0.15837365385E+03 -0.23577931689E+02 -0.14682390491E+03  0.25063996519E+03  0.12500000000E+03 0.  0.
         25    1    1    2    0    0 -0.46810081966E+02  0.32766274780E+02 -0.45136515548E+03  0.47182657420E+03  0.12500000000E+03 0.  0.
</event>
<event>
 5    0  0.5660959E-005  0.4777775E+03  0.7546771E-02  0.1019748E+00
         21   -1    0    0  502  501  0.00000000000E+00  0.00000000000E+00  0.29213865849E+03  0.29213865849E+03  0.00000000000E+00 0.  1.
         21   -1    0    0  501  502 -0.00000000000E+00 -0.00000000000E+00 -0.78138000460E+03  0.78138000460E+03  0.00000000000E+00 0. -1.
         25    1    1    2    0    0  0.22025908891E+03  0.20921437144E+03  0.35888092920E+02  0.33045071444E+03  0.12500000000E+03 0.  0.
         25    1    1    2    0    0 -0.23697910554E+03 -0.53233829415E+02 -0.13569207340E+03  0.30500864879E+03  0.12500000000E+03 0.  0.
         25    1    1    2    0    0  0.16720016625E+02 -0.15598054202E+03 -0.38943736562E+03  0.43805929985E+03  0.12500000000E+03 0.  0.
</event>
<event>
 5    0  0.5660959E-005  0.2775492E+03  0.7546771E-02  0.1097035E+00
         21   -1    0    0  502  501  0.00000000000E+00  0.00000000000E+00  0.16362182788E+03  0.16362182788E+03  0.00000000000E+00 0.  1.
         21   -1    0    0  501  502 -0.00000000000E+00 -0.00000000000E+00 -0.47080253640E+03  0.47080253640E+03  0.00000000000E+00 0.  1.
         25    1    1    2    0    0  0.21127199365E+02  0.20682732315E+02  0.42396771318E+02  0.13526499986E+03  0.12500000000E+03 0.  0.
         25    1    1    2    0    0  0.62132699583E+02  0.46498395518E+02 -0.46503695161E+02  0.15430543350E+03  0.12500000000E+03 0.  0.
         25    1    1    2    0    0 -0.83259898949E+02 -0.67181127833E+02 -0.30307378468E+03  0.34485393091E+03  0.12500000000E+03 0.  0.
</event>
<event>
 5    0  0.5660959E-005  0.3197394E+03  0.7546771E-02  0.1075769E+00
         21   -1    0    0  502  501  0.00000000000E+00  0.00000000000E+00  0.37795156322E+03  0.37795156322E+03  0.00000000000E+00 0. -1.
         21   -1    0    0  501  502 -0.00000000000E+00 -0.00000000000E+00 -0.27049312508E+03  0.27049312508E+03  0.00000000000E+00 0. -1.
         25    1    1    2    0    0 -0.43274327649E+02  0.10752449405E+03 -0.70467035425E+02  0.18445809100E+03  0.12500000000E+03 0.  0.
         25    1    1    2    0    0 -0.30421990429E+02 -0.14642991981E+03  0.23317901893E+03  0.30391557016E+03  0.12500000000E+03 0.  0.
         25    1    1    2    0    0  0.73696318078E+02  0.38905425751E+02 -0.55253545363E+02  0.16007102713E+03  0.12500000000E+03 0.  0.
</event>
<event>
 5    0  0.5660959E-005  0.2724083E+03  0.7546771E-02  0.1099909E+00
         21   -1    0    0  502  501  0.00000000000E+00  0.00000000000E+00  0.57500630798E+03  0.57500630798E+03  0.00000000000E+00 0. -1.
         21   -1    0    0  501  502 -0.00000000000E+00 -0.00000000000E+00 -0.12905298343E+03  0.12905298343E+03  0.00000000000E+00 0. -1.
         25    1    1    2    0    0  0.85230706467E+02 -0.36487808995E+02  0.25555150533E+02  0.15771397924E+03  0.12500000000E+03 0.  0.
         25    1    1    2    0    0  0.18175451396E+02  0.85694362589E+02  0.30562267676E+03  0.34161980528E+03  0.12500000000E+03 0.  0.
         25    1    1    2    0    0 -0.10340615786E+03 -0.49206553595E+02  0.11477549726E+03  0.20472550689E+03  0.12500000000E+03 0.  0.
</event>
<event>
 5    0  0.5660959E-005  0.2448666E+03  0.7546771E-02  0.1116593E+00
         21   -1    0    0  502  501  0.00000000000E+00  0.00000000000E+00  0.56525025970E+03  0.56525025970E+03  0.00000000000E+00 0.  1.
         21   -1    0    0  501  502 -0.00000000000E+00 -0.00000000000E+00 -0.10607630324E+03  0.10607630324E+03  0.00000000000E+00 0.  1.
         25    1    1    2    0    0 -0.40690355511E+02 -0.14957670568E+02  0.21484490424E+03  0.25231482283E+03  0.12500000000E+03 0.  0.
         25    1    1    2    0    0  0.64236516678E+02  0.64130516891E+02  0.23641347483E+03  0.28240995796E+03  0.12500000000E+03 0.  0.
         25    1    1    2    0    0 -0.23546161168E+02 -0.49172846323E+02  0.79155773897E+01  0.13660178215E+03  0.12500000000E+03 0.  0.
</event>
<event>
 5    0  0.5660959E-005  0.3055576E+03  0.7546771E-02  0.1082495E+00
         21   -1    0    0  502  501  0.00000000000E+00  0.00000000000E+00  0.38961148602E+03  0.38961148602E+03  0.00000000000E+00 0. -1.
         21   -1    0    0  501  502 -0.00000000000E+00 -0.00000000000E+00 -0.23963735955E+03  0.23963735955E+03  0.00000000000E+00 0. -1.
         25    1    1    2    0    0 -0.17997936138E+03  0.50423240729E+02  0.21063455053E+02  0.22584008250E+03  0.12500000000E+03 0.  0.
         25    1    1    2    0    0  0.10291316036E+03 -0.23732219414E+02  0.18222498905E+03  0.24491893240E+03  0.12500000000E+03 0.  0.
         25    1    1    2    0    0  0.77066201019E+02 -0.26691021315E+02 -0.53314317635E+02  0.15848983066E+03  0.12500000000E+03 0.  0.
</event>
<event>
 5    0  0.6013122E-005  0.3647430E+03  0.7546771E-02  0.1056721E+00
         21   -1    0    0  502  501  0.00000000000E+00  0.00000000000E+00  0.24769609532E+03  0.24769609532E+03  0.00000000000E+00 0. -1.
         21   -1    0    0  501  502 -0.00000000000E+00 -0.00000000000E+00 -0.53709966514E+03  0.53709966514E+03  0.00000000000E+00 0. -1.
         25    1    1    2    0    0  0.43819224101E+02 -0.19090310948E+03 -0.24289483586E+03  0.33613542345E+03  0.12500000000E+03 0.  0.
         25    1    1    2    0    0 -0.32486662528E+02  0.22279772389E+03 -0.13601463298E+03  0.29123734204E+03  0.12500000000E+03 0.  0.
         25    1    1    2    0    0 -0.11332561573E+02 -0.31894614410E+02  0.89505899027E+02  0.15742299496E+03  0.12500000000E+03 0.  0.
</event>
<event>
 5    0  0.6045819E-005  0.2463952E+03  0.7546771E-02  0.1115604E+00
         21   -1    0    0  502  501  0.00000000000E+00  0.00000000000E+00  0.47669953268E+03  0.47669953268E+03  0.00000000000E+00 0. -1.
         21   -1    0    0  501  502 -0.00000000000E+00 -0.00000000000E+00 -0.12735608209E+03  0.12735608209E+03  0.00000000000E+00 0. -1.
         25    1    1    2    0    0 -0.95508491905E+02 -0.23773792774E+02  0.12325902585E+03  0.20125817425E+03  0.12500000000E+03 0.  0.
         25    1    1    2    0    0  0.14456220821E+03  0.50140783473E+01  0.17084776157E+03  0.25639292240E+03  0.12500000000E+03 0.  0.
         25    1    1    2    0    0 -0.49053716309E+02  0.18759714426E+02  0.55236663173E+02  0.14640451813E+03  0.12500000000E+03 0.  0.
</event>
<event>
 5    0  0.5660959E-005  0.2487390E+03  0.7546771E-02  0.1114104E+00
         21   -1    0    0  502  501  0.00000000000E+00  0.00000000000E+00  0.63716513535E+02  0.63716513535E+02  0.00000000000E+00 0.  1.
         21   -1    0    0  501  502 -0.00000000000E+00 -0.00000000000E+00 -0.97103716765E+03  0.97103716765E+03  0.00000000000E+00 0.  1.
         25    1    1    2    0    0 -0.23557545715E+02  0.82489076593E+02 -0.49611954858E+03  0.51876681872E+03  0.12500000000E+03 0.  0.
         25    1    1    2    0    0 -0.29824763309E+02 -0.10949027052E+03 -0.18280425184E+03  0.24883735719E+03  0.12500000000E+03 0.  0.
         25    1    1    2    0    0  0.53382309024E+02  0.27001193927E+02 -0.22839685369E+03  0.26714950527E+03  0.12500000000E+03 0.  0.
</event>
<event>
 5    0  0.5660959E-005  0.4145035E+03  0.7546771E-02  0.1038870E+00
         21   -1    0    0  502  501  0.00000000000E+00  0.00000000000E+00  0.22182158452E+03  0.22182158452E+03  0.00000000000E+00 0.  1.
         21   -1    0    0  501  502 -0.00000000000E+00 -0.00000000000E+00 -0.77455551412E+03  0.77455551412E+03  0.00000000000E+00 0. -1.
         25    1    1    2    0    0 -0.85909659479E+02  0.76612046273E+02 -0.21262471682E+03  0.27218402860E+03  0.12500000000E+03 0.  0.
         25    1    1    2    0    0  0.29630153395E+03 -0.12655333273E+03 -0.32429939507E+03  0.47392556661E+03  0.12500000000E+03 0.  0.
         25    1    1    2    0    0 -0.21039187447E+03  0.49941286460E+02 -0.15809817711E+02  0.25026750343E+03  0.12500000000E+03 0.  0.
</event>
<event>
 5    0  0.5660959E-005  0.2769637E+03  0.7546771E-02  0.1097359E+00
         21   -1    0    0  502  501  0.00000000000E+00  0.00000000000E+00  0.59199111207E+03  0.59199111207E+03  0.00000000000E+00 0.  1.
         21   -1    0    0  501  502 -0.00000000000E+00 -0.00000000000E+00 -0.12957780087E+03  0.12957780087E+03  0.00000000000E+00 0.  1.
         25    1    1    2    0    0 -0.10647133939E+03 -0.58219045823E+02  0.39073073684E+02  0.17854217567E+03  0.12500000000E+03 0.  0.
         25    1    1    2    0    0  0.14245792322E+03  0.48405886162E+02  0.17478660833E+03  0.26232184079E+03  0.12500000000E+03 0.  0.
         25    1    1    2    0    0 -0.35986583835E+02  0.98131596608E+01  0.24855362919E+03  0.28070489647E+03  0.12500000000E+03 0.  0.
</event>
<event>
 5    0  0.5660959E-005  0.2666475E+03  0.7546771E-02  0.1103214E+00
         21   -1    0    0  502  501  0.00000000000E+00  0.00000000000E+00  0.29617725536E+03  0.29617725536E+03  0.00000000000E+00 0.  1.
         21   -1    0    0  501  502 -0.00000000000E+00 -0.00000000000E+00 -0.24006202093E+03  0.24006202093E+03  0.00000000000E+00 0.  1.
         25    1    1    2    0    0 -0.75172103996E+02  0.23206945356E+02 -0.55012809881E+02  0.15760969762E+03  0.12500000000E+03 0.  0.
         25    1    1    2    0    0  0.10975605657E+03  0.38104610983E+02 -0.34611083355E+02  0.17413006755E+03  0.12500000000E+03 0.  0.
         25    1    1    2    0    0 -0.34583952578E+02 -0.61311556340E+02  0.14573912767E+03  0.20449951112E+03  0.12500000000E+03 0.  0.
</event>
<event>
 5    0  0.5782466E-005  0.2970353E+03  0.7546771E-02  0.1086732E+00
         21   -1    0    0  502  501  0.00000000000E+00  0.00000000000E+00  0.80788864190E+02  0.80788864190E+02  0.00000000000E+00 0. -1.
         21   -1    0    0  501  502 -0.00000000000E+00 -0.00000000000E+00 -0.10921056219E+04  0.10921056219E+04  0.00000000000E+00 0. -1.
         25    1    1    2    0    0  0.32541835354E+02 -0.75669384244E+02 -0.15026793938E+03  0.21210912372E+03  0.12500000000E+03 0.  0.
         25    1    1    2    0    0 -0.15426148997E+03  0.70766296946E+02 -0.66830141836E+03  0.70075406660E+03  0.12500000000E+03 0.  0.
         25    1    1    2    0    0  0.12171965461E+03  0.49030872979E+01 -0.19274739995E+03  0.26003129576E+03  0.12500000000E+03 0.  0.
</event>
<event>
 5    0  0.5660959E-005  0.3940108E+03  0.7546771E-02  0.1045873E+00
         21   -1    0    0  502  501  0.00000000000E+00  0.00000000000E+00  0.15134008635E+03  0.15134008635E+03  0.00000000000E+00 0. -1.
         21   -1    0    0  501  502 -0.00000000000E+00 -0.00000000000E+00 -0.10257988515E+04  0.10257988515E+04  0.00000000000E+00 0. -1.
         25    1    1    2    0    0  0.15735652504E+03 -0.32387335632E+02 -0.82283009361E+03  0.84763457836E+03  0.12500000000E+03 0.  0.
         25    1    1    2    0    0 -0.15144368998E+03  0.37243572387E+02 -0.38974313787E+02  0.20363268906E+03  0.12500000000E+03 0.  0.
         25    1    1    2    0    0 -0.59128350593E+01 -0.48562367554E+01 -0.12654357789E+02  0.12587167046E+03  0.12500000000E+03 0.  0.
</event>
<event>
 5    0  0.5660959E-005  0.3898365E+03  0.7546771E-02  0.1047357E+00
         21   -1    0    0  502  501  0.00000000000E+00  0.00000000000E+00  0.76036927607E+03  0.76036927607E+03  0.00000000000E+00 0. -1.
         21   -1    0    0  501  502 -0.00000000000E+00 -0.00000000000E+00 -0.19986672720E+03  0.19986672720E+03  0.00000000000E+00 0. -1.
         25    1    1    2    0    0 -0.12296364970E+03  0.11800432741E+03  0.16332045699E+03  0.26710232516E+03  0.12500000000E+03 0.  0.
         25    1    1    2    0    0  0.16234644434E+03 -0.22374185023E+03  0.42528913996E+03  0.52241040964E+03  0.12500000000E+03 0.  0.
         25    1    1    2    0    0 -0.39382794639E+02  0.10573752283E+03 -0.28107048072E+02  0.17072326847E+03  0.12500000000E+03 0.  0.
</event>
<event>
 5    0  0.5660959E-005  0.3493372E+03  0.7546771E-02  0.1062887E+00
         21   -1    0    0  502  501  0.00000000000E+00  0.00000000000E+00  0.55039873752E+03  0.55039873752E+03  0.00000000000E+00 0.  1.
         21   -1    0    0  501  502 -0.00000000000E+00 -0.00000000000E+00 -0.22172378421E+03  0.22172378421E+03  0.00000000000E+00 0.  1.
         25    1    1    2    0    0  0.12111193884E+03  0.18577601999E+03 -0.53108044377E+02  0.26005056376E+03  0.12500000000E+03 0.  0.
         25    1    1    2    0    0 -0.97677597552E+02 -0.97133809110E+02  0.21751575528E+03  0.28620620840E+03  0.12500000000E+03 0.  0.
         25    1    1    2    0    0 -0.23434341290E+02 -0.88642210876E+02  0.16426724241E+03  0.22586574957E+03  0.12500000000E+03 0.  0.
</event>
<event>
 5    0  0.5660959E-005  0.3364099E+03  0.7546771E-02  0.1068335E+00
         21   -1    0    0  502  501  0.00000000000E+00  0.00000000000E+00  0.18352634337E+03  0.18352634337E+03  0.00000000000E+00 0.  1.
         21   -1    0    0  501  502 -0.00000000000E+00 -0.00000000000E+00 -0.61665042330E+03  0.61665042330E+03  0.00000000000E+00 0.  1.
         25    1    1    2    0    0  0.37139841497E+02 -0.61289470807E+02  0.30757386134E+02  0.14733222275E+03  0.12500000000E+03 0.  0.
         25    1    1    2    0    0 -0.13010554084E+03  0.11116630098E+03 -0.43889051551E+03  0.48737591532E+03  0.12500000000E+03 0.  0.
         25    1    1    2    0    0  0.92965699340E+02 -0.49876830177E+02 -0.24990950551E+02  0.16546862860E+03  0.12500000000E+03 0.  0.
</event>
<event>
 5    0  0.5660959E-005  0.2531665E+03  0.7546771E-02  0.1111320E+00
         21   -1    0    0  502  501  0.00000000000E+00  0.00000000000E+00  0.22674248667E+04  0.22674248667E+04  0.00000000000E+00 0. -1.
         21   -1    0    0  501  502 -0.00000000000E+00 -0.00000000000E+00 -0.28266992325E+02  0.28266992325E+02  0.00000000000E+00 0. -1.
         25    1    1    2    0    0 -0.11220132771E+03 -0.36710930473E+02  0.52505447612E+03  0.55248894400E+03  0.12500000000E+03 0.  0.
         25    1    1    2    0    0  0.65020808749E+02  0.39223686063E+02  0.47741919836E+03  0.49931983145E+03  0.12500000000E+03 0.  0.
         25    1    1    2    0    0  0.47180518965E+02 -0.25127555901E+01  0.12366841999E+04  0.12438830835E+04  0.12500000000E+03 0.  0.
</event>
<event>
 5    0  0.5660959E-005  0.3668463E+03  0.7546771E-02  0.1055905E+00
         21   -1    0    0  502  501  0.00000000000E+00  0.00000000000E+00  0.14248048566E+03  0.14248048566E+03  0.00000000000E+00 0.  1.
         21   -1    0    0  501  502 -0.00000000000E+00 -0.00000000000E+00 -0.94452368947E+03  0.94452368947E+03  0.00000000000E+00 0.  1.
         25    1    1    2    0    0  0.51991562085E+02  0.99206159466E+02 -0.43279390690E+03  0.46419882642E+03  0.12500000000E+03 0.  0.
         25    1    1    2    0    0 -0.19754497774E+02  0.16156586190E+03 -0.19803195056E+03  0.28519365589E+03  0.12500000000E+03 0.  0.
         25    1    1    2    0    0 -0.32237064311E+02 -0.26077202137E+03 -0.17121734635E+03  0.33761169283E+03  0.12500000000E+03 0.  0.
</event>
<event>
 5    0  0.5660959E-005  0.3725811E+03  0.7546771E-02  0.1053710E+00
         21   -1    0    0  502  501  0.00000000000E+00  0.00000000000E+00  0.11114383977E+04  0.11114383977E+04  0.00000000000E+00 0.  1.
         21   -1    0    0  501  502 -0.00000000000E+00 -0.00000000000E+00 -0.12489819478E+03  0.12489819478E+03  0.00000000000E+00 0.  1.
         25    1    1    2    0    0  0.16457575016E+03  0.16452343454E+03  0.78783221759E+03  0.83093786840E+03  0.12500000000E+03 0.  0.
         25    1    1    2    0    0 -0.64413799076E+02 -0.98693796027E+02  0.14286437664E+03  0.22343865601E+03  0.12500000000E+03 0.  0.
         25    1    1    2    0    0 -0.10016195108E+03 -0.65829638517E+02  0.55843608725E+02  0.18196006811E+03  0.12500000000E+03 0.  0.
</event>
<event>
 5    0  0.5660959E-005  0.5850255E+03  0.7546771E-02  0.9936970E-01
         21   -1    0    0  502  501  0.00000000000E+00  0.00000000000E+00  0.35864496780E+03  0.35864496780E+03  0.00000000000E+00 0. -1.
         21   -1    0    0  501  502 -0.00000000000E+00 -0.00000000000E+00 -0.95429998980E+03  0.95429998980E+03  0.00000000000E+00 0. -1.
         25    1    1    2    0    0 -0.16234668146E+03 -0.19468410081E+03 -0.12457158325E+02  0.28291080729E+03  0.12500000000E+03 0.  0.
         25    1    1    2    0    0 -0.23904037399E+03  0.27890608685E+03 -0.13767618337E+03  0.41171426639E+03  0.12500000000E+03 0.  0.
         25    1    1    2    0    0  0.40138705546E+03 -0.84221986039E+02 -0.44552168032E+03  0.61831988392E+03  0.12500000000E+03 0.  0.
</event>
<event>
 5    0  0.5660959E-005  0.3591654E+03  0.7546771E-02  0.1058915E+00
         21   -1    0    0  502  501  0.00000000000E+00  0.00000000000E+00  0.19470621195E+04  0.19470621195E+04  0.00000000000E+00 0. -1.
         21   -1    0    0  501  502 -0.00000000000E+00 -0.00000000000E+00 -0.66253544336E+02  0.66253544336E+02  0.00000000000E+00 0. -1.
         25    1    1    2    0    0 -0.15012973414E+02  0.68339994653E+02  0.62227712908E+03  0.63855271483E+03  0.12500000000E+03 0.  0.
         25    1    1    2    0    0 -0.18190429730E+02 -0.20240827643E+03  0.23667515790E+03  0.33606566690E+03  0.12500000000E+03 0.  0.
         25    1    1    2    0    0  0.33203403144E+02  0.13406828177E+03  0.10218562882E+04  0.10386972821E+04  0.12500000000E+03 0.  0.
</event>
<event>
 5    0  0.5660959E-005  0.3915161E+03  0.7546771E-02  0.1046758E+00
         21   -1    0    0  502  501  0.00000000000E+00  0.00000000000E+00  0.13009262406E+03  0.13009262406E+03  0.00000000000E+00 0. -1.
         21   -1    0    0  501  502 -0.00000000000E+00 -0.00000000000E+00 -0.11782746943E+04  0.11782746943E+04  0.00000000000E+00 0. -1.
         25    1    1    2    0    0  0.15637059280E+02  0.44154449085E+02 -0.72955291783E+03  0.74166474428E+03  0.12500000000E+03 0.  0.
         25    1    1    2    0    0  0.14970696491E+03  0.86778426658E+01 -0.29185520263E+03  0.35112951969E+03  0.12500000000E+03 0.  0.
         25    1    1    2    0    0 -0.16534402419E+03 -0.52832291751E+02 -0.26773949764E+02  0.21557305437E+03  0.12500000000E+03 0.  0.
</event>
<event>
 5    0  0.5660959E-005  0.2405500E+03  0.7546771E-02  0.1119427E+00
         21   -1    0    0  502  501  0.00000000000E+00  0.00000000000E+00  0.13350458160E+03  0.13350458160E+03  0.00000000000E+00 0. -1.
         21   -1    0    0  501  502 -0.00000000000E+00 -0.00000000000E+00 -0.43342554008E+03  0.43342554008E+03  0.00000000000E+00 0. -1.
         25    1    1    2    0    0 -0.82162920463E+01  0.82143249533E+02 -0.14313755255E+03  0.20719165005E+03  0.12500000000E+03 0.  0.
         25    1    1    2    0    0 -0.12436503494E+02  0.53531159009E+02 -0.48932025553E+02  0.14505031792E+03  0.12500000000E+03 0.  0.
         25    1    1    2    0    0  0.20652795540E+02 -0.13567440854E+03 -0.10785138038E+03  0.21468815372E+03  0.12500000000E+03 0.  0.
</event>
<event>
 5    0  0.5660959E-005  0.2317305E+03  0.7546771E-02  0.1125428E+00
         21   -1    0    0  502  501  0.00000000000E+00  0.00000000000E+00  0.38703765802E+03  0.38703765802E+03  0.00000000000E+00 0.  1.
         21   -1    0    0  501  502 -0.00000000000E+00 -0.00000000000E+00 -0.13874372160E+03  0.13874372160E+03  0.00000000000E+00 0.  1.
         25    1    1    2    0    0 -0.45603482406E+02 -0.23268436573E+02  0.45121347596E+02  0.14241500538E+03  0.12500000000E+03 0.  0.
         25    1    1    2    0    0 -0.50687033977E+02  0.19640568233E+02  0.17696634862E+03  0.22337639956E+03  0.12500000000E+03 0.  0.
         25    1    1    2    0    0  0.96290516383E+02  0.36278683397E+01  0.26206240196E+02  0.15998997468E+03  0.12500000000E+03 0.  0.
</event>
<event>
 5    0  0.5660959E-005  0.3817564E+03  0.7546771E-02  0.1050286E+00
         21   -1    0    0  502  501  0.00000000000E+00  0.00000000000E+00  0.20614249349E+03  0.20614249349E+03  0.00000000000E+00 0.  1.
         21   -1    0    0  501  502 -0.00000000000E+00 -0.00000000000E+00 -0.70697671051E+03  0.70697671051E+03  0.00000000000E+00 0.  1.
         25    1    1    2    0    0  0.22560326745E+03  0.35808619353E+02  0.38854427665E+02  0.26327506158E+03  0.12500000000E+03 0.  0.
         25    1    1    2    0    0 -0.19312796293E+03 -0.14675077954E+02 -0.36198045252E+03  0.42914871080E+03  0.12500000000E+03 0.  0.
         25    1    1    2    0    0 -0.32475304516E+02 -0.21133541399E+02 -0.17770819216E+03  0.22069543162E+03  0.12500000000E+03 0.  0.
</event>
<event>
 5    0  0.5660959E-005  0.2373593E+03  0.7546771E-02  0.1121565E+00
         21   -1    0    0  502  501  0.00000000000E+00  0.00000000000E+00  0.15704790770E+03  0.15704790770E+03  0.00000000000E+00 0. -1.
         21   -1    0    0  501  502 -0.00000000000E+00 -0.00000000000E+00 -0.35874030578E+03  0.35874030578E+03  0.00000000000E+00 0. -1.
         25    1    1    2    0    0  0.26245789341E+02  0.85693669164E+02 -0.71326789988E+02  0.16954278918E+03  0.12500000000E+03 0.  0.
         25    1    1    2    0    0 -0.95014875954E+02 -0.83898297151E+01 -0.79518078906E+02  0.17619971841E+03  0.12500000000E+03 0.  0.
         25    1    1    2    0    0  0.68769086613E+02 -0.77303839449E+02 -0.50847529189E+02  0.17004570589E+03  0.12500000000E+03 0.  0.
</event>
<event>
 5    0  0.5660959E-005  0.4612638E+03  0.7546771E-02  0.1024415E+00
         21   -1    0    0  502  501  0.00000000000E+00  0.00000000000E+00  0.31622042970E+03  0.31622042970E+03  0.00000000000E+00 0.  1.
         21   -1    0    0  501  502 -0.00000000000E+00 -0.00000000000E+00 -0.67283527673E+03  0.67283527673E+03  0.00000000000E+00 0.  1.
         25    1    1    2    0    0  0.31078205375E+02  0.32718699004E+03 -0.27177756851E+03  0.44441560284E+03  0.12500000000E+03 0.  0.
         25    1    1    2    0    0  0.14482368251E+03 -0.21853924575E+03 -0.86437731844E+02  0.30303429251E+03  0.12500000000E+03 0.  0.
         25    1    1    2    0    0 -0.17590188789E+03 -0.10864774429E+03  0.16004533246E+01  0.24160581109E+03  0.12500000000E+03 0.  0.
</event>
<event>
 5    0  0.6814561E-005  0.5501493E+03  0.7546771E-02  0.1001459E+00
         21   -1    0    0  502  501  0.00000000000E+00  0.00000000000E+00  0.30950332303E+03  0.30950332303E+03  0.00000000000E+00 0. -1.
         21   -1    0    0  501  502 -0.00000000000E+00 -0.00000000000E+00 -0.97790319741E+03  0.97790319741E+03  0.00000000000E+00 0. -1.
         25    1    1    2    0    0 -0.41907881428E+03 -0.76999812409E+02 -0.40498389137E+03  0.60099332438E+03  0.12500000000E+03 0.  0.
         25    1    1    2    0    0  0.29349290460E+03  0.11785827599E+03  0.29807190766E+02  0.34138266929E+03  0.12500000000E+03 0.  0.
         25    1    1    2    0    0  0.12558590967E+03 -0.40858463580E+02 -0.29322317378E+03  0.34503052676E+03  0.12500000000E+03 0.  0.
</event>
<event>
 5    0  0.6878711E-005  0.2908119E+03  0.7546771E-02  0.1089926E+00
         21   -1    0    0  502  501  0.00000000000E+00  0.00000000000E+00  0.24134661677E+03  0.24134661677E+03  0.00000000000E+00 0. -1.
         21   -1    0    0  501  502 -0.00000000000E+00 -0.00000000000E+00 -0.35041542695E+03  0.35041542695E+03  0.00000000000E+00 0. -1.
         25    1    1    2    0    0  0.32084583976E+02  0.19164193834E+02  0.73018280444E+02  0.14951038804E+03  0.12500000000E+03 0.  0.
         25    1    1    2    0    0 -0.16091530073E+03 -0.92751596554E+01 -0.16369455037E+03  0.26153521449E+03  0.12500000000E+03 0.  0.
         25    1    1    2    0    0  0.12883071676E+03 -0.98890341788E+01 -0.18392540251E+02  0.18071644118E+03  0.12500000000E+03 0.  0.
</event>
<event>
 5    0  0.5660959E-005  0.3213051E+03  0.7546771E-02  0.1075050E+00
         21   -1    0    0  502  501  0.00000000000E+00  0.00000000000E+00  0.20916185360E+03  0.20916185360E+03  0.00000000000E+00 0. -1.
         21   -1    0    0  501  502 -0.00000000000E+00 -0.00000000000E+00 -0.49357459105E+03  0.49357459105E+03  0.00000000000E+00 0. -1.
         25    1    1    2    0    0 -0.93875556428E+02  0.28041869466E+02  0.55039629881E+02  0.16808726125E+03  0.12500000000E+03 0.  0.
         25    1    1    2    0    0  0.79163512356E+02 -0.13076868638E+03 -0.31294725573E+03  0.37003823572E+03  0.12500000000E+03 0.  0.
         25    1    1    2    0    0  0.14712044072E+02  0.10272681691E+03 -0.26505111601E+02  0.16461094767E+03  0.12500000000E+03 0.  0.
</event>
<event>
 5    0  0.5660959E-005  0.2161123E+03  0.7546771E-02  0.1136815E+00
         21   -1    0    0  502  501  0.00000000000E+00  0.00000000000E+00  0.13906561305E+03  0.13906561305E+03  0.00000000000E+00 0. -1.
         21   -1    0    0  501  502 -0.00000000000E+00 -0.00000000000E+00 -0.33584524163E+03  0.33584524163E+03  0.00000000000E+00 0. -1.
         25    1    1    2    0    0  0.47249105991E+02 -0.38261792415E+01 -0.43955854309E+02  0.14072751967E+03  0.12500000000E+03 0.  0.
         25    1    1    2    0    0 -0.50097233709E+02 -0.69913601542E+02 -0.70559311770E+02  0.16733577317E+03  0.12500000000E+03 0.  0.
         25    1    1    2    0    0  0.28481277186E+01  0.73739780783E+02 -0.82264462503E+02  0.16684756184E+03  0.12500000000E+03 0.  0.
</event>
<event>
 5    0  0.5660959E-005  0.2310507E+03  0.7546771E-02  0.1125902E+00
         21   -1    0    0  502  501  0.00000000000E+00  0.00000000000E+00  0.27237354771E+04  0.27237354771E+04  0.00000000000E+00 0.  1.
         21   -1    0    0  501  502 -0.00000000000E+00 -0.00000000000E+00 -0.19599705807E+02  0.19599705807E+02  0.00000000000E+00 0.  1.
         25    1    1    2    0    0  0.21438130488E+02 -0.85726402473E+01  0.83935556703E+03  0.84892629333E+03  0.12500000000E+03 0.  0.
         25    1    1    2    0    0 -0.90660549804E+02 -0.68638477266E+02  0.83871011115E+03  0.85556427368E+03  0.12500000000E+03 0.  0.
         25    1    1    2    0    0  0.69222419317E+02  0.77211117513E+02  0.10260700931E+04  0.10388446159E+04  0.12500000000E+03 0.  0.
</event>
<event>
 5    0  0.5660959E-005  0.2731972E+03  0.7546771E-02  0.1099464E+00
         21   -1    0    0  502  501  0.00000000000E+00  0.00000000000E+00  0.35984091535E+03  0.35984091535E+03  0.00000000000E+00 0.  1.
         21   -1    0    0  501  502 -0.00000000000E+00 -0.00000000000E+00 -0.20741590597E+03  0.20741590597E+03  0.00000000000E+00 0.  1.
         25    1    1    2    0    0  0.70338283936E+02  0.24771231797E+02 -0.55017394868E+02  0.15560527578E+03  0.12500000000E+03 0.  0.
         25    1    1    2    0    0  0.30195961426E+02  0.86559455913E+02  0.57017232375E+02  0.16516749160E+03  0.12500000000E+03 0.  0.
         25    1    1    2    0    0 -0.10053424536E+03 -0.11133068771E+03  0.15042517188E+03  0.24648405395E+03  0.12500000000E+03 0.  0.
</event>
<event>
 5    0  0.5660959E-005  0.3203669E+03  0.7546771E-02  0.1075481E+00
         21   -1    0    0  502  501  0.00000000000E+00  0.00000000000E+00  0.99359030848E+03  0.99359030848E+03  0.00000000000E+00 0. -1.
         21   -1    0    0  501  502 -0.00000000000E+00 -0.00000000000E+00 -0.10329708434E+03  0.10329708434E+03  0.00000000000E+00 0. -1.
         25    1    1    2    0    0  0.17554968676E+03 -0.13942337204E+03  0.31752255115E+03  0.40829173355E+03  0.12500000000E+03 0.  0.
         25    1    1    2    0    0 -0.12897845417E+03  0.11011229183E+03  0.47797270984E+03  0.52234382336E+03  0.12500000000E+03 0.  0.
         25    1    1    2    0    0 -0.46571232590E+02  0.29311080209E+02  0.94797963149E+02  0.16625183592E+03  0.12500000000E+03 0.  0.
</event>
<event>
 5    0  0.5660959E-005  0.2912943E+03  0.7546771E-02  0.1089675E+00
         21   -1    0    0  502  501  0.00000000000E+00  0.00000000000E+00  0.29718601169E+03  0.29718601169E+03  0.00000000000E+00 0.  1.
         21   -1    0    0  501  502 -0.00000000000E+00 -0.00000000000E+00 -0.28551943486E+03  0.28551943486E+03  0.00000000000E+00 0.  1.
         25    1    1    2    0    0  0.72930582999E+01  0.85485478258E+02  0.63983421404E+02  0.16455951479E+03  0.12500000000E+03 0.  0.
         25    1    1    2    0    0  0.10953688247E+03  0.72842239352E+02 -0.15252299750E+02  0.18210423691E+03  0.12500000000E+03 0.  0.
         25    1    1    2    0    0 -0.11682994077E+03 -0.15832771761E+03 -0.37064544834E+02  0.23604169485E+03  0.12500000000E+03 0.  0.
</event>
<event>
 5    0  0.7062035E-005  0.2962242E+03  0.7546771E-02  0.1087143E+00
         21   -1    0    0  502  501  0.00000000000E+00  0.00000000000E+00  0.73657395231E+03  0.73657395231E+03  0.00000000000E+00 0.  1.
         21   -1    0    0  501  502 -0.00000000000E+00 -0.00000000000E+00 -0.11913101650E+03  0.11913101650E+03  0.00000000000E+00 0.  1.
         25    1    1    2    0    0  0.50557879722E+02  0.13804739825E+03  0.17496813878E+03  0.26048422784E+03  0.12500000000E+03 0.  0.
         25    1    1    2    0    0  0.57924414229E+02  0.29176538499E+02  0.26646863787E+03  0.30139184317E+03  0.12500000000E+03 0.  0.
         25    1    1    2    0    0 -0.10848229395E+03 -0.16722393675E+03  0.17600615915E+03  0.29382889780E+03  0.12500000000E+03 0.  0.
</event>
<event>
 5    0  0.5660959E-005  0.2196628E+03  0.7546771E-02  0.1134135E+00
         21   -1    0    0  502  501  0.00000000000E+00  0.00000000000E+00  0.16769383699E+03  0.16769383699E+03  0.00000000000E+00 0. -1.
         21   -1    0    0  501  502 -0.00000000000E+00 -0.00000000000E+00 -0.28773727145E+03  0.28773727145E+03  0.00000000000E+00 0. -1.
         25    1    1    2    0    0 -0.94550184812E+02  0.48142630976E+02 -0.43131535034E+02  0.16953695668E+03  0.12500000000E+03 0.  0.
         25    1    1    2    0    0  0.61668798757E+02 -0.74382697793E+01 -0.45249127880E+02  0.14673395030E+03  0.12500000000E+03 0.  0.
         25    1    1    2    0    0  0.32881386055E+02 -0.40704361197E+02 -0.31662771543E+02  0.13916020146E+03  0.12500000000E+03 0.  0.
</event>
<event>
 5    0  0.6385256E-005  0.3903159E+03  0.7546771E-02  0.1047186E+00
         21   -1    0    0  502  501  0.00000000000E+00  0.00000000000E+00  0.15176075210E+04  0.15176075210E+04  0.00000000000E+00 0.  1.
         21   -1    0    0  501  502 -0.00000000000E+00 -0.00000000000E+00 -0.10038594375E+03  0.10038594375E+03  0.00000000000E+00 0.  1.
         25    1    1    2    0    0 -0.21789388474E+03  0.56954717492E+02  0.66431660596E+03  0.71250483353E+03  0.12500000000E+03 0.  0.
         25    1    1    2    0    0  0.20410836136E+03  0.55062525871E+02  0.67810890405E+03  0.72121341549E+03  0.12500000000E+03 0.  0.
         25    1    1    2    0    0  0.13785523388E+02 -0.11201724336E+03  0.74796067291E+02  0.18427521577E+03  0.12500000000E+03 0.  0.
</event>
<event>
 5    0  0.5660959E-005  0.3691813E+03  0.7546771E-02  0.1055006E+00
         21   -1    0    0  502  501  0.00000000000E+00  0.00000000000E+00  0.23512514751E+03  0.23512514751E+03  0.00000000000E+00 0. -1.
         21   -1    0    0  501  502 -0.00000000000E+00 -0.00000000000E+00 -0.57966928284E+03  0.57966928284E+03  0.00000000000E+00 0. -1.
         25    1    1    2    0    0 -0.80326864024E+02  0.51644731032E+02  0.15751523510E+02  0.15809077715E+03  0.12500000000E+03 0.  0.
         25    1    1    2    0    0  0.16709607220E+03 -0.23268075561E+03 -0.20607940784E+03  0.37437301413E+03  0.12500000000E+03 0.  0.
         25    1    1    2    0    0 -0.86769208172E+02  0.18103602458E+03 -0.15421625100E+03  0.28233063906E+03  0.12500000000E+03 0.  0.
</event>
<event>
 5    0  0.5702867E-005  0.3956502E+03  0.7546771E-02  0.1045296E+00
         21   -1    0    0  502  501  0.00000000000E+00  0.00000000000E+00  0.30289570235E+03  0.30289570235E+03  0.00000000000E+00 0. -1.
         21   -1    0    0  501  502 -0.00000000000E+00 -0.00000000000E+00 -0.51680848442E+03  0.51680848442E+03  0.00000000000E+00 0. -1.
         25    1    1    2    0    0  0.10024192805E+03  0.17076026830E+03  0.53920253398E+02  0.24029129634E+03  0.12500000000E+03 0.  0.
         25    1    1    2    0    0  0.62777221864E+02 -0.24135822837E+03 -0.22411658024E+03  0.35783797385E+03  0.12500000000E+03 0.  0.
         25    1    1    2    0    0 -0.16301914991E+03  0.70597960072E+02 -0.43716455234E+02  0.22157491659E+03  0.12500000000E+03 0.  0.
</event>
<event>
 5    0  0.5660959E-005  0.3425921E+03  0.7546771E-02  0.1065697E+00
         21   -1    0    0  502  501  0.00000000000E+00  0.00000000000E+00  0.40178711524E+03  0.40178711524E+03  0.00000000000E+00 0. -1.
         21   -1    0    0  501  502 -0.00000000000E+00 -0.00000000000E+00 -0.29211816352E+03  0.29211816352E+03  0.00000000000E+00 0. -1.
         25    1    1    2    0    0 -0.88287570901E+02  0.11974539810E+03  0.23241242669E+03  0.30294255499E+03  0.12500000000E+03 0.  0.
         25    1    1    2    0    0  0.97845549632E+02  0.40421937199E+02 -0.83326832439E+02  0.18378260417E+03  0.12500000000E+03 0.  0.
         25    1    1    2    0    0 -0.95579787307E+01 -0.16016733530E+03 -0.39416642531E+02  0.20718011961E+03  0.12500000000E+03 0.  0.
</event>
<event>
 5    0  0.5660959E-005  0.3138453E+03  0.7546771E-02  0.1078517E+00
         21   -1    0    0  502  501  0.00000000000E+00  0.00000000000E+00  0.16999280246E+03  0.16999280246E+03  0.00000000000E+00 0. -1.
         21   -1    0    0  501  502 -0.00000000000E+00 -0.00000000000E+00 -0.57942948080E+03  0.57942948080E+03  0.00000000000E+00 0. -1.
         25    1    1    2    0    0  0.11284331630E+03  0.29428319529E+02 -0.14275670848E+03  0.22271981915E+03  0.12500000000E+03 0.  0.
         25    1    1    2    0    0 -0.77377296205E+02 -0.62665639333E+02 -0.33867242494E+03  0.37448396459E+03  0.12500000000E+03 0.  0.
         25    1    1    2    0    0 -0.35466020098E+02  0.33237319804E+02  0.71992455076E+02  0.15221849952E+03  0.12500000000E+03 0.  0.
</event>
<event>
 5    0  0.5660959E-005  0.2249901E+03  0.7546771E-02  0.1130216E+00
         21   -1    0    0  502  501  0.00000000000E+00  0.00000000000E+00  0.33527669216E+03  0.33527669216E+03  0.00000000000E+00 0.  1.
         21   -1    0    0  501  502 -0.00000000000E+00 -0.00000000000E+00 -0.15098136830E+03  0.15098136830E+03  0.00000000000E+00 0.  1.
         25    1    1    2    0    0  0.10070868836E+02  0.33995259053E+01 -0.44673815708E+02  0.13316804791E+03  0.12500000000E+03 0.  0.
         25    1    1    2    0    0 -0.40164008427E+02 -0.85403729238E+01  0.15982543848E+03  0.20701511135E+03  0.12500000000E+03 0.  0.
         25    1    1    2    0    0  0.30093139590E+02  0.51408470185E+01  0.69143701094E+02  0.14607490120E+03  0.12500000000E+03 0.  0.
</event>
<event>
 5    0  0.5660959E-005  0.3213743E+03  0.7546771E-02  0.1075019E+00
         21   -1    0    0  502  501  0.00000000000E+00  0.00000000000E+00  0.28922420388E+02  0.28922420388E+02  0.00000000000E+00 0.  1.
         21   -1    0    0  501  502 -0.00000000000E+00 -0.00000000000E+00 -0.35709827714E+04  0.35709827714E+04  0.00000000000E+00 0.  1.
         25    1    1    2    0    0  0.70703114718E+02 -0.16562152847E+03 -0.75305749682E+03  0.78431499708E+03  0.12500000000E+03 0.  0.
         25    1    1    2    0    0  0.70656551398E+02  0.60607075663E+02 -0.81151525687E+03  0.82634591910E+03  0.12500000000E+03 0.  0.
         25    1    1    2    0    0 -0.14135966612E+03  0.10501445280E+03 -0.19774875973E+04  0.19892442756E+04  0.12500000000E+03 0.  0.
</event>
<event>
 5    0  0.5660959E-005  0.2862171E+03  0.7546771E-02  0.1092341E+00
         21   -1    0    0  502  501  0.00000000000E+00  0.00000000000E+00  0.36241766319E+03  0.36241766319E+03  0.00000000000E+00 0. -1.
         21   -1    0    0  501  502 -0.00000000000E+00 -0.00000000000E+00 -0.22603812534E+03  0.22603812534E+03  0.00000000000E+00 0. -1.
         25    1    1    2    0    0  0.27378255018E+02  0.52822459026E+01  0.45496518126E+02  0.13591322280E+03  0.12500000000E+03 0.  0.
         25    1    1    2    0    0  0.23374103779E+02  0.11815956760E+03  0.17918171468E+03  0.24947769242E+03  0.12500000000E+03 0.  0.
         25    1    1    2    0    0 -0.50752358797E+02 -0.12344181350E+03 -0.88298694951E+02  0.20306487331E+03  0.12500000000E+03 0.  0.
</event>
<event>
 5    0  0.5660959E-005  0.2598936E+03  0.7546771E-02  0.1107207E+00
         21   -1    0    0  502  501  0.00000000000E+00  0.00000000000E+00  0.34489754545E+03  0.34489754545E+03  0.00000000000E+00 0. -1.
         21   -1    0    0  501  502 -0.00000000000E+00 -0.00000000000E+00 -0.19583991816E+03  0.19583991816E+03  0.00000000000E+00 0. -1.
         25    1    1    2    0    0 -0.14748012931E+03  0.37015354507E+02  0.65694915704E+02  0.20751228147E+03  0.12500000000E+03 0.  0.
         25    1    1    2    0    0  0.47744709398E+02 -0.81333703678E+02  0.36306604258E+02  0.16074171251E+03  0.12500000000E+03 0.  0.
         25    1    1    2    0    0  0.99735419910E+02  0.44318349171E+02  0.47056107336E+02  0.17248346963E+03  0.12500000000E+03 0.  0.
</event>
<event>
 5    0  0.5660959E-005  0.3026158E+03  0.7546771E-02  0.1083940E+00
         21   -1    0    0  502  501  0.00000000000E+00  0.00000000000E+00  0.11359012931E+04  0.11359012931E+04  0.00000000000E+00 0. -1.
         21   -1    0    0  501  502 -0.00000000000E+00 -0.00000000000E+00 -0.80619981812E+02  0.80619981812E+02  0.00000000000E+00 0. -1.
         25    1    1    2    0    0  0.11193301204E+03 -0.38234044848E+02  0.29546664864E+03  0.34193037570E+03  0.12500000000E+03 0.  0.
         25    1    1    2    0    0 -0.12248213623E+03 -0.72147908900E+02  0.64410443670E+03  0.67134396537E+03  0.12500000000E+03 0.  0.
         25    1    1    2    0    0  0.10549124192E+02  0.11038195375E+03  0.11571022598E+03  0.20324693388E+03  0.12500000000E+03 0.  0.
</event>
<event>
 5    0  0.5660959E-005  0.3023431E+03  0.7546771E-02  0.1084075E+00
         21   -1    0    0  502  501  0.00000000000E+00  0.00000000000E+00  0.46712404249E+03  0.46712404249E+03  0.00000000000E+00 0.  1.
         21   -1    0    0  501  502 -0.00000000000E+00 -0.00000000000E+00 -0.19568968494E+03  0.19568968494E+03  0.00000000000E+00 0.  1.
         25    1    1    2    0    0 -0.29831406415E+02 -0.14872624226E+03  0.19834544252E+03  0.27924061759E+03  0.12500000000E+03 0.  0.
         25    1    1    2    0    0  0.23120885748E+02 -0.54093112740E+02  0.29981300915E+02  0.14136661066E+03  0.12500000000E+03 0.  0.
         25    1    1    2    0    0  0.67105206667E+01  0.20281935500E+03  0.43107614125E+02  0.24220649918E+03  0.12500000000E+03 0.  0.
</event>
<event>
 5    0  0.5723682E-005  0.3631095E+03  0.7546771E-02  0.1057359E+00
         21   -1    0    0  502  501  0.00000000000E+00  0.00000000000E+00  0.10876844157E+03  0.10876844157E+03  0.00000000000E+00 0.  1.
         21   -1    0    0  501  502 -0.00000000000E+00 -0.00000000000E+00 -0.12121945213E+04  0.12121945213E+04  0.00000000000E+00 0.  1.
         25    1    1    2    0    0  0.12394023708E+03 -0.79263924347E+02 -0.42839040796E+03  0.46988008438E+03  0.12500000000E+03 0.  0.
         25    1    1    2    0    0 -0.72055134656E+02 -0.16335376748E+02 -0.66973930496E+03  0.68529885712E+03  0.12500000000E+03 0.  0.
         25    1    1    2    0    0 -0.51885102421E+02  0.95599301095E+02 -0.52963667733E+01  0.16578402132E+03  0.12500000000E+03 0.  0.
</event>
<event>
 5    0  0.5660959E-005  0.2657381E+03  0.7546771E-02  0.1103744E+00
         21   -1    0    0  502  501  0.00000000000E+00  0.00000000000E+00  0.97621799463E+02  0.97621799463E+02  0.00000000000E+00 0. -1.
         21   -1    0    0  501  502 -0.00000000000E+00 -0.00000000000E+00 -0.72337084864E+03  0.72337084864E+03  0.00000000000E+00 0. -1.
         25    1    1    2    0    0  0.14459739350E+02 -0.11234367853E+03 -0.96539840804E+02  0.19435824405E+03  0.12500000000E+03 0.  0.
         25    1    1    2    0    0 -0.14887707947E+02  0.24526427101E+02 -0.41920518232E+03  0.43838473327E+03  0.12500000000E+03 0.  0.
         25    1    1    2    0    0  0.42796859741E+00  0.87817251426E+02 -0.11000402605E+03  0.18824967079E+03  0.12500000000E+03 0.  0.
</event>
<event>
 5    0  0.5660959E-005  0.3158978E+03  0.7546771E-02  0.1077553E+00
         21   -1    0    0  502  501  0.00000000000E+00  0.00000000000E+00  0.68175570037E+03  0.68175570037E+03  0.00000000000E+00 0. -1.
         21   -1    0    0  501  502 -0.00000000000E+00 -0.00000000000E+00 -0.14637416112E+03  0.14637416112E+03  0.00000000000E+00 0. -1.
         25    1    1    2    0    0 -0.10914269757E+03 -0.75373479703E+01  0.25790931016E+03  0.30677541022E+03  0.12500000000E+03 0.  0.
         25    1    1    2    0    0 -0.86814193703E+02 -0.31706197485E+02  0.23511009689E+03  0.28185766771E+03  0.12500000000E+03 0.  0.
         25    1    1    2    0    0  0.19595689127E+03  0.39243545455E+02  0.42362132198E+02  0.23949678357E+03  0.12500000000E+03 0.  0.
</event>
<event>
 5    0  0.6681262E-005  0.3689484E+03  0.7546771E-02  0.1055096E+00
         21   -1    0    0  502  501  0.00000000000E+00  0.00000000000E+00  0.43659753847E+03  0.43659753847E+03  0.00000000000E+00 0. -1.
         21   -1    0    0  501  502 -0.00000000000E+00 -0.00000000000E+00 -0.31178128381E+03  0.31178128381E+03  0.00000000000E+00 0. -1.
         25    1    1    2    0    0 -0.41055840659E+02  0.11381924297E+03  0.12740098177E+03  0.21563026754E+03  0.12500000000E+03 0.  0.
         25    1    1    2    0    0 -0.70297696992E+02  0.12977475907E+03 -0.10482671724E+03  0.21999294293E+03  0.12500000000E+03 0.  0.
         25    1    1    2    0    0  0.11135353765E+03 -0.24359400203E+03  0.10224199012E+03  0.31275561181E+03  0.12500000000E+03 0.  0.
</event>
<event>
 5    0  0.5660959E-005  0.2573057E+03  0.7546771E-02  0.1108773E+00
         21   -1    0    0  502  501  0.00000000000E+00  0.00000000000E+00  0.11399336683E+04  0.11399336683E+04  0.00000000000E+00 0.  1.
         21   -1    0    0  501  502 -0.00000000000E+00 -0.00000000000E+00 -0.58079013999E+02  0.58079013999E+02  0.00000000000E+00 0.  1.
         25    1    1    2    0    0 -0.13785660197E+02 -0.69837466591E+02  0.31794216161E+03  0.34896924548E+03  0.12500000000E+03 0.  0.
         25    1    1    2    0    0 -0.56521839061E+02 -0.83406714316E+02  0.32036151647E+03  0.35834047988E+03  0.12500000000E+03 0.  0.
         25    1    1    2    0    0  0.70307499258E+02  0.15324418091E+03  0.44355097619E+03  0.49070295690E+03  0.12500000000E+03 0.  0.
</event>
<event>
 5    0  0.5660959E-005  0.3218320E+03  0.7546771E-02  0.1074809E+00
         21   -1    0    0  502  501  0.00000000000E+00  0.00000000000E+00  0.38519950851E+03  0.38519950851E+03  0.00000000000E+00 0.  1.
         21   -1    0    0  501  502 -0.00000000000E+00 -0.00000000000E+00 -0.26888873836E+03  0.26888873836E+03  0.00000000000E+00 0.  1.
         25    1    1    2    0    0 -0.18931237454E+02 -0.33782876928E+02 -0.67195016062E+02  0.14710487656E+03  0.12500000000E+03 0.  0.
         25    1    1    2    0    0 -0.44943974315E+02 -0.14220299908E+03  0.20278139377E+03  0.28104616602E+03  0.12500000000E+03 0.  0.
         25    1    1    2    0    0  0.63875211769E+02  0.17598587601E+03 -0.19275607567E+02  0.22593720429E+03  0.12500000000E+03 0.  0.
</event>
<event>
 5    0  0.5660959E-005  0.2682245E+03  0.7546771E-02  0.1102300E+00
         21   -1    0    0  502  501  0.00000000000E+00  0.00000000000E+00  0.86977131140E+02  0.86977131140E+02  0.00000000000E+00 0.  1.
         21   -1    0    0  501  502 -0.00000000000E+00 -0.00000000000E+00 -0.82716407246E+03  0.82716407246E+03  0.00000000000E+00 0.  1.
         25    1    1    2    0    0  0.11978110865E+03 -0.89286883297E+02 -0.29177414261E+03  0.35082304915E+03  0.12500000000E+03 0.  0.
         25    1    1    2    0    0  0.48506380384E+01  0.58900088190E+02 -0.30138669410E+03  0.33158963865E+03  0.12500000000E+03 0.  0.
         25    1    1    2    0    0 -0.12463174669E+03  0.30386795107E+02 -0.14702610461E+03  0.23172851580E+03  0.12500000000E+03 0.  0.
</event>
<event>
 5    0  0.5660959E-005  0.4486774E+03  0.7546771E-02  0.1028117E+00
         21   -1    0    0  502  501  0.00000000000E+00  0.00000000000E+00  0.72180610099E+03  0.72180610099E+03  0.00000000000E+00 0.  1.
         21   -1    0    0  501  502 -0.00000000000E+00 -0.00000000000E+00 -0.27889961391E+03  0.27889961391E+03  0.00000000000E+00 0.  1.
         25    1    1    2    0    0 -0.60718373303E+02  0.89454643090E+02 -0.99474821791E+02  0.19289658939E+03  0.12500000000E+03 0.  0.
         25    1    1    2    0    0 -0.10223507343E+03  0.14745914049E+03  0.50402753057E+02  0.22441400551E+03  0.12500000000E+03 0.  0.
         25    1    1    2    0    0  0.16295344673E+03 -0.23691378358E+03  0.49197855582E+03  0.58339512000E+03  0.12500000000E+03 0.  0.
</event>
<event>
 5    0  0.5660959E-005  0.4262968E+03  0.7546771E-02  0.1035036E+00
         21   -1    0    0  502  501  0.00000000000E+00  0.00000000000E+00  0.12934333632E+03  0.12934333632E+03  0.00000000000E+00 0.  1.
         21   -1    0    0  501  502 -0.00000000000E+00 -0.00000000000E+00 -0.14050123263E+04  0.14050123263E+04  0.00000000000E+00 0.  1.
         25    1    1    2    0    0  0.23598212909E+03 -0.50720916820E+02 -0.24186373153E+03  0.36384507868E+03  0.12500000000E+03 0.  0.
         25    1    1    2    0    0  0.32406409496E+02 -0.13639955454E+03 -0.25628744499E+03  0.31774717672E+03  0.12500000000E+03 0.  0.
         25    1    1    2    0    0 -0.26838853858E+03  0.18712047136E+03 -0.77751781347E+03  0.85276340723E+03  0.12500000000E+03 0.  0.
</event>
<event>
 5    0  0.5660959E-005  0.4330365E+03  0.7546771E-02  0.1032905E+00
         21   -1    0    0  502  501  0.00000000000E+00  0.00000000000E+00  0.19361853104E+03  0.19361853104E+03  0.00000000000E+00 0.  1.
         21   -1    0    0  501  502 -0.00000000000E+00 -0.00000000000E+00 -0.96850551355E+03  0.96850551355E+03  0.00000000000E+00 0.  1.
         25    1    1    2    0    0  0.14948642456E+03  0.47087172577E+02 -0.26662777796E+03  0.33358471927E+03  0.12500000000E+03 0.  0.
         25    1    1    2    0    0  0.45624777461E+02  0.24317847575E+03 -0.27192088693E+03  0.38830833127E+03  0.12500000000E+03 0.  0.
         25    1    1    2    0    0 -0.19511120202E+03 -0.29026564833E+03 -0.23633831762E+03  0.44023099406E+03  0.12500000000E+03 0.  0.
</event>
<event>
 5    0  0.5660959E-005  0.2825255E+03  0.7546771E-02  0.1094318E+00
         21   -1    0    0  502  501  0.00000000000E+00  0.00000000000E+00  0.71113224107E+02  0.71113224107E+02  0.00000000000E+00 0. -1.
         21   -1    0    0  501  502 -0.00000000000E+00 -0.00000000000E+00 -0.11224445442E+04  0.11224445442E+04  0.00000000000E+00 0. -1.
         25    1    1    2    0    0  0.11588216753E+03  0.11358739348E+03 -0.21470099974E+03  0.29673606454E+03  0.12500000000E+03 0.  0.
         25    1    1    2    0    0  0.48493554448E+01 -0.26070251320E+02 -0.35993827620E+03  0.38194729600E+03  0.12500000000E+03 0.  0.
         25    1    1    2    0    0 -0.12073152298E+03 -0.87517142159E+02 -0.47669204418E+03  0.51487440779E+03  0.12500000000E+03 0.  0.
</event>
<event>
 5    0  0.5660959E-005  0.4821120E+03  0.7546771E-02  0.1018556E+00
         21   -1    0    0  502  501  0.00000000000E+00  0.00000000000E+00  0.16540996601E+04  0.16540996601E+04  0.00000000000E+00 0. -1.
         21   -1    0    0  501  502 -0.00000000000E+00 -0.00000000000E+00 -0.14051870917E+03  0.14051870917E+03  0.00000000000E+00 0. -1.
         25    1    1    2    0    0  0.71553387186E+02  0.28111038805E+03  0.14061753129E+03  0.34574734647E+03  0.12500000000E+03 0.  0.
         25    1    1    2    0    0 -0.87016578916E+02 -0.23584806106E+03  0.57635531560E+03  0.64109799776E+03  0.12500000000E+03 0.  0.
         25    1    1    2    0    0  0.15463191730E+02 -0.45262326984E+02  0.79660810406E+03  0.80777302504E+03  0.12500000000E+03 0.  0.
</event>
<event>
 5    0  0.5660959E-005  0.3997131E+03  0.7546771E-02  0.1043879E+00
         21   -1    0    0  502  501  0.00000000000E+00  0.00000000000E+00  0.10183827324E+04  0.10183827324E+04  0.00000000000E+00 0.  1.
         21   -1    0    0  501  502 -0.00000000000E+00 -0.00000000000E+00 -0.15688655927E+03  0.15688655927E+03  0.00000000000E+00 0.  1.
         25    1    1    2    0    0  0.23028938962E+03  0.20856247042E+03  0.25564441984E+03  0.42132004039E+03  0.12500000000E+03 0.  0.
         25    1    1    2    0    0 -0.10387331289E+03 -0.20073176734E+03  0.26861992796E+03  0.37264537197E+03  0.12500000000E+03 0.  0.
         25    1    1    2    0    0 -0.12641607673E+03 -0.78307030735E+01  0.33723182537E+03  0.38130387936E+03  0.12500000000E+03 0.  0.
</event>
<event>
 5    0  0.5927919E-005  0.3304911E+03  0.7546771E-02  0.1070920E+00
         21   -1    0    0  502  501  0.00000000000E+00  0.00000000000E+00  0.36352204073E+03  0.36352204073E+03  0.00000000000E+00 0.  1.
         21   -1    0    0  501  502 -0.00000000000E+00 -0.00000000000E+00 -0.30046145909E+03  0.30046145909E+03  0.00000000000E+00 0. -1.
         25    1    1    2    0    0 -0.12870795314E+03 -0.73908368852E+02 -0.58301856613E+02  0.20261364878E+03  0.12500000000E+03 0.  0.
         25    1    1    2    0    0  0.21038487722E+03  0.83754637635E+02 -0.14763733125E+02  0.25907451380E+03  0.12500000000E+03 0.  0.
         25    1    1    2    0    0 -0.81676924076E+02 -0.98462687833E+01  0.13612617138E+03  0.20229533724E+03  0.12500000000E+03 0.  0.
</event>
<event>
 5    0  0.5660959E-005  0.2179939E+03  0.7546771E-02  0.1135388E+00
         21   -1    0    0  502  501  0.00000000000E+00  0.00000000000E+00  0.63858045751E+02  0.63858045751E+02  0.00000000000E+00 0. -1.
         21   -1    0    0  501  502 -0.00000000000E+00 -0.00000000000E+00 -0.74417160373E+03  0.74417160373E+03  0.00000000000E+00 0. -1.
         25    1    1    2    0    0  0.28839458875E+02 -0.48115495713E+02 -0.11259506840E+03  0.17733996939E+03  0.12500000000E+03 0.  0.
         25    1    1    2    0    0  0.17234777723E+02  0.18259915670E+02 -0.36194736253E+03  0.38374647273E+03  0.12500000000E+03 0.  0.
         25    1    1    2    0    0 -0.46074236598E+02  0.29855580042E+02 -0.20577112705E+03  0.24694320736E+03  0.12500000000E+03 0.  0.
</event>
<event>
 5    0  0.6526220E-005  0.2825914E+03  0.7546771E-02  0.1094282E+00
         21   -1    0    0  502  501  0.00000000000E+00  0.00000000000E+00  0.54155620672E+03  0.54155620672E+03  0.00000000000E+00 0.  1.
         21   -1    0    0  501  502 -0.00000000000E+00 -0.00000000000E+00 -0.14746005738E+03  0.14746005738E+03  0.00000000000E+00 0.  1.
         25    1    1    2    0    0 -0.79875362615E+02  0.14082666022E+03  0.27745169763E+03  0.34469793487E+03  0.12500000000E+03 0.  0.
         25    1    1    2    0    0 -0.14278630364E+02 -0.44406719780E+02  0.14961716451E+02  0.13425605761E+03  0.12500000000E+03 0.  0.
         25    1    1    2    0    0  0.94153992979E+02 -0.96419940444E+02  0.10168273526E+03  0.21006227162E+03  0.12500000000E+03 0.  0.
</event>
<event>
 5    0  0.5660959E-005  0.3461186E+03  0.7546771E-02  0.1064219E+00
         21   -1    0    0  502  501  0.00000000000E+00  0.00000000000E+00  0.65268820415E+03  0.65268820415E+03  0.00000000000E+00 0. -1.
         21   -1    0    0  501  502 -0.00000000000E+00 -0.00000000000E+00 -0.18354569486E+03  0.18354569486E+03  0.00000000000E+00 0. -1.
         25    1    1    2    0    0  0.24168317976E+03 -0.47358853616E+02  0.66274912010E+02  0.28402637969E+03  0.12500000000E+03 0.  0.
         25    1    1    2    0    0 -0.10787576870E+03  0.62525802431E+02  0.11501646072E+03  0.21071412786E+03  0.12500000000E+03 0.  0.
         25    1    1    2    0    0 -0.13380741106E+03 -0.15166948815E+02  0.28785113657E+03  0.34149339147E+03  0.12500000000E+03 0.  0.
</event>
<event>
 5    0  0.5660959E-005  0.3804993E+03  0.7546771E-02  0.1050749E+00
         21   -1    0    0  502  501  0.00000000000E+00  0.00000000000E+00  0.24869123726E+03  0.24869123726E+03  0.00000000000E+00 0.  1.
         21   -1    0    0  501  502 -0.00000000000E+00 -0.00000000000E+00 -0.58216639483E+03  0.58216639483E+03  0.00000000000E+00 0.  1.
         25    1    1    2    0    0  0.13296181296E+02 -0.15380107423E+02 -0.25249486126E+03  0.28247476189E+03  0.12500000000E+03 0.  0.
         25    1    1    2    0    0 -0.98036872736E+02 -0.20012489486E+03 -0.12011773917E+03  0.28233751650E+03  0.12500000000E+03 0.  0.
         25    1    1    2    0    0  0.84740691440E+02  0.21550500228E+03  0.39137442862E+02  0.26604535370E+03  0.12500000000E+03 0.  0.
</event>
<event>
 5    0  0.7318007E-005  0.3697680E+03  0.7546771E-02  0.1054782E+00
         21   -1    0    0  502  501  0.00000000000E+00  0.00000000000E+00  0.43328578733E+03  0.43328578733E+03  0.00000000000E+00 0.  1.
         21   -1    0    0  501  502 -0.00000000000E+00 -0.00000000000E+00 -0.31556158357E+03  0.31556158357E+03  0.00000000000E+00 0.  1.
         25    1    1    2    0    0  0.15232508908E+03 -0.12883716201E+03  0.11184005136E+03  0.26064371116E+03  0.12500000000E+03 0.  0.
         25    1    1    2    0    0 -0.53230849981E+02  0.81559348795E+02  0.18510157311E+03  0.24366584318E+03  0.12500000000E+03 0.  0.
         25    1    1    2    0    0 -0.99094239100E+02  0.47277813219E+02 -0.17921742071E+03  0.24453781657E+03  0.12500000000E+03 0.  0.
</event>
<event>
 5    0  0.5660959E-005  0.2018514E+03  0.7546771E-02  0.1148186E+00
         21   -1    0    0  502  501  0.00000000000E+00  0.00000000000E+00  0.66559734878E+03  0.66559734878E+03  0.00000000000E+00 0. -1.
         21   -1    0    0  501  502 -0.00000000000E+00 -0.00000000000E+00 -0.61214176848E+02  0.61214176848E+02  0.00000000000E+00 0. -1.
         25    1    1    2    0    0 -0.35833494026E+02  0.29556867103E+02  0.12403633014E+03  0.18211990249E+03  0.12500000000E+03 0.  0.
         25    1    1    2    0    0  0.17120412664E+02 -0.87277799115E+01  0.20267218832E+03  0.23889390656E+03  0.12500000000E+03 0.  0.
         25    1    1    2    0    0  0.18713081362E+02 -0.20829087192E+02  0.27767465348E+03  0.30579771659E+03  0.12500000000E+03 0.  0.
</event>
<event>
 5    0  0.5660959E-005  0.2992104E+03  0.7546771E-02  0.1085636E+00
         21   -1    0    0  502  501  0.00000000000E+00  0.00000000000E+00  0.48312161258E+02  0.48312161258E+02  0.00000000000E+00 0.  1.
         21   -1    0    0  501  502 -0.00000000000E+00 -0.00000000000E+00 -0.18530915652E+04  0.18530915652E+04  0.00000000000E+00 0.  1.
         25    1    1    2    0    0 -0.23451292576E+02  0.61691374073E+02 -0.12390670457E+04  0.12471038179E+04  0.12500000000E+03 0.  0.
         25    1    1    2    0    0 -0.20432898608E+02 -0.81089520283E+02 -0.45922709452E+03  0.48322617685E+03  0.12500000000E+03 0.  0.
         25    1    1    2    0    0  0.43884191183E+02  0.19398146211E+02 -0.10648526374E+03  0.17107373178E+03  0.12500000000E+03 0.  0.
</event>
<event>
 5    0  0.7498359E-005  0.3956735E+03  0.7546771E-02  0.1045288E+00
         21   -1    0    0  502  501  0.00000000000E+00  0.00000000000E+00  0.29806813402E+03  0.29806813402E+03  0.00000000000E+00 0. -1.
         21   -1    0    0  501  502 -0.00000000000E+00 -0.00000000000E+00 -0.52524073503E+03  0.52524073503E+03  0.00000000000E+00 0. -1.
         25    1    1    2    0    0 -0.10921643449E+03 -0.30883602877E+02  0.14265008677E+03  0.22103410087E+03  0.12500000000E+03 0.  0.
         25    1    1    2    0    0 -0.19217968889E+02  0.16359560408E+03 -0.30778887623E+03  0.37079892709E+03  0.12500000000E+03 0.  0.
         25    1    1    2    0    0  0.12843440338E+03 -0.13271200120E+03 -0.62033811552E+02  0.23147584109E+03  0.12500000000E+03 0.  0.
</event>
<event>
 5    0  0.5660959E-005  0.2903022E+03  0.7546771E-02  0.1090191E+00
         21   -1    0    0  502  501  0.00000000000E+00  0.00000000000E+00  0.12776210727E+04  0.12776210727E+04  0.00000000000E+00 0. -1.
         21   -1    0    0  501  502 -0.00000000000E+00 -0.00000000000E+00 -0.65962719592E+02  0.65962719592E+02  0.00000000000E+00 0. -1.
         25    1    1    2    0    0 -0.41353395316E+02 -0.16606375076E+03  0.53581410248E+03  0.57620224317E+03  0.12500000000E+03 0.  0.
         25    1    1    2    0    0  0.60090412679E+02  0.16772222727E+03  0.53799285995E+03  0.58034724138E+03  0.12500000000E+03 0.  0.
         25    1    1    2    0    0 -0.18737017363E+02 -0.16584765168E+01  0.13785139071E+03  0.18703430778E+03  0.12500000000E+03 0.  0.
</event>
<event>
 5    0  0.5660959E-005  0.4347166E+03  0.7546771E-02  0.1032380E+00
         21   -1    0    0  502  501  0.00000000000E+00  0.00000000000E+00  0.17983431770E+04  0.17983431770E+04  0.00000000000E+00 0.  1.
         21   -1    0    0  501  502 -0.00000000000E+00 -0.00000000000E+00 -0.10508477054E+03  0.10508477054E+03  0.00000000000E+00 0.  1.
         25    1    1    2    0    0 -0.15459348885E+03 -0.32688416261E+03  0.10112364100E+04  0.10811921566E+04  0.12500000000E+03 0.  0.
         25    1    1    2    0    0  0.67672781152E+02  0.18826933998E+03  0.25041178555E+03  0.34402908602E+03  0.12500000000E+03 0.  0.
         25    1    1    2    0    0  0.86920707696E+02  0.13861482263E+03  0.43161021089E+03  0.47820670492E+03  0.12500000000E+03 0.  0.
</event>
<event>
 5    0  0.5660959E-005  0.3415026E+03  0.7546771E-02  0.1066158E+00
         21   -1    0    0  502  501  0.00000000000E+00  0.00000000000E+00  0.12489730926E+03  0.12489730926E+03  0.00000000000E+00 0. -1.
         21   -1    0    0  501  502 -0.00000000000E+00 -0.00000000000E+00 -0.93375932442E+03  0.93375932442E+03  0.00000000000E+00 0. -1.
         25    1    1    2    0    0 -0.17888533731E+03 -0.42440638163E+02 -0.34924478204E+03  0.41400252349E+03  0.12500000000E+03 0.  0.
         25    1    1    2    0    0  0.28989472370E+02  0.91377474872E+02 -0.40736515583E+03  0.43676263875E+03  0.12500000000E+03 0.  0.
         25    1    1    2    0    0  0.14989586494E+03 -0.48936836709E+02 -0.52252077291E+02  0.20789147143E+03  0.12500000000E+03 0.  0.
</event>
<event>
 5    0  0.5660959E-005  0.2850591E+03  0.7546771E-02  0.1092957E+00
         21   -1    0    0  502  501  0.00000000000E+00  0.00000000000E+00  0.76820005961E+02  0.76820005961E+02  0.00000000000E+00 0.  1.
         21   -1    0    0  501  502 -0.00000000000E+00 -0.00000000000E+00 -0.10577802841E+04  0.10577802841E+04  0.00000000000E+00 0. -1.
         25    1    1    2    0    0  0.86774893862E+02  0.12861773314E+03 -0.29644361094E+03  0.35717813196E+03  0.12500000000E+03 0.  0.
         25    1    1    2    0    0  0.15884273730E+01 -0.87062546935E+02 -0.54593926761E+03  0.56679546055E+03  0.12500000000E+03 0.  0.
         25    1    1    2    0    0 -0.88363321235E+02 -0.41555186206E+02 -0.13857739956E+03  0.21062669752E+03  0.12500000000E+03 0.  0.
</event>
<event>
 5    0  0.5660959E-005  0.6546565E+03  0.7546771E-02  0.9798081E-01
         21   -1    0    0  502  501  0.00000000000E+00  0.00000000000E+00  0.16349691356E+04  0.16349691356E+04  0.00000000000E+00 0.  1.
         21   -1    0    0  501  502 -0.00000000000E+00 -0.00000000000E+00 -0.26213041426E+03  0.26213041426E+03  0.00000000000E+00 0.  1.
         25    1    1    2    0    0  0.21109569324E+03  0.56071355158E+01 -0.50634786542E+02  0.25056279309E+03  0.12500000000E+03 0.  0.
         25    1    1    2    0    0  0.20451205244E+03  0.23122181511E+03  0.58430444649E+03  0.67255140589E+03  0.12500000000E+03 0.  0.
         25    1    1    2    0    0 -0.41560774568E+03 -0.23682895063E+03  0.83916906137E+03  0.97398535085E+03  0.12500000000E+03 0.  0.
</event>
<event>
 5    0  0.5660959E-005  0.3129504E+03  0.7546771E-02  0.1078940E+00
         21   -1    0    0  502  501  0.00000000000E+00  0.00000000000E+00  0.10955070510E+03  0.10955070510E+03  0.00000000000E+00 0.  1.
         21   -1    0    0  501  502 -0.00000000000E+00 -0.00000000000E+00 -0.89399634611E+03  0.89399634611E+03  0.00000000000E+00 0.  1.
         25    1    1    2    0    0  0.29043599756E+02 -0.13955504799E+03 -0.48352794550E+03  0.51936828569E+03  0.12500000000E+03 0.  0.
         25    1    1    2    0    0 -0.11343731556E+03  0.15250127285E+03 -0.16906588935E+03  0.28343065770E+03  0.12500000000E+03 0.  0.
         25    1    1    2    0    0  0.84393715805E+02 -0.12946224864E+02 -0.13185180616E+03  0.20074810782E+03  0.12500000000E+03 0.  0.
</event>
<event>
 5    0  0.5660959E-005  0.3898417E+03  0.7546771E-02  0.1047355E+00
         21   -1    0    0  502  501  0.00000000000E+00  0.00000000000E+00  0.61251286909E+03  0.61251286909E+03  0.00000000000E+00 0. -1.
         21   -1    0    0  501  502 -0.00000000000E+00 -0.00000000000E+00 -0.24811976029E+03  0.24811976029E+03  0.00000000000E+00 0. -1.
         25    1    1    2    0    0 -0.72629361988E+02  0.16027434798E+03  0.10592755555E+03  0.24043406137E+03  0.12500000000E+03 0.  0.
         25    1    1    2    0    0  0.16799287433E+03  0.67180903877E+02  0.26405762946E+03  0.34363688881E+03  0.12500000000E+03 0.  0.
         25    1    1    2    0    0 -0.95363512343E+02 -0.22745525186E+03 -0.55920762187E+01  0.27656167920E+03  0.12500000000E+03 0.  0.
</event>
<event>
 5    0  0.5660959E-005  0.3627646E+03  0.7546771E-02  0.1057495E+00
         21   -1    0    0  502  501  0.00000000000E+00  0.00000000000E+00  0.72360711807E+03  0.72360711807E+03  0.00000000000E+00 0. -1.
         21   -1    0    0  501  502 -0.00000000000E+00 -0.00000000000E+00 -0.18186410023E+03  0.18186410023E+03  0.00000000000E+00 0. -1.
         25    1    1    2    0    0  0.60700900092E+02  0.10474077044E+02  0.40040454422E+03  0.42396120647E+03  0.12500000000E+03 0.  0.
         25    1    1    2    0    0 -0.26941990518E+02 -0.59422712166E+02  0.26222581113E+03  0.29773193581E+03  0.12500000000E+03 0.  0.
         25    1    1    2    0    0 -0.33758909574E+02  0.48948635122E+02 -0.12088733751E+03  0.18377807602E+03  0.12500000000E+03 0.  0.
</event>
<event>
 5    0  0.5660959E-005  0.5051758E+03  0.7546771E-02  0.1012437E+00
         21   -1    0    0  502  501  0.00000000000E+00  0.00000000000E+00  0.71120915884E+03  0.71120915884E+03  0.00000000000E+00 0. -1.
         21   -1    0    0  501  502 -0.00000000000E+00 -0.00000000000E+00 -0.35882921861E+03  0.35882921861E+03  0.00000000000E+00 0.  1.
         25    1    1    2    0    0 -0.68842928071E+02  0.16667836712E+03  0.14679990348E+03  0.26400045165E+03  0.12500000000E+03 0.  0.
         25    1    1    2    0    0  0.30558648373E+03  0.13611744476E+03  0.18288231720E+03  0.40122562200E+03  0.12500000000E+03 0.  0.
         25    1    1    2    0    0 -0.23674355565E+03 -0.30279581188E+03  0.22697719546E+02  0.40481230380E+03  0.12500000000E+03 0.  0.
</event>
<event>
 5    0  0.5660959E-005  0.4296258E+03  0.7546771E-02  0.1033978E+00
         21   -1    0    0  502  501  0.00000000000E+00  0.00000000000E+00  0.28653262081E+04  0.28653262081E+04  0.00000000000E+00 0. -1.
         21   -1    0    0  501  502 -0.00000000000E+00 -0.00000000000E+00 -0.64417922774E+02  0.64417922774E+02  0.00000000000E+00 0. -1.
         25    1    1    2    0    0 -0.16045458367E+03  0.11946018785E+03  0.35461723740E+03  0.42590467826E+03  0.12500000000E+03 0.  0.
         25    1    1    2    0    0  0.11985313675E+03  0.12571858702E+03  0.15682822729E+04  0.15828152846E+04  0.12500000000E+03 0.  0.
         25    1    1    2    0    0  0.40601446924E+02 -0.24517877487E+03  0.87800877501E+03  0.92102416805E+03  0.12500000000E+03 0.  0.
</event>
<event>
 5    0  0.5660959E-005  0.3225423E+03  0.7546771E-02  0.1074485E+00
         21   -1    0    0  502  501  0.00000000000E+00  0.00000000000E+00  0.87038156487E+02  0.87038156487E+02  0.00000000000E+00 0.  1.
         21   -1    0    0  501  502 -0.00000000000E+00 -0.00000000000E+00 -0.11952634447E+04  0.11952634447E+04  0.00000000000E+00 0.  1.
         25    1    1    2    0    0 -0.11132213563E+02 -0.84160761628E+02 -0.33621478823E+03  0.36860865942E+03  0.12500000000E+03 0.  0.
         25    1    1    2    0    0 -0.54479448544E+02 -0.35260445539E+02 -0.70197596167E+03  0.71596547410E+03  0.12500000000E+03 0.  0.
         25    1    1    2    0    0  0.65611662107E+02  0.11942120717E+03 -0.70034538359E+02  0.19772746771E+03  0.12500000000E+03 0.  0.
</event>
<event>
 5    0  0.5660959E-005  0.2637904E+03  0.7546771E-02  0.1104887E+00
         21   -1    0    0  502  501  0.00000000000E+00  0.00000000000E+00  0.46695651254E+03  0.46695651254E+03  0.00000000000E+00 0.  1.
         21   -1    0    0  501  502 -0.00000000000E+00 -0.00000000000E+00 -0.14901895963E+03  0.14901895963E+03  0.00000000000E+00 0.  1.
         25    1    1    2    0    0 -0.14388316560E+03  0.62692314422E+02  0.22117383959E+03  0.29862277031E+03  0.12500000000E+03 0.  0.
         25    1    1    2    0    0  0.10736980970E+03 -0.44751524767E+02  0.57094610180E+02  0.18004379888E+03  0.12500000000E+03 0.  0.
         25    1    1    2    0    0  0.36513355899E+02 -0.17940789655E+02  0.39669103141E+02  0.13730890298E+03  0.12500000000E+03 0.  0.
</event>
<event>
 5    0  0.5660959E-005  0.2500761E+03  0.7546771E-02  0.1113257E+00
         21   -1    0    0  502  501  0.00000000000E+00  0.00000000000E+00  0.92189172522E+02  0.92189172522E+02  0.00000000000E+00 0.  1.
         21   -1    0    0  501  502 -0.00000000000E+00 -0.00000000000E+00 -0.67836659362E+03  0.67836659362E+03  0.00000000000E+00 0.  1.
         25    1    1    2    0    0  0.59912397613E+02  0.10568119788E+03 -0.21992031947E+03  0.28062066547E+03  0.12500000000E+03 0.  0.
         25    1    1    2    0    0  0.14297790353E+02 -0.42171598102E+01 -0.68279259749E+02  0.14321057418E+03  0.12500000000E+03 0.  0.
         25    1    1    2    0    0 -0.74210187966E+02 -0.10146403807E+03 -0.29797784188E+03  0.34672452649E+03  0.12500000000E+03 0.  0.
</event>
<event>
 5    0  0.5996422E-005  0.3054470E+03  0.7546771E-02  0.1082549E+00
         21   -1    0    0  502  501  0.00000000000E+00  0.00000000000E+00  0.49801300940E+03  0.49801300940E+03  0.00000000000E+00 0.  1.
         21   -1    0    0  501  502 -0.00000000000E+00 -0.00000000000E+00 -0.18734020898E+03  0.18734020898E+03  0.00000000000E+00 0.  1.
         25    1    1    2    0    0  0.11298861705E+03  0.10889158163E+02  0.11470603059E+03  0.20412612474E+03  0.12500000000E+03 0.  0.
         25    1    1    2    0    0  0.46596177731E+02 -0.61368684526E+02  0.22667280650E+03  0.27007939652E+03  0.12500000000E+03 0.  0.
         25    1    1    2    0    0 -0.15958479478E+03  0.50479526363E+02 -0.30706036663E+02  0.21114769711E+03  0.12500000000E+03 0.  0.
</event>
<event>
 5    0  0.5660959E-005  0.3353069E+03  0.7546771E-02  0.1068813E+00
         21   -1    0    0  502  501  0.00000000000E+00  0.00000000000E+00  0.11137505623E+03  0.11137505623E+03  0.00000000000E+00 0.  1.
         21   -1    0    0  501  502 -0.00000000000E+00 -0.00000000000E+00 -0.10094785784E+04  0.10094785784E+04  0.00000000000E+00 0.  1.
         25    1    1    2    0    0  0.45264154927E+02 -0.97319049020E+01 -0.99910932269E+01  0.13367264357E+03  0.12500000000E+03 0.  0.
         25    1    1    2    0    0 -0.81348080636E+02  0.14306664733E+03 -0.26060490201E+03  0.33260410514E+03  0.12500000000E+03 0.  0.
         25    1    1    2    0    0  0.36083925709E+02 -0.13333474243E+03 -0.62750752688E+03  0.65457688588E+03  0.12500000000E+03 0.  0.
</event>
<event>
 5    0  0.5660959E-005  0.3215858E+03  0.7546771E-02  0.1074922E+00
         21   -1    0    0  502  501  0.00000000000E+00  0.00000000000E+00  0.15943069505E+04  0.15943069505E+04  0.00000000000E+00 0. -1.
         21   -1    0    0  501  502 -0.00000000000E+00 -0.00000000000E+00 -0.64866709962E+02  0.64866709962E+02  0.00000000000E+00 0. -1.
         25    1    1    2    0    0 -0.10697034760E+03  0.11046699149E+03  0.11182836830E+04  0.11357063913E+04  0.12500000000E+03 0.  0.
         25    1    1    2    0    0  0.86647748200E+02 -0.43225903562E+02  0.11857270642E+03  0.19763804723E+03  0.12500000000E+03 0.  0.
         25    1    1    2    0    0  0.20322599395E+02 -0.67241087932E+02  0.29258385106E+03  0.32582922191E+03  0.12500000000E+03 0.  0.
</event>
<event>
 5    0  0.5660959E-005  0.2881312E+03  0.7546771E-02  0.1091329E+00
         21   -1    0    0  502  501  0.00000000000E+00  0.00000000000E+00  0.98853308792E+02  0.98853308792E+02  0.00000000000E+00 0. -1.
         21   -1    0    0  501  502 -0.00000000000E+00 -0.00000000000E+00 -0.83982623713E+03  0.83982623713E+03  0.00000000000E+00 0. -1.
         25    1    1    2    0    0  0.48918065728E+02  0.93719379022E+02 -0.40435561397E+03  0.43623933993E+03  0.12500000000E+03 0.  0.
         25    1    1    2    0    0 -0.80889936408E+02 -0.16765820743E+03 -0.19749879052E+03  0.29880299294E+03  0.12500000000E+03 0.  0.
         25    1    1    2    0    0  0.31971870680E+02  0.73938828409E+02 -0.13911852385E+03  0.20363721305E+03  0.12500000000E+03 0.  0.
</event>
<event>
 5    0  0.7141039E-005  0.2753467E+03  0.7546771E-02  0.1098258E+00
         21   -1    0    0  502  501  0.00000000000E+00  0.00000000000E+00  0.60081033006E+03  0.60081033006E+03  0.00000000000E+00 0. -1.
         21   -1    0    0  501  502 -0.00000000000E+00 -0.00000000000E+00 -0.12618924468E+03  0.12618924468E+03  0.00000000000E+00 0. -1.
         25    1    1    2    0    0 -0.10478481596E+03  0.53010682532E+02  0.12060111385E+03  0.20966549259E+03  0.12500000000E+03 0.  0.
         25    1    1    2    0    0  0.16003591258E+03 -0.92173175128E+02  0.15036030929E+03  0.26896209796E+03  0.12500000000E+03 0.  0.
         25    1    1    2    0    0 -0.55251096619E+02  0.39162492597E+02  0.20365966225E+03  0.24837198419E+03  0.12500000000E+03 0.  0.
</event>
<event>
 5    0  0.5660959E-005  0.3448838E+03  0.7546771E-02  0.1064735E+00
         21   -1    0    0  502  501  0.00000000000E+00  0.00000000000E+00  0.70711321366E+02  0.70711321366E+02  0.00000000000E+00 0.  1.
         21   -1    0    0  501  502 -0.00000000000E+00 -0.00000000000E+00 -0.16821187503E+04  0.16821187503E+04  0.00000000000E+00 0.  1.
         25    1    1    2    0    0 -0.14339751957E+03 -0.13466966884E+03 -0.58498155161E+03  0.62970404481E+03  0.12500000000E+03 0.  0.
         25    1    1    2    0    0  0.24041086520E+02 -0.58756595520E+02 -0.65659953275E+03  0.67140022175E+03  0.12500000000E+03 0.  0.
         25    1    1    2    0    0  0.11935643305E+03  0.19342626436E+03 -0.36982634455E+03  0.45172580508E+03  0.12500000000E+03 0.  0.
</event>
<event>
 5    0  0.5660959E-005  0.3012495E+03  0.7546771E-02  0.1084618E+00
         21   -1    0    0  502  501  0.00000000000E+00  0.00000000000E+00  0.14046596152E+03  0.14046596152E+03  0.00000000000E+00 0.  1.
         21   -1    0    0  501  502 -0.00000000000E+00 -0.00000000000E+00 -0.64607276840E+03  0.64607276840E+03  0.00000000000E+00 0.  1.
         25    1    1    2    0    0  0.88844035573E+02 -0.11693416422E+03 -0.42008985066E+03  0.46224165114E+03  0.12500000000E+03 0.  0.
         25    1    1    2    0    0 -0.30509769318E+02  0.85274438907E+02 -0.96991530592E+02  0.18230450615E+03  0.12500000000E+03 0.  0.
         25    1    1    2    0    0 -0.58334266255E+02  0.31659725309E+02  0.11474574369E+02  0.14199257263E+03  0.12500000000E+03 0.  0.
</event>
<event>
 5    0  0.5660959E-005  0.3273863E+03  0.7546771E-02  0.1072299E+00
         21   -1    0    0  502  501  0.00000000000E+00  0.00000000000E+00  0.88271112564E+03  0.88271112564E+03  0.00000000000E+00 0. -1.
         21   -1    0    0  501  502 -0.00000000000E+00 -0.00000000000E+00 -0.12142343575E+03  0.12142343575E+03  0.00000000000E+00 0. -1.
         25    1    1    2    0    0 -0.48439853408E+02 -0.35608036108E+02  0.48744997976E+03  0.50680058642E+03  0.12500000000E+03 0.  0.
         25    1    1    2    0    0 -0.12975044352E+03 -0.29246819170E+02  0.16255682600E+03  0.24441823930E+03  0.12500000000E+03 0.  0.
         25    1    1    2    0    0  0.17819029692E+03  0.64854855279E+02  0.11128088414E+03  0.25291573566E+03  0.12500000000E+03 0.  0.
</event>
<event>
 5    0  0.5660959E-005  0.2973787E+03  0.7546771E-02  0.1086558E+00
         21   -1    0    0  502  501  0.00000000000E+00  0.00000000000E+00  0.95300350098E+02  0.95300350098E+02  0.00000000000E+00 0. -1.
         21   -1    0    0  501  502 -0.00000000000E+00 -0.00000000000E+00 -0.92795118751E+03  0.92795118751E+03  0.00000000000E+00 0. -1.
         25    1    1    2    0    0  0.15051010142E+02 -0.47031260739E+02  0.34057525079E+01  0.13444356267E+03  0.12500000000E+03 0.  0.
         25    1    1    2    0    0 -0.17006754712E+02  0.60341495838E+02 -0.22472058214E+03  0.26467841972E+03  0.12500000000E+03 0.  0.
         25    1    1    2    0    0  0.19557445696E+01 -0.13310235099E+02 -0.61133600778E+03  0.62412955522E+03  0.12500000000E+03 0.  0.
</event>
<event>
 5    0  0.5660959E-005  0.3796562E+03  0.7546771E-02  0.1051061E+00
         21   -1    0    0  502  501  0.00000000000E+00  0.00000000000E+00  0.13132543019E+03  0.13132543019E+03  0.00000000000E+00 0.  1.
         21   -1    0    0  501  502 -0.00000000000E+00 -0.00000000000E+00 -0.10975699041E+04  0.10975699041E+04  0.00000000000E+00 0.  1.
         25    1    1    2    0    0  0.42705076261E+02 -0.75781130376E+02 -0.58450882794E+02  0.16311961549E+03  0.12500000000E+03 0.  0.
         25    1    1    2    0    0 -0.41338532813E+01 -0.10722348656E+03 -0.40309014935E+02  0.16959888413E+03  0.12500000000E+03 0.  0.
         25    1    1    2    0    0 -0.38571222980E+02  0.18300461694E+03 -0.86748457617E+03  0.89617683464E+03  0.12500000000E+03 0.  0.
</event>
<event>
 5    0  0.5660959E-005  0.2665198E+03  0.7546771E-02  0.1103288E+00
         21   -1    0    0  502  501  0.00000000000E+00  0.00000000000E+00  0.89517534458E+03  0.89517534458E+03  0.00000000000E+00 0. -1.
         21   -1    0    0  501  502 -0.00000000000E+00 -0.00000000000E+00 -0.79350706882E+02  0.79350706882E+02  0.00000000000E+00 0. -1.
         25    1    1    2    0    0 -0.24044662998E+01 -0.30851531562E+02  0.15775692630E+03  0.20364146497E+03  0.12500000000E+03 0.  0.
         25    1    1    2    0    0  0.15176860398E+03 -0.13424927226E+02  0.26810041575E+03  0.33274129704E+03  0.12500000000E+03 0.  0.
         25    1    1    2    0    0 -0.14936413768E+03  0.44276458787E+02  0.38996729564E+03  0.43814328945E+03  0.12500000000E+03 0.  0.
</event>
<event>
 5    0  0.5660959E-005  0.2903650E+03  0.7546771E-02  0.1090159E+00
         21   -1    0    0  502  501  0.00000000000E+00  0.00000000000E+00  0.31913508817E+04  0.31913508817E+04  0.00000000000E+00 0. -1.
         21   -1    0    0  501  502 -0.00000000000E+00 -0.00000000000E+00 -0.26418861208E+02  0.26418861208E+02  0.00000000000E+00 0. -1.
         25    1    1    2    0    0 -0.12241037313E+03 -0.49678018277E+02  0.10449612941E+04  0.10606702179E+04  0.12500000000E+03 0.  0.
         25    1    1    2    0    0  0.17915121234E+03 -0.46736666332E+02  0.14095194459E+04  0.14271123086E+04  0.12500000000E+03 0.  0.
         25    1    1    2    0    0 -0.56740839210E+02  0.96414684609E+02  0.71045128043E+03  0.72998721640E+03  0.12500000000E+03 0.  0.
</event>
<event>
 5    0  0.5660959E-005  0.2459246E+03  0.7546771E-02  0.1115908E+00
         21   -1    0    0  502  501  0.00000000000E+00  0.00000000000E+00  0.54454273389E+03  0.54454273389E+03  0.00000000000E+00 0.  1.
         21   -1    0    0  501  502 -0.00000000000E+00 -0.00000000000E+00 -0.11106361931E+03  0.11106361931E+03  0.00000000000E+00 0.  1.
         25    1    1    2    0    0  0.22048610519E+02 -0.91066716467E+02  0.88886554786E+02  0.17973621698E+03  0.12500000000E+03 0.  0.
         25    1    1    2    0    0  0.34133494720E+02  0.13057533397E+03  0.21721293135E+03  0.28464270735E+03  0.12500000000E+03 0.  0.
         25    1    1    2    0    0 -0.56182105239E+02 -0.39508617505E+02  0.12737962845E+03  0.19122742887E+03  0.12500000000E+03 0.  0.
</event>
<event>
 5    0  0.5660959E-005  0.2300742E+03  0.7546771E-02  0.1126588E+00
         21   -1    0    0  502  501  0.00000000000E+00  0.00000000000E+00  0.70457580992E+02  0.70457580992E+02  0.00000000000E+00 0.  1.
         21   -1    0    0  501  502 -0.00000000000E+00 -0.00000000000E+00 -0.75129071034E+03  0.75129071034E+03  0.00000000000E+00 0.  1.
         25    1    1    2    0    0  0.78142019649E+01  0.26858439786E+02 -0.40441249747E+03  0.42421327849E+03  0.12500000000E+03 0.  0.
         25    1    1    2    0    0 -0.21008047031E+01  0.36127518798E+02 -0.69154267708E+02  0.14736663034E+03  0.12500000000E+03 0.  0.
         25    1    1    2    0    0 -0.57133972618E+01 -0.62985958584E+02 -0.20726636418E+03  0.25016838251E+03  0.12500000000E+03 0.  0.
</event>
<event>
 5    0  0.5660959E-005  0.3651449E+03  0.7546771E-02  0.1056565E+00
         21   -1    0    0  502  501  0.00000000000E+00  0.00000000000E+00  0.21818241997E+03  0.21818241997E+03  0.00000000000E+00 0.  1.
         21   -1    0    0  501  502 -0.00000000000E+00 -0.00000000000E+00 -0.61109787354E+03  0.61109787354E+03  0.00000000000E+00 0.  1.
         25    1    1    2    0    0  0.52599468563E+02 -0.39993011726E+02  0.58895182914E+02  0.15316588279E+03  0.12500000000E+03 0.  0.
         25    1    1    2    0    0  0.47356288295E+02  0.15752016832E+03 -0.42911326278E+03  0.47625456823E+03  0.12500000000E+03 0.  0.
         25    1    1    2    0    0 -0.99955756858E+02 -0.11752715660E+03 -0.22697373699E+02  0.19985984249E+03  0.12500000000E+03 0.  0.
</event>
<event>
 5    0  0.5660959E-005  0.2920920E+03  0.7546771E-02  0.1089262E+00
         21   -1    0    0  502  501  0.00000000000E+00  0.00000000000E+00  0.90081816760E+03  0.90081816760E+03  0.00000000000E+00 0.  1.
         21   -1    0    0  501  502 -0.00000000000E+00 -0.00000000000E+00 -0.94711399043E+02  0.94711399043E+02  0.00000000000E+00 0.  1.
         25    1    1    2    0    0 -0.91661405131E+02  0.33522415728E+02  0.58672306981E+03  0.60777835285E+03  0.12500000000E+03 0.  0.
         25    1    1    2    0    0 -0.14032258855E+02  0.31642738014E+02  0.15023474839E+03  0.19847832824E+03  0.12500000000E+03 0.  0.
         25    1    1    2    0    0  0.10569366399E+03 -0.65165153742E+02  0.69148950356E+02  0.18927288555E+03  0.12500000000E+03 0.  0.
</event>
<event>
 5    0  0.5862868E-005  0.3979817E+03  0.7546771E-02  0.1044481E+00
         21   -1    0    0  502  501  0.00000000000E+00  0.00000000000E+00  0.99405178889E+03  0.99405178889E+03  0.00000000000E+00 0.  1.
         21   -1    0    0  501  502 -0.00000000000E+00 -0.00000000000E+00 -0.15933719288E+03  0.15933719288E+03  0.00000000000E+00 0.  1.
         25    1    1    2    0    0 -0.10535127504E+02  0.15510402957E+03  0.76712403725E+02  0.21372421899E+03  0.12500000000E+03 0.  0.
         25    1    1    2    0    0 -0.21581416393E+03 -0.97384080845E+02  0.24798171154E+03  0.36493744918E+03  0.12500000000E+03 0.  0.
         25    1    1    2    0    0  0.22634929144E+03 -0.57719948723E+02  0.51002048074E+03  0.57472731359E+03  0.12500000000E+03 0.  0.
</event>
<event>
 5    0  0.5660959E-005  0.2747910E+03  0.7546771E-02  0.1098568E+00
         21   -1    0    0  502  501  0.00000000000E+00  0.00000000000E+00  0.53921635141E+02  0.53921635141E+02  0.00000000000E+00 0. -1.
         21   -1    0    0  501  502 -0.00000000000E+00 -0.00000000000E+00 -0.14003677433E+04  0.14003677433E+04  0.00000000000E+00 0. -1.
         25    1    1    2    0    0 -0.42177711635E+02  0.87750807606E+02 -0.83893474951E+03  0.85376558699E+03  0.12500000000E+03 0.  0.
         25    1    1    2    0    0  0.53550902816E+02 -0.75395172761E+02 -0.13056689356E+03  0.20303902325E+03  0.12500000000E+03 0.  0.
         25    1    1    2    0    0 -0.11373191182E+02 -0.12355634845E+02 -0.37694446507E+03  0.39748476818E+03  0.12500000000E+03 0.  0.
</event>
<event>
 5    0  0.5660959E-005  0.6704803E+03  0.7546771E-02  0.9769091E-01
         21   -1    0    0  502  501  0.00000000000E+00  0.00000000000E+00  0.25548770907E+04  0.25548770907E+04  0.00000000000E+00 0. -1.
         21   -1    0    0  501  502 -0.00000000000E+00 -0.00000000000E+00 -0.17595515487E+03  0.17595515487E+03  0.00000000000E+00 0. -1.
         25    1    1    2    0    0 -0.26671930337E+03 -0.19635641195E+03  0.61948030145E+03  0.71349552991E+03  0.12500000000E+03 0.  0.
         25    1    1    2    0    0  0.27942016947E+03  0.36487324738E+03  0.17425434895E+04  0.18064581176E+04  0.12500000000E+03 0.  0.
         25    1    1    2    0    0 -0.12700866093E+02 -0.16851683543E+03  0.16898144853E+02  0.21087859807E+03  0.12500000000E+03 0.  0.
</event>
<event>
 5    0  0.5660959E-005  0.2395116E+03  0.7546771E-02  0.1120119E+00
         21   -1    0    0  502  501  0.00000000000E+00  0.00000000000E+00  0.44241432934E+03  0.44241432934E+03  0.00000000000E+00 0. -1.
         21   -1    0    0  501  502 -0.00000000000E+00 -0.00000000000E+00 -0.12966533323E+03  0.12966533323E+03  0.00000000000E+00 0. -1.
         25    1    1    2    0    0 -0.12982368501E+03  0.25252494374E+02  0.12973351116E+03  0.22348973484E+03  0.12500000000E+03 0.  0.
         25    1    1    2    0    0  0.81596805887E+02 -0.84348778220E+01  0.14507503378E+03  0.20832894979E+03  0.12500000000E+03 0.  0.
         25    1    1    2    0    0  0.48226879126E+02 -0.16817616552E+02  0.37940451171E+02  0.14026097794E+03  0.12500000000E+03 0.  0.
</event>
<event>
 5    0  0.5660959E-005  0.4251793E+03  0.7546771E-02  0.1035394E+00
         21   -1    0    0  502  501  0.00000000000E+00  0.00000000000E+00  0.11053078094E+04  0.11053078094E+04  0.00000000000E+00 0. -1.
         21   -1    0    0  501  502 -0.00000000000E+00 -0.00000000000E+00 -0.16355394331E+03  0.16355394331E+03  0.00000000000E+00 0. -1.
         25    1    1    2    0    0 -0.67256470180E+02  0.21507087885E+03  0.70145878271E+03  0.74729401145E+03  0.12500000000E+03 0.  0.
         25    1    1    2    0    0  0.27048029010E+02 -0.22705940652E+03  0.28132337447E+03  0.38347804498E+03  0.12500000000E+03 0.  0.
         25    1    1    2    0    0  0.40208441170E+02  0.11988527667E+02 -0.41028291113E+02  0.13808969624E+03  0.12500000000E+03 0.  0.
</event>
<event>
 5    0  0.5660959E-005  0.3626423E+03  0.7546771E-02  0.1057542E+00
         21   -1    0    0  502  501  0.00000000000E+00  0.00000000000E+00  0.38753915600E+03  0.38753915600E+03  0.00000000000E+00 0. -1.
         21   -1    0    0  501  502 -0.00000000000E+00 -0.00000000000E+00 -0.33934499269E+03  0.33934499269E+03  0.00000000000E+00 0. -1.
         25    1    1    2    0    0  0.11061250251E+03  0.66416730564E+02  0.36049170491E+02  0.18322349877E+03  0.12500000000E+03 0.  0.
         25    1    1    2    0    0 -0.95622131179E+02  0.19015977397E+02  0.22914611986E+03  0.27863622093E+03  0.12500000000E+03 0.  0.
         25    1    1    2    0    0 -0.14990371327E+02 -0.85432707961E+02 -0.21700112705E+03  0.26502442899E+03  0.12500000000E+03 0.  0.
</event>
<event>
 5    0  0.5660959E-005  0.2801424E+03  0.7546771E-02  0.1095611E+00
         21   -1    0    0  502  501  0.00000000000E+00  0.00000000000E+00  0.27840902098E+03  0.27840902098E+03  0.00000000000E+00 0. -1.
         21   -1    0    0  501  502 -0.00000000000E+00 -0.00000000000E+00 -0.28188661054E+03  0.28188661054E+03  0.00000000000E+00 0. -1.
         25    1    1    2    0    0 -0.10772481673E+03 -0.10023342758E+03 -0.10229799820E+03  0.21849772672E+03  0.12500000000E+03 0.  0.
         25    1    1    2    0    0  0.11092294340E+03  0.37951837545E+02  0.12066671348E+01  0.17137881255E+03  0.12500000000E+03 0.  0.
         25    1    1    2    0    0 -0.31981266651E+01  0.62281590039E+02  0.97613741502E+02  0.17041909225E+03  0.12500000000E+03 0.  0.
</event>
<event>
 5    0  0.5660959E-005  0.4159312E+03  0.7546771E-02  0.1038399E+00
         21   -1    0    0  502  501  0.00000000000E+00  0.00000000000E+00  0.38384616198E+03  0.38384616198E+03  0.00000000000E+00 0.  1.
         21   -1    0    0  501  502 -0.00000000000E+00 -0.00000000000E+00 -0.45069813191E+03  0.45069813191E+03  0.00000000000E+00 0.  1.
         25    1    1    2    0    0  0.10706489504E+03 -0.89836822912E+02  0.63166239035E+02  0.19785985003E+03  0.12500000000E+03 0.  0.
         25    1    1    2    0    0  0.22079704845E+03  0.74782408778E+02 -0.10498417060E+03  0.28458816093E+03  0.12500000000E+03 0.  0.
         25    1    1    2    0    0 -0.32786194349E+03  0.15054414133E+02 -0.25034038371E+02  0.35209628293E+03  0.12500000000E+03 0.  0.
</event>
<event>
 5    0  0.5660959E-005  0.2042217E+03  0.7546771E-02  0.1146225E+00
         21   -1    0    0  502  501  0.00000000000E+00  0.00000000000E+00  0.21572600241E+03  0.21572600241E+03  0.00000000000E+00 0.  1.
         21   -1    0    0  501  502 -0.00000000000E+00 -0.00000000000E+00 -0.19333092507E+03  0.19333092507E+03  0.00000000000E+00 0.  1.
         25    1    1    2    0    0 -0.25958786473E+02  0.48369969751E+02  0.47782898473E+02  0.14464341656E+03  0.12500000000E+03 0.  0.
         25    1    1    2    0    0 -0.75020734718E+01 -0.42934854476E+02  0.27123463050E+00  0.13238110289E+03  0.12500000000E+03 0.  0.
         25    1    1    2    0    0  0.33460859945E+02 -0.54351152754E+01 -0.25659055760E+02  0.13203240802E+03  0.12500000000E+03 0.  0.
</event>
<event>
 5    0  0.5660959E-005  0.2896353E+03  0.7546771E-02  0.1090540E+00
         21   -1    0    0  502  501  0.00000000000E+00  0.00000000000E+00  0.20641328409E+03  0.20641328409E+03  0.00000000000E+00 0.  1.
         21   -1    0    0  501  502 -0.00000000000E+00 -0.00000000000E+00 -0.40641080411E+03  0.40641080411E+03  0.00000000000E+00 0.  1.
         25    1    1    2    0    0 -0.14399027036E+03  0.49560060082E+02 -0.76594181212E+02  0.21137896326E+03  0.12500000000E+03 0.  0.
         25    1    1    2    0    0  0.63182892138E+02  0.86169483215E+02 -0.11340834000E+03  0.19975912815E+03  0.12500000000E+03 0.  0.
         25    1    1    2    0    0  0.80807378223E+02 -0.13572954330E+03 -0.99949988103E+01  0.20168599679E+03  0.12500000000E+03 0.  0.
</event>
<event>
 5    0  0.5660959E-005  0.3332058E+03  0.7546771E-02  0.1069727E+00
         21   -1    0    0  502  501  0.00000000000E+00  0.00000000000E+00  0.41500340028E+03  0.41500340028E+03  0.00000000000E+00 0.  1.
         21   -1    0    0  501  502 -0.00000000000E+00 -0.00000000000E+00 -0.26753066656E+03  0.26753066656E+03  0.00000000000E+00 0.  1.
         25    1    1    2    0    0  0.12372550121E+03  0.44104137936E+02 -0.80783428145E+02  0.19850475283E+03  0.12500000000E+03 0.  0.
         25    1    1    2    0    0 -0.58975247054E+02 -0.43139637516E+02 -0.65016944189E+02  0.15871770891E+03  0.12500000000E+03 0.  0.
         25    1    1    2    0    0 -0.64750254156E+02 -0.96450042054E+00  0.29327310606E+03  0.32531160510E+03  0.12500000000E+03 0.  0.
</event>
<event>
 5    0  0.5987240E-005  0.4912520E+03  0.7546771E-02  0.1016088E+00
         21   -1    0    0  502  501  0.00000000000E+00  0.00000000000E+00  0.42340216590E+03  0.42340216590E+03  0.00000000000E+00 0.  1.
         21   -1    0    0  501  502 -0.00000000000E+00 -0.00000000000E+00 -0.56997472630E+03  0.56997472630E+03  0.00000000000E+00 0.  1.
         25    1    1    2    0    0  0.20129304928E+03 -0.15399209816E+03 -0.27853977012E+03  0.39678944230E+03  0.12500000000E+03 0.  0.
         25    1    1    2    0    0  0.27251985265E+02  0.26176783668E+03  0.16127241749E+02  0.29180500158E+03  0.12500000000E+03 0.  0.
         25    1    1    2    0    0 -0.22854503454E+03 -0.10777573852E+03  0.11583996796E+03  0.30478244832E+03  0.12500000000E+03 0.  0.
</event>
<event>
 5    0  0.5660959E-005  0.4442530E+03  0.7546771E-02  0.1029450E+00
         21   -1    0    0  502  501  0.00000000000E+00  0.00000000000E+00  0.29517861544E+03  0.29517861544E+03  0.00000000000E+00 0. -1.
         21   -1    0    0  501  502 -0.00000000000E+00 -0.00000000000E+00 -0.66861467270E+03  0.66861467270E+03  0.00000000000E+00 0. -1.
         25    1    1    2    0    0  0.76102148534E+02  0.10499782805E+03 -0.32529080399E+02  0.18302792677E+03  0.12500000000E+03 0.  0.
         25    1    1    2    0    0  0.10271544626E+03 -0.16925072415E+03 -0.46576679937E+03  0.52130603480E+03  0.12500000000E+03 0.  0.
         25    1    1    2    0    0 -0.17881759479E+03  0.64252896104E+02  0.12485982251E+03  0.25945932657E+03  0.12500000000E+03 0.  0.
</event>
<event>
 5    0  0.5660959E-005  0.2867236E+03  0.7546771E-02  0.1092072E+00
         21   -1    0    0  502  501  0.00000000000E+00  0.00000000000E+00  0.11419203918E+03  0.11419203918E+03  0.00000000000E+00 0. -1.
         21   -1    0    0  501  502 -0.00000000000E+00 -0.00000000000E+00 -0.71993143861E+03  0.71993143861E+03  0.00000000000E+00 0. -1.
         25    1    1    2    0    0  0.96283579680E+02  0.12480625955E+03 -0.31998981885E+03  0.37797567952E+03  0.12500000000E+03 0.  0.
         25    1    1    2    0    0 -0.14074394580E+03 -0.47021543867E+02 -0.11167090354E+03  0.22386441112E+03  0.12500000000E+03 0.  0.
         25    1    1    2    0    0  0.44460366125E+02 -0.77784715682E+02 -0.17407867703E+03  0.23228338715E+03  0.12500000000E+03 0.  0.
</event>
<event>
 5    0  0.5660959E-005  0.2951982E+03  0.7546771E-02  0.1087666E+00
         21   -1    0    0  502  501  0.00000000000E+00  0.00000000000E+00  0.32544488730E+03  0.32544488730E+03  0.00000000000E+00 0.  1.
         21   -1    0    0  501  502 -0.00000000000E+00 -0.00000000000E+00 -0.26776271352E+03  0.26776271352E+03  0.00000000000E+00 0.  1.
         25    1    1    2    0    0 -0.60882677200E+02 -0.17902416062E+03  0.49673232832E+02  0.23205340016E+03  0.12500000000E+03 0.  0.
         25    1    1    2    0    0  0.72029305588E+02  0.20701561982E+02  0.51354706464E+02  0.15452857797E+03  0.12500000000E+03 0.  0.
         25    1    1    2    0    0 -0.11146628389E+02  0.15832259864E+03 -0.43345765520E+02  0.20662562269E+03  0.12500000000E+03 0.  0.
</event>
<event>
 5    0  0.5660959E-005  0.3459632E+03  0.7546771E-02  0.1064284E+00
         21   -1    0    0  502  501  0.00000000000E+00  0.00000000000E+00  0.76449226655E+02  0.76449226655E+02  0.00000000000E+00 0.  1.
         21   -1    0    0  501  502 -0.00000000000E+00 -0.00000000000E+00 -0.15656216909E+04  0.15656216909E+04  0.00000000000E+00 0.  1.
         25    1    1    2    0    0 -0.17541509266E+03  0.17437482480E+02 -0.29468294109E+03  0.36542790848E+03  0.12500000000E+03 0.  0.
         25    1    1    2    0    0  0.60396970611E+02  0.17345626239E+02 -0.10238676355E+04  0.10333821170E+04  0.12500000000E+03 0.  0.
         25    1    1    2    0    0  0.11501812205E+03 -0.34783108720E+02 -0.17062188773E+03  0.24326089210E+03  0.12500000000E+03 0.  0.
</event>
<event>
 5    0  0.5660959E-005  0.3802979E+03  0.7546771E-02  0.1050824E+00
         21   -1    0    0  502  501  0.00000000000E+00  0.00000000000E+00  0.21281091525E+03  0.21281091525E+03  0.00000000000E+00 0. -1.
         21   -1    0    0  501  502 -0.00000000000E+00 -0.00000000000E+00 -0.67960096652E+03  0.67960096652E+03  0.00000000000E+00 0. -1.
         25    1    1    2    0    0  0.19797403112E+03  0.10258053384E+03 -0.44859994927E+03  0.51631714808E+03  0.12500000000E+03 0.  0.
         25    1    1    2    0    0 -0.14507561350E+03  0.19950385673E+02 -0.16334760607E+02  0.19322726497E+03  0.12500000000E+03 0.  0.
         25    1    1    2    0    0 -0.52898417618E+02 -0.12253091951E+03 -0.18553413943E+01  0.18286746872E+03  0.12500000000E+03 0.  0.
</event>
<event>
 5    0  0.5660959E-005  0.3054378E+03  0.7546771E-02  0.1082553E+00
         21   -1    0    0  502  501  0.00000000000E+00  0.00000000000E+00  0.88194932117E+02  0.88194932117E+02  0.00000000000E+00 0.  1.
         21   -1    0    0  501  502 -0.00000000000E+00 -0.00000000000E+00 -0.10577963787E+04  0.10577963787E+04  0.00000000000E+00 0.  1.
         25    1    1    2    0    0 -0.28911028826E+02  0.36104160618E+02 -0.25504679110E+03  0.28777286817E+03  0.12500000000E+03 0.  0.
         25    1    1    2    0    0  0.20220455713E+03 -0.20108365622E+02 -0.50497070733E+03  0.55849032629E+03  0.12500000000E+03 0.  0.
         25    1    1    2    0    0 -0.17329352831E+03 -0.15995794997E+02 -0.20958394811E+03  0.29972811633E+03  0.12500000000E+03 0.  0.
</event>
<event>
 5    0  0.5660959E-005  0.3341104E+03  0.7546771E-02  0.1069332E+00
         21   -1    0    0  502  501  0.00000000000E+00  0.00000000000E+00  0.71163220802E+03  0.71163220802E+03  0.00000000000E+00 0. -1.
         21   -1    0    0  501  502 -0.00000000000E+00 -0.00000000000E+00 -0.15686440551E+03  0.15686440551E+03  0.00000000000E+00 0. -1.
         25    1    1    2    0    0  0.30881228945E+02  0.73839824726E+02  0.25962867767E+03  0.29906190043E+03  0.12500000000E+03 0.  0.
         25    1    1    2    0    0 -0.18323741526E+03  0.46629428662E+02  0.24367242666E+03  0.33279348774E+03  0.12500000000E+03 0.  0.
         25    1    1    2    0    0  0.15235618631E+03 -0.12046925339E+03  0.51466698175E+02  0.23664122536E+03  0.12500000000E+03 0.  0.
</event>
<event>
 5    0  0.5660959E-005  0.2916950E+03  0.7546771E-02  0.1089467E+00
         21   -1    0    0  502  501  0.00000000000E+00  0.00000000000E+00  0.15766316556E+03  0.15766316556E+03  0.00000000000E+00 0.  1.
         21   -1    0    0  501  502 -0.00000000000E+00 -0.00000000000E+00 -0.53966919325E+03  0.53966919325E+03  0.00000000000E+00 0.  1.
         25    1    1    2    0    0 -0.25469606241E+02  0.17289395656E+03 -0.19151269780E+03  0.28782483297E+03  0.12500000000E+03 0.  0.
         25    1    1    2    0    0  0.63810777527E+02 -0.18241620371E+03 -0.13753791541E+03  0.26812154870E+03  0.12500000000E+03 0.  0.
         25    1    1    2    0    0 -0.38341171286E+02  0.95222471443E+01 -0.52955414477E+02  0.14138597713E+03  0.12500000000E+03 0.  0.
</event>
<event>
 5    0  0.5660959E-005  0.2268800E+03  0.7546771E-02  0.1128855E+00
         21   -1    0    0  502  501  0.00000000000E+00  0.00000000000E+00  0.98407011535E+03  0.98407011535E+03  0.00000000000E+00 0.  1.
         21   -1    0    0  501  502 -0.00000000000E+00 -0.00000000000E+00 -0.52307771407E+02  0.52307771407E+02  0.00000000000E+00 0.  1.
         25    1    1    2    0    0 -0.15506028459E+02  0.64704064672E+01  0.32073503992E+03  0.34464223321E+03  0.12500000000E+03 0.  0.
         25    1    1    2    0    0  0.29067430363E+02 -0.57167172663E+02  0.49087670833E+03  0.51058588300E+03  0.12500000000E+03 0.  0.
         25    1    1    2    0    0 -0.13561401904E+02  0.50696766196E+02  0.12015059570E+03  0.18114977055E+03  0.12500000000E+03 0.  0.
</event>
<event>
 5    0  0.5660959E-005  0.4428342E+03  0.7546771E-02  0.1029881E+00
         21   -1    0    0  502  501  0.00000000000E+00  0.00000000000E+00  0.10534255659E+04  0.10534255659E+04  0.00000000000E+00 0. -1.
         21   -1    0    0  501  502 -0.00000000000E+00 -0.00000000000E+00 -0.18615659523E+03  0.18615659523E+03  0.00000000000E+00 0. -1.
         25    1    1    2    0    0 -0.19612980333E+03 -0.85150993636E+02  0.51148720575E+02  0.25290073762E+03  0.12500000000E+03 0.  0.
         25    1    1    2    0    0  0.32784716998E+03  0.71887416066E+02  0.63980391215E+03  0.73322957759E+03  0.12500000000E+03 0.  0.
         25    1    1    2    0    0 -0.13171736666E+03  0.13263577570E+02  0.17631633791E+03  0.25345184589E+03  0.12500000000E+03 0.  0.
</event>
<event>
 5    0  0.5660959E-005  0.3133916E+03  0.7546771E-02  0.1078732E+00
         21   -1    0    0  502  501  0.00000000000E+00  0.00000000000E+00  0.85521758870E+03  0.85521758870E+03  0.00000000000E+00 0. -1.
         21   -1    0    0  501  502 -0.00000000000E+00 -0.00000000000E+00 -0.11484127325E+03  0.11484127325E+03  0.00000000000E+00 0. -1.
         25    1    1    2    0    0 -0.12201125206E+03  0.19375942835E+03  0.29778255515E+03  0.39589002495E+03  0.12500000000E+03 0.  0.
         25    1    1    2    0    0 -0.64466239901E+01 -0.97502131722E+02  0.23461815439E+03  0.28322941765E+03  0.12500000000E+03 0.  0.
         25    1    1    2    0    0  0.12845787605E+03 -0.96257296628E+02  0.20797560592E+03  0.29093941935E+03  0.12500000000E+03 0.  0.
</event>
<event>
 5    0  0.5660959E-005  0.2504502E+03  0.7546771E-02  0.1113021E+00
         21   -1    0    0  502  501  0.00000000000E+00  0.00000000000E+00  0.14707054649E+03  0.14707054649E+03  0.00000000000E+00 0.  1.
         21   -1    0    0  501  502 -0.00000000000E+00 -0.00000000000E+00 -0.42649791014E+03  0.42649791014E+03  0.00000000000E+00 0.  1.
         25    1    1    2    0    0 -0.50015228017E+02 -0.12055962622E+03 -0.14469598385E+03  0.23151257903E+03  0.12500000000E+03 0.  0.
         25    1    1    2    0    0 -0.26394270534E+02  0.68300536646E+02 -0.14757749044E+02  0.14561734780E+03  0.12500000000E+03 0.  0.
         25    1    1    2    0    0  0.76409498551E+02  0.52259089570E+02 -0.11997363076E+03  0.19643852980E+03  0.12500000000E+03 0.  0.
</event>
<event>
 5    0  0.5660959E-005  0.4294170E+03  0.7546771E-02  0.1034044E+00
         21   -1    0    0  502  501  0.00000000000E+00  0.00000000000E+00  0.46289875356E+03  0.46289875356E+03  0.00000000000E+00 0. -1.
         21   -1    0    0  501  502 -0.00000000000E+00 -0.00000000000E+00 -0.39835694212E+03  0.39835694212E+03  0.00000000000E+00 0. -1.
         25    1    1    2    0    0  0.14859032345E+03  0.21614934009E+03 -0.17673306545E+03  0.34008704454E+03  0.12500000000E+03 0.  0.
         25    1    1    2    0    0  0.63374541696E+02 -0.23715612263E+02  0.33621184741E+02  0.14606213357E+03  0.12500000000E+03 0.  0.
         25    1    1    2    0    0 -0.21196486514E+03 -0.19243372782E+03  0.20765369214E+03  0.37510651756E+03  0.12500000000E+03 0.  0.
</event>
<event>
 5    0  0.5660959E-005  0.2079268E+03  0.7546771E-02  0.1143218E+00
         21   -1    0    0  502  501  0.00000000000E+00  0.00000000000E+00  0.81993974737E+03  0.81993974737E+03  0.00000000000E+00 0. -1.
         21   -1    0    0  501  502 -0.00000000000E+00 -0.00000000000E+00 -0.52727742619E+02  0.52727742619E+02  0.00000000000E+00 0. -1.
         25    1    1    2    0    0 -0.86782516713E+01  0.84938656967E+02  0.26766651698E+03  0.30750650694E+03  0.12500000000E+03 0.  0.
         25    1    1    2    0    0  0.69783996861E+01 -0.45062953685E+02  0.24673403908E+03  0.28032490773E+03  0.12500000000E+03 0.  0.
         25    1    1    2    0    0  0.16998519852E+01 -0.39875703282E+02  0.25281144870E+03  0.28483607531E+03  0.12500000000E+03 0.  0.
</event>
<event>
 5    0  0.5660959E-005  0.4315759E+03  0.7546771E-02  0.1033363E+00
         21   -1    0    0  502  501  0.00000000000E+00  0.00000000000E+00  0.46713122943E+03  0.46713122943E+03  0.00000000000E+00 0. -1.
         21   -1    0    0  501  502 -0.00000000000E+00 -0.00000000000E+00 -0.39872683682E+03  0.39872683682E+03  0.00000000000E+00 0. -1.
         25    1    1    2    0    0 -0.42151202519E+02 -0.21548801865E+03 -0.21695578744E+03  0.33302646105E+03  0.12500000000E+03 0.  0.
         25    1    1    2    0    0 -0.97853948930E+02  0.13901991040E+03  0.24992153280E+03  0.32708974818E+03  0.12500000000E+03 0.  0.
         25    1    1    2    0    0  0.14000515145E+03  0.76468108248E+02  0.35438647237E+02  0.20574185702E+03  0.12500000000E+03 0.  0.
</event>
<event>
 5    0  0.5660959E-005  0.2318068E+03  0.7546771E-02  0.1125374E+00
         21   -1    0    0  502  501  0.00000000000E+00  0.00000000000E+00  0.19114275617E+03  0.19114275617E+03  0.00000000000E+00 0.  1.
         21   -1    0    0  501  502 -0.00000000000E+00 -0.00000000000E+00 -0.28112188687E+03  0.28112188687E+03  0.00000000000E+00 0.  1.
         25    1    1    2    0    0  0.36563016387E+02  0.62910323358E+02 -0.15770331707E+01  0.14464456432E+03  0.12500000000E+03 0.  0.
         25    1    1    2    0    0  0.59924188666E+02  0.49693952057E+00 -0.73246740210E+02  0.15678405623E+03  0.12500000000E+03 0.  0.
         25    1    1    2    0    0 -0.96487205053E+02 -0.63407262878E+02 -0.15155357317E+02  0.17083602249E+03  0.12500000000E+03 0.  0.
</event>
<event>
 5    0  0.5660959E-005  0.3043975E+03  0.7546771E-02  0.1083063E+00
         21   -1    0    0  502  501  0.00000000000E+00  0.00000000000E+00  0.22860303695E+03  0.22860303695E+03  0.00000000000E+00 0. -1.
         21   -1    0    0  501  502 -0.00000000000E+00 -0.00000000000E+00 -0.40532189093E+03  0.40532189093E+03  0.00000000000E+00 0. -1.
         25    1    1    2    0    0  0.44666356204E+02 -0.43654517367E+02 -0.64657402586E+02  0.15396876298E+03  0.12500000000E+03 0.  0.
         25    1    1    2    0    0 -0.14687740084E+03  0.51909274675E+02  0.91755730927E+02  0.21979913065E+03  0.12500000000E+03 0.  0.
         25    1    1    2    0    0  0.10221104464E+03 -0.82547573080E+01 -0.20381718232E+03  0.26015703426E+03  0.12500000000E+03 0.  0.
</event>
<event>
 5    0  0.5660959E-005  0.3759663E+03  0.7546771E-02  0.1052435E+00
         21   -1    0    0  502  501  0.00000000000E+00  0.00000000000E+00  0.76597635479E+02  0.76597635479E+02  0.00000000000E+00 0. -1.
         21   -1    0    0  501  502 -0.00000000000E+00 -0.00000000000E+00 -0.18453654685E+04  0.18453654685E+04  0.00000000000E+00 0. -1.
         25    1    1    2    0    0  0.21126889635E+02  0.84873655286E+02 -0.13960602979E+03  0.20679634035E+03  0.12500000000E+03 0.  0.
         25    1    1    2    0    0  0.20567793914E+03 -0.82802430729E+02 -0.56070572035E+03  0.61577232969E+03  0.12500000000E+03 0.  0.
         25    1    1    2    0    0 -0.22680482878E+03 -0.20712245572E+01 -0.10684560829E+04  0.10993944339E+04  0.12500000000E+03 0.  0.
</event>
<event>
 5    0  0.6089069E-005  0.2973481E+03  0.7546771E-02  0.1086574E+00
         21   -1    0    0  502  501  0.00000000000E+00  0.00000000000E+00  0.16419736573E+03  0.16419736573E+03  0.00000000000E+00 0. -1.
         21   -1    0    0  501  502 -0.00000000000E+00 -0.00000000000E+00 -0.53847334242E+03  0.53847334242E+03  0.00000000000E+00 0. -1.
         25    1    1    2    0    0  0.74858894156E+02 -0.89348015366E+02 -0.26706432130E+03  0.31707297834E+03  0.12500000000E+03 0.  0.
         25    1    1    2    0    0 -0.92379736840E+02  0.12171399026E+03 -0.15055321297E+03  0.24827319859E+03  0.12500000000E+03 0.  0.
         25    1    1    2    0    0  0.17520842683E+02 -0.32365974891E+02  0.43341557582E+02  0.13732453121E+03  0.12500000000E+03 0.  0.
</event>
<event>
 5    0  0.5660959E-005  0.3650461E+03  0.7546771E-02  0.1056604E+00
         21   -1    0    0  502  501  0.00000000000E+00  0.00000000000E+00  0.26617980584E+03  0.26617980584E+03  0.00000000000E+00 0. -1.
         21   -1    0    0  501  502 -0.00000000000E+00 -0.00000000000E+00 -0.50063392540E+03  0.50063392540E+03  0.00000000000E+00 0. -1.
         25    1    1    2    0    0 -0.19623736355E+03  0.17063578694E+02 -0.14592635028E+03  0.27517225201E+03  0.12500000000E+03 0.  0.
         25    1    1    2    0    0 -0.86243411094E+02  0.42255086456E+02  0.20003926139E+02  0.15889800298E+03  0.12500000000E+03 0.  0.
         25    1    1    2    0    0  0.28248077464E+03 -0.59318665150E+02 -0.10853169542E+03  0.33274347625E+03  0.12500000000E+03 0.  0.
</event>
<event>
 5    0  0.5660959E-005  0.2927118E+03  0.7546771E-02  0.1088942E+00
         21   -1    0    0  502  501  0.00000000000E+00  0.00000000000E+00  0.36780197935E+03  0.36780197935E+03  0.00000000000E+00 0.  1.
         21   -1    0    0  501  502 -0.00000000000E+00 -0.00000000000E+00 -0.23295203215E+03  0.23295203215E+03  0.00000000000E+00 0.  1.
         25    1    1    2    0    0 -0.57630102372E+02 -0.17648719211E+03 -0.22177169335E+02  0.22491283760E+03  0.12500000000E+03 0.  0.
         25    1    1    2    0    0  0.63212178718E+02  0.97100787264E+02  0.15072379187E+03  0.22752363363E+03  0.12500000000E+03 0.  0.
         25    1    1    2    0    0 -0.55820763453E+01  0.79386404845E+02  0.63033246633E+01  0.14831754027E+03  0.12500000000E+03 0.  0.
</event>
<event>
 5    0  0.5660959E-005  0.3358275E+03  0.7546771E-02  0.1068587E+00
         21   -1    0    0  502  501  0.00000000000E+00  0.00000000000E+00  0.88497449724E+02  0.88497449724E+02  0.00000000000E+00 0.  1.
         21   -1    0    0  501  502 -0.00000000000E+00 -0.00000000000E+00 -0.12743880513E+04  0.12743880513E+04  0.00000000000E+00 0.  1.
         25    1    1    2    0    0  0.54278763367E+02 -0.17865850618E+03 -0.53428095669E+03  0.57960864958E+03  0.12500000000E+03 0.  0.
         25    1    1    2    0    0 -0.56184184203E+02 -0.57880901094E+02 -0.34883044871E+03  0.37922887972E+03  0.12500000000E+03 0.  0.
         25    1    1    2    0    0  0.19054208355E+01  0.23653940727E+03 -0.30277919618E+03  0.40404797173E+03  0.12500000000E+03 0.  0.
</event>
<event>
 5    0  0.6891487E-005  0.3791780E+03  0.7546771E-02  0.1051238E+00
         21   -1    0    0  502  501  0.00000000000E+00  0.00000000000E+00  0.15468540272E+03  0.15468540272E+03  0.00000000000E+00 0. -1.
         21   -1    0    0  501  502 -0.00000000000E+00 -0.00000000000E+00 -0.92947309523E+03  0.92947309523E+03  0.00000000000E+00 0. -1.
         25    1    1    2    0    0 -0.15456860792E+03  0.12456809868E+03 -0.33432303508E+03  0.40841836093E+03  0.12500000000E+03 0.  0.
         25    1    1    2    0    0  0.14379784856E+03 -0.24832966283E+02  0.15165728722E+02  0.19274204729E+03  0.12500000000E+03 0.  0.
         25    1    1    2    0    0  0.10770759360E+02 -0.99735132397E+02 -0.45563038616E+03  0.48299808973E+03  0.12500000000E+03 0.  0.
</event>
<event>
 5    0  0.5660959E-005  0.2564280E+03  0.7546771E-02  0.1109309E+00
         21   -1    0    0  502  501  0.00000000000E+00  0.00000000000E+00  0.87030371007E+02  0.87030371007E+02  0.00000000000E+00 0. -1.
         21   -1    0    0  501  502 -0.00000000000E+00 -0.00000000000E+00 -0.75554457950E+03  0.75554457950E+03  0.00000000000E+00 0. -1.
         25    1    1    2    0    0 -0.34518907564E+02 -0.21517436255E+02 -0.33321282107E+03  0.35820432601E+03  0.12500000000E+03 0.  0.
         25    1    1    2    0    0 -0.75529238188E+02  0.76134600322E+02 -0.21902511732E+03  0.27404040798E+03  0.12500000000E+03 0.  0.
         25    1    1    2    0    0  0.11004814575E+03 -0.54617164067E+02 -0.11627627010E+03  0.21033021652E+03  0.12500000000E+03 0.  0.
</event>
<event>
 5    0  0.5660959E-005  0.3380675E+03  0.7546771E-02  0.1067622E+00
         21   -1    0    0  502  501  0.00000000000E+00  0.00000000000E+00  0.93283279405E+02  0.93283279405E+02  0.00000000000E+00 0. -1.
         21   -1    0    0  501  502 -0.00000000000E+00 -0.00000000000E+00 -0.12251885339E+04  0.12251885339E+04  0.00000000000E+00 0. -1.
         25    1    1    2    0    0 -0.13993803350E+02  0.54443883386E+02 -0.86533729171E+02  0.16208963340E+03  0.12500000000E+03 0.  0.
         25    1    1    2    0    0 -0.19016683132E+03  0.33376089717E+02 -0.38474439456E+03  0.44825287087E+03  0.12500000000E+03 0.  0.
         25    1    1    2    0    0  0.20416063467E+03 -0.87819973104E+02 -0.66062713081E+03  0.70812930908E+03  0.12500000000E+03 0.  0.
</event>
<event>
 5    0  0.5660959E-005  0.3484111E+03  0.7546771E-02  0.1063269E+00
         21   -1    0    0  502  501  0.00000000000E+00  0.00000000000E+00  0.29172723165E+03  0.29172723165E+03  0.00000000000E+00 0.  1.
         21   -1    0    0  501  502 -0.00000000000E+00 -0.00000000000E+00 -0.41610892385E+03  0.41610892385E+03  0.00000000000E+00 0.  1.
         25    1    1    2    0    0  0.24573336405E+03  0.38914370498E+02 -0.17543755408E+02  0.27898386654E+03  0.12500000000E+03 0.  0.
         25    1    1    2    0    0 -0.62959434393E+01  0.13381975563E+02  0.17242808869E+02  0.12704735586E+03  0.12500000000E+03 0.  0.
         25    1    1    2    0    0 -0.23943742061E+03 -0.52296346061E+02 -0.12408074566E+03  0.30180493310E+03  0.12500000000E+03 0.  0.
</event>
<event>
 5    0  0.6196922E-005  0.3284899E+03  0.7546771E-02  0.1071807E+00
         21   -1    0    0  502  501  0.00000000000E+00  0.00000000000E+00  0.66249232937E+03  0.66249232937E+03  0.00000000000E+00 0.  1.
         21   -1    0    0  501  502 -0.00000000000E+00 -0.00000000000E+00 -0.16287827010E+03  0.16287827010E+03  0.00000000000E+00 0.  1.
         25    1    1    2    0    0 -0.32550613907E+02  0.13821754516E+03  0.35126054837E+03  0.39896441582E+03  0.12500000000E+03 0.  0.
         25    1    1    2    0    0 -0.66423620758E+02  0.14241799978E+02 -0.26746745580E+02  0.14475950629E+03  0.12500000000E+03 0.  0.
         25    1    1    2    0    0  0.98974234665E+02 -0.15245934513E+03  0.17510025649E+03  0.28164667736E+03  0.12500000000E+03 0.  0.
</event>
<event>
 5    0  0.5660959E-005  0.3327805E+03  0.7546771E-02  0.1069913E+00
         21   -1    0    0  502  501  0.00000000000E+00  0.00000000000E+00  0.51252852099E+03  0.51252852099E+03  0.00000000000E+00 0.  1.
         21   -1    0    0  501  502 -0.00000000000E+00 -0.00000000000E+00 -0.21607154263E+03  0.21607154263E+03  0.00000000000E+00 0.  1.
         25    1    1    2    0    0  0.12025980914E+03  0.97258822192E+02 -0.18002482825E+01  0.19887166988E+03  0.12500000000E+03 0.  0.
         25    1    1    2    0    0  0.77189632468E+02 -0.13093746212E+03  0.96588851668E+02  0.21921967205E+03  0.12500000000E+03 0.  0.
         25    1    1    2    0    0 -0.19744944160E+03  0.33678639926E+02  0.20166837498E+03  0.31050872169E+03  0.12500000000E+03 0.  0.
</event>
<event>
 5    0  0.5660959E-005  0.3823468E+03  0.7546771E-02  0.1050070E+00
         21   -1    0    0  502  501  0.00000000000E+00  0.00000000000E+00  0.64897266640E+03  0.64897266640E+03  0.00000000000E+00 0. -1.
         21   -1    0    0  501  502 -0.00000000000E+00 -0.00000000000E+00 -0.22526226684E+03  0.22526226684E+03  0.00000000000E+00 0. -1.
         25    1    1    2    0    0  0.22055027476E+02 -0.28260905766E+03  0.13324955445E+03  0.33724582647E+03  0.12500000000E+03 0.  0.
         25    1    1    2    0    0  0.76217880014E+02  0.24783969389E+03  0.16787621112E+03  0.33322830216E+03  0.12500000000E+03 0.  0.
         25    1    1    2    0    0 -0.98272907490E+02  0.34769363774E+02  0.12258463399E+03  0.20376080461E+03  0.12500000000E+03 0.  0.
</event>
<event>
 5    0  0.5660959E-005  0.2302901E+03  0.7546771E-02  0.1126436E+00
         21   -1    0    0  502  501  0.00000000000E+00  0.00000000000E+00  0.37705513750E+02  0.37705513750E+02  0.00000000000E+00 0.  1.
         21   -1    0    0  501  502 -0.00000000000E+00 -0.00000000000E+00 -0.14065190345E+04  0.14065190345E+04  0.00000000000E+00 0.  1.
         25    1    1    2    0    0  0.43867022467E+02  0.84801472566E+01 -0.73800749828E+03  0.74985084922E+03  0.12500000000E+03 0.  0.
         25    1    1    2    0    0 -0.35321966269E+02 -0.39490517765E+02 -0.46404275913E+03  0.48349542356E+03  0.12500000000E+03 0.  0.
         25    1    1    2    0    0 -0.85450561979E+01  0.31010370508E+02 -0.16676326329E+03  0.21087827543E+03  0.12500000000E+03 0.  0.
</event>
<event>
 5    0  0.5660959E-005  0.2155290E+03  0.7546771E-02  0.1137261E+00
         21   -1    0    0  502  501  0.00000000000E+00  0.00000000000E+00  0.75069887932E+02  0.75069887932E+02  0.00000000000E+00 0.  1.
         21   -1    0    0  501  502 -0.00000000000E+00 -0.00000000000E+00 -0.61879365279E+03  0.61879365279E+03  0.00000000000E+00 0.  1.
         25    1    1    2    0    0  0.68118925747E+01  0.83296739265E+01 -0.26455192867E+03  0.29279431058E+03  0.12500000000E+03 0.  0.
         25    1    1    2    0    0 -0.17704655907E+02 -0.51932855502E+02 -0.21217286210E+03  0.25229506482E+03  0.12500000000E+03 0.  0.
         25    1    1    2    0    0  0.10892763332E+02  0.43603181576E+02 -0.66998974090E+02  0.14877416532E+03  0.12500000000E+03 0.  0.
</event>
<event>
 5    0  0.5660959E-005  0.3327600E+03  0.7546771E-02  0.1069922E+00
         21   -1    0    0  502  501  0.00000000000E+00  0.00000000000E+00  0.49031959115E+03  0.49031959115E+03  0.00000000000E+00 0. -1.
         21   -1    0    0  501  502 -0.00000000000E+00 -0.00000000000E+00 -0.22583067727E+03  0.22583067727E+03  0.00000000000E+00 0. -1.
         25    1    1    2    0    0  0.18816427702E+03  0.71034794470E+02  0.74661452891E+02  0.24829633449E+03  0.12500000000E+03 0.  0.
         25    1    1    2    0    0 -0.14889460909E+03  0.27841648556E+02  0.22637192832E+03  0.29968985959E+03  0.12500000000E+03 0.  0.
         25    1    1    2    0    0 -0.39269667935E+02 -0.98876443027E+02 -0.36544467338E+02  0.16816407434E+03  0.12500000000E+03 0.  0.
</event>
<event>
 5    0  0.5660959E-005  0.3257597E+03  0.7546771E-02  0.1073029E+00
         21   -1    0    0  502  501  0.00000000000E+00  0.00000000000E+00  0.98810908125E+03  0.98810908125E+03  0.00000000000E+00 0.  1.
         21   -1    0    0  501  502 -0.00000000000E+00 -0.00000000000E+00 -0.10739644944E+03  0.10739644944E+03  0.00000000000E+00 0.  1.
         25    1    1    2    0    0  0.33767455737E+02  0.87128697154E+02  0.45688248985E+03  0.48280250669E+03  0.12500000000E+03 0.  0.
         25    1    1    2    0    0 -0.81955521264E+01 -0.88462365845E+02 -0.16517287607E+02  0.15424194642E+03  0.12500000000E+03 0.  0.
         25    1    1    2    0    0 -0.25571903611E+02  0.13336686913E+01  0.44034742957E+03  0.45846107758E+03  0.12500000000E+03 0.  0.
</event>
<event>
 5    0  0.5660959E-005  0.3624440E+03  0.7546771E-02  0.1057620E+00
         21   -1    0    0  502  501  0.00000000000E+00  0.00000000000E+00  0.92813591433E+03  0.92813591433E+03  0.00000000000E+00 0.  1.
         21   -1    0    0  501  502 -0.00000000000E+00 -0.00000000000E+00 -0.14153710250E+03  0.14153710250E+03  0.00000000000E+00 0.  1.
         25    1    1    2    0    0  0.45137612581E+02  0.72455382499E+02  0.12462302229E+02  0.15187987194E+03  0.12500000000E+03 0.  0.
         25    1    1    2    0    0  0.10323133900E+02  0.10764423476E+03  0.62601248120E+03  0.64746465154E+03  0.12500000000E+03 0.  0.
         25    1    1    2    0    0 -0.55460746481E+02 -0.18009961726E+03  0.14812402840E+03  0.27032849337E+03  0.12500000000E+03 0.  0.
</event>
<event>
 5    0  0.5884890E-005  0.3915598E+03  0.7546771E-02  0.1046742E+00
         21   -1    0    0  502  501  0.00000000000E+00  0.00000000000E+00  0.35667809031E+03  0.35667809031E+03  0.00000000000E+00 0. -1.
         21   -1    0    0  501  502 -0.00000000000E+00 -0.00000000000E+00 -0.42985283816E+03  0.42985283816E+03  0.00000000000E+00 0. -1.
         25    1    1    2    0    0 -0.18934477055E+03  0.39490320571E+02 -0.23780592906E+03  0.33104015987E+03  0.12500000000E+03 0.  0.
         25    1    1    2    0    0  0.13883419517E+03  0.10275383312E+03  0.14645750937E+03  0.25866597384E+03  0.12500000000E+03 0.  0.
         25    1    1    2    0    0  0.50510575377E+02 -0.14224415369E+03  0.18173671849E+02  0.19682479476E+03  0.12500000000E+03 0.  0.
</event>
<event>
 5    0  0.5660959E-005  0.3217710E+03  0.7546771E-02  0.1074837E+00
         21   -1    0    0  502  501  0.00000000000E+00  0.00000000000E+00  0.53447863463E+03  0.53447863463E+03  0.00000000000E+00 0. -1.
         21   -1    0    0  501  502 -0.00000000000E+00 -0.00000000000E+00 -0.19371510280E+03  0.19371510280E+03  0.00000000000E+00 0. -1.
         25    1    1    2    0    0 -0.88090796826E+00 -0.98462859986E+02 -0.37325453661E+02  0.16344387504E+03  0.12500000000E+03 0.  0.
         25    1    1    2    0    0  0.21683378796E+02  0.78864155898E+01 -0.27698490838E+02  0.13009446899E+03  0.12500000000E+03 0.  0.
         25    1    1    2    0    0 -0.20802470828E+02  0.90576444396E+02  0.40578747633E+03  0.43465539341E+03  0.12500000000E+03 0.  0.
</event>
<event>
 5    0  0.5660959E-005  0.3768592E+03  0.7546771E-02  0.1052101E+00
         21   -1    0    0  502  501  0.00000000000E+00  0.00000000000E+00  0.15731265403E+03  0.15731265403E+03  0.00000000000E+00 0.  1.
         21   -1    0    0  501  502 -0.00000000000E+00 -0.00000000000E+00 -0.90280619061E+03  0.90280619061E+03  0.00000000000E+00 0.  1.
         25    1    1    2    0    0  0.99215442858E+02 -0.18469129331E+03 -0.31091591494E+03  0.39528253704E+03  0.12500000000E+03 0.  0.
         25    1    1    2    0    0  0.12213205438E+02  0.27665841221E+03 -0.20673804485E+03  0.36749783486E+03  0.12500000000E+03 0.  0.
         25    1    1    2    0    0 -0.11142864830E+03 -0.91967118909E+02 -0.22783957679E+03  0.29733847274E+03  0.12500000000E+03 0.  0.
</event>
<event>
 5    0  0.5660959E-005  0.3132225E+03  0.7546771E-02  0.1078811E+00
         21   -1    0    0  502  501  0.00000000000E+00  0.00000000000E+00  0.70993853347E+02  0.70993853347E+02  0.00000000000E+00 0.  1.
         21   -1    0    0  501  502 -0.00000000000E+00 -0.00000000000E+00 -0.13819273739E+04  0.13819273739E+04  0.00000000000E+00 0.  1.
         25    1    1    2    0    0 -0.53851713012E+02  0.83813060608E+02 -0.18943286087E+03  0.24785972827E+03  0.12500000000E+03 0.  0.
         25    1    1    2    0    0  0.69143926751E+02 -0.80793724537E+02 -0.10447329860E+04  0.10575445715E+04  0.12500000000E+03 0.  0.
         25    1    1    2    0    0 -0.15292213739E+02 -0.30193360711E+01 -0.76767673707E+02  0.14751692756E+03  0.12500000000E+03 0.  0.
</event>
<event>
 5    0  0.5660959E-005  0.2516432E+03  0.7546771E-02  0.1112271E+00
         21   -1    0    0  502  501  0.00000000000E+00  0.00000000000E+00  0.32872239925E+03  0.32872239925E+03  0.00000000000E+00 0.  1.
         21   -1    0    0  501  502 -0.00000000000E+00 -0.00000000000E+00 -0.19263756574E+03  0.19263756574E+03  0.00000000000E+00 0.  1.
         25    1    1    2    0    0  0.57220680841E+02 -0.19380532825E+02 -0.14675936076E+02  0.13960728659E+03  0.12500000000E+03 0.  0.
         25    1    1    2    0    0  0.42238520945E+02  0.96800448216E+02  0.11672001474E+03  0.20100492846E+03  0.12500000000E+03 0.  0.
         25    1    1    2    0    0 -0.99459201786E+02 -0.77419915391E+02  0.34040754845E+02  0.18074774994E+03  0.12500000000E+03 0.  0.
</event>
<event>
 5    0  0.5660959E-005  0.4070690E+03  0.7546771E-02  0.1041359E+00
         21   -1    0    0  502  501  0.00000000000E+00  0.00000000000E+00  0.13656790932E+04  0.13656790932E+04  0.00000000000E+00 0. -1.
         21   -1    0    0  501  502 -0.00000000000E+00 -0.00000000000E+00 -0.12133536920E+03  0.12133536920E+03  0.00000000000E+00 0. -1.
         25    1    1    2    0    0 -0.20567234163E+03  0.77811231693E+02  0.31271363643E+03  0.40220705898E+03  0.12500000000E+03 0.  0.
         25    1    1    2    0    0  0.20115694297E+03 -0.15285413368E+03  0.88933068048E+03  0.93293223823E+03  0.12500000000E+03 0.  0.
         25    1    1    2    0    0  0.45153986649E+01  0.75042901992E+02  0.42299407129E+02  0.15187516521E+03  0.12500000000E+03 0.  0.
</event>
<event>
 5    0  0.5660959E-005  0.2944635E+03  0.7546771E-02  0.1088041E+00
         21   -1    0    0  502  501  0.00000000000E+00  0.00000000000E+00  0.72438367004E+03  0.72438367004E+03  0.00000000000E+00 0.  1.
         21   -1    0    0  501  502 -0.00000000000E+00 -0.00000000000E+00 -0.11970003987E+03  0.11970003987E+03  0.00000000000E+00 0.  1.
         25    1    1    2    0    0  0.18586109406E+03  0.59104544408E+02  0.25705514835E+03  0.34603474211E+03  0.12500000000E+03 0.  0.
         25    1    1    2    0    0 -0.20462506666E+02 -0.13560529982E+02  0.60619959742E+02  0.14107580116E+03  0.12500000000E+03 0.  0.
         25    1    1    2    0    0 -0.16539858740E+03 -0.45544014426E+02  0.28700852207E+03  0.35697316665E+03  0.12500000000E+03 0.  0.
</event>
<event>
 5    0  0.5660959E-005  0.3229158E+03  0.7546771E-02  0.1074315E+00
         21   -1    0    0  502  501  0.00000000000E+00  0.00000000000E+00  0.38508228015E+03  0.38508228015E+03  0.00000000000E+00 0. -1.
         21   -1    0    0  501  502 -0.00000000000E+00 -0.00000000000E+00 -0.27078530864E+03  0.27078530864E+03  0.00000000000E+00 0. -1.
         25    1    1    2    0    0 -0.84050192846E+02  0.49274779616E+02 -0.83942784481E+02  0.17934277206E+03  0.12500000000E+03 0.  0.
         25    1    1    2    0    0  0.13068075316E+03 -0.47235549847E+01  0.26497708422E+03  0.32083894149E+03  0.12500000000E+03 0.  0.
         25    1    1    2    0    0 -0.46630560315E+02 -0.44551224631E+02 -0.66737328223E+02  0.15568587524E+03  0.12500000000E+03 0.  0.
</event>
<event>
 5    0  0.5660959E-005  0.3101919E+03  0.7546771E-02  0.1080254E+00
         21   -1    0    0  502  501  0.00000000000E+00  0.00000000000E+00  0.21130823085E+03  0.21130823085E+03  0.00000000000E+00 0. -1.
         21   -1    0    0  501  502 -0.00000000000E+00 -0.00000000000E+00 -0.45534904767E+03  0.45534904767E+03  0.00000000000E+00 0. -1.
         25    1    1    2    0    0 -0.27153898595E+02 -0.61532446079E+02 -0.58074296949E+02  0.15336622867E+03  0.12500000000E+03 0.  0.
         25    1    1    2    0    0 -0.95948543916E+02 -0.11371030749E+03  0.13874636487E+02  0.19481699784E+03  0.12500000000E+03 0.  0.
         25    1    1    2    0    0  0.12310244251E+03  0.17524275357E+03 -0.19984115636E+03  0.31847405201E+03  0.12500000000E+03 0.  0.
</event>
<event>
 5    0  0.5660959E-005  0.3885871E+03  0.7546771E-02  0.1047805E+00
         21   -1    0    0  502  501  0.00000000000E+00  0.00000000000E+00  0.12527236534E+03  0.12527236534E+03  0.00000000000E+00 0. -1.
         21   -1    0    0  501  502 -0.00000000000E+00 -0.00000000000E+00 -0.12053727524E+04  0.12053727524E+04  0.00000000000E+00 0. -1.
         25    1    1    2    0    0  0.11838249962E+03  0.25378628076E+03 -0.39007246683E+03  0.49618889740E+03  0.12500000000E+03 0.  0.
         25    1    1    2    0    0 -0.64674707989E+02 -0.15544555899E+03 -0.12300944832E+03  0.24310998342E+03  0.12500000000E+03 0.  0.
         25    1    1    2    0    0 -0.53707791636E+02 -0.98340721774E+02 -0.56701847185E+03  0.59134623687E+03  0.12500000000E+03 0.  0.
</event>
<event>
 5    0  0.5660959E-005  0.2606546E+03  0.7546771E-02  0.1106751E+00
         21   -1    0    0  502  501  0.00000000000E+00  0.00000000000E+00  0.25640017728E+03  0.25640017728E+03  0.00000000000E+00 0.  1.
         21   -1    0    0  501  502 -0.00000000000E+00 -0.00000000000E+00 -0.26497951547E+03  0.26497951547E+03  0.00000000000E+00 0.  1.
         25    1    1    2    0    0 -0.78649541741E+01 -0.88809825964E+02 -0.58895770577E+02  0.16444681354E+03  0.12500000000E+03 0.  0.
         25    1    1    2    0    0  0.11771194468E+03  0.18472590156E+02  0.26250895009E+02  0.17467526441E+03  0.12500000000E+03 0.  0.
         25    1    1    2    0    0 -0.10984699050E+03  0.70337235809E+02  0.24065537371E+02  0.18225761480E+03  0.12500000000E+03 0.  0.
</event>
<event>
 5    0  0.5660959E-005  0.3379929E+03  0.7546771E-02  0.1067654E+00
         21   -1    0    0  502  501  0.00000000000E+00  0.00000000000E+00  0.19224988307E+04  0.19224988307E+04  0.00000000000E+00 0. -1.
         21   -1    0    0  501  502 -0.00000000000E+00 -0.00000000000E+00 -0.59422236220E+02  0.59422236220E+02  0.00000000000E+00 0. -1.
         25    1    1    2    0    0  0.35005589559E+02 -0.59798221361E+01  0.68570914781E+02  0.14692896218E+03  0.12500000000E+03 0.  0.
         25    1    1    2    0    0  0.80318917045E+02  0.10885251350E+03  0.90409405416E+03  0.92266519220E+03  0.12500000000E+03 0.  0.
         25    1    1    2    0    0 -0.11532450660E+03 -0.10287269136E+03  0.89041162558E+03  0.91232691258E+03  0.12500000000E+03 0.  0.
</event>
<event>
 5    0  0.5709304E-005  0.2766720E+03  0.7546771E-02  0.1097521E+00
         21   -1    0    0  502  501  0.00000000000E+00  0.00000000000E+00  0.88077912913E+02  0.88077912913E+02  0.00000000000E+00 0.  1.
         21   -1    0    0  501  502 -0.00000000000E+00 -0.00000000000E+00 -0.86908720375E+03  0.86908720375E+03  0.00000000000E+00 0.  1.
         25    1    1    2    0    0 -0.10226998199E+03 -0.35278086061E+02 -0.22554784988E+03  0.27964356806E+03  0.12500000000E+03 0.  0.
         25    1    1    2    0    0 -0.67397814910E+02  0.88938655471E+02 -0.20119624724E+03  0.26183483305E+03  0.12500000000E+03 0.  0.
         25    1    1    2    0    0  0.16966779690E+03 -0.53660569410E+02 -0.35426519371E+03  0.41568671556E+03  0.12500000000E+03 0.  0.
</event>
<event>
 5    0  0.5660959E-005  0.3362363E+03  0.7546771E-02  0.1068410E+00
         21   -1    0    0  502  501  0.00000000000E+00  0.00000000000E+00  0.66073868429E+03  0.66073868429E+03  0.00000000000E+00 0.  1.
         21   -1    0    0  501  502 -0.00000000000E+00 -0.00000000000E+00 -0.17110368337E+03  0.17110368337E+03  0.00000000000E+00 0.  1.
         25    1    1    2    0    0 -0.93611632776E+02  0.12823179625E+02  0.23186716343E+03  0.27984808951E+03  0.12500000000E+03 0.  0.
         25    1    1    2    0    0  0.23962830620E+03 -0.86591820421E+01  0.61632776827E+02  0.27734510226E+03  0.12500000000E+03 0.  0.
         25    1    1    2    0    0 -0.14601667343E+03 -0.41639975831E+01  0.19613506067E+03  0.27464917589E+03  0.12500000000E+03 0.  0.
</event>
<event>
 5    0  0.8005491E-005  0.4198677E+03  0.7546771E-02  0.1037109E+00
         21   -1    0    0  502  501  0.00000000000E+00  0.00000000000E+00  0.25552901251E+03  0.25552901251E+03  0.00000000000E+00 0.  1.
         21   -1    0    0  501  502 -0.00000000000E+00 -0.00000000000E+00 -0.68989756830E+03  0.68989756830E+03  0.00000000000E+00 0.  1.
         25    1    1    2    0    0  0.35417645664E+02 -0.20824722204E+03 -0.15725639231E+02  0.24595448937E+03  0.12500000000E+03 0.  0.
         25    1    1    2    0    0  0.19059378815E+03  0.96872883442E+02 -0.31274901410E+03  0.39893269288E+03  0.12500000000E+03 0.  0.
         25    1    1    2    0    0 -0.22601143381E+03  0.11137433859E+03 -0.10589390246E+03  0.30053939856E+03  0.12500000000E+03 0.  0.
</event>
<event>
 5    0  0.5660959E-005  0.3590830E+03  0.7546771E-02  0.1058948E+00
         21   -1    0    0  502  501  0.00000000000E+00  0.00000000000E+00  0.88824668765E+02  0.88824668765E+02  0.00000000000E+00 0.  1.
         21   -1    0    0  501  502 -0.00000000000E+00 -0.00000000000E+00 -0.14516303774E+04  0.14516303774E+04  0.00000000000E+00 0.  1.
         25    1    1    2    0    0 -0.16129842453E+03  0.17948586518E+03 -0.69070066534E+03  0.74224306441E+03  0.12500000000E+03 0.  0.
         25    1    1    2    0    0 -0.56803721343E+02 -0.75423401372E+02 -0.21051307802E+03  0.26240447453E+03  0.12500000000E+03 0.  0.
         25    1    1    2    0    0  0.21810214587E+03 -0.10406246380E+03 -0.46159196526E+03  0.53580750723E+03  0.12500000000E+03 0.  0.
</event>
<event>
 5    0  0.5660959E-005  0.2473238E+03  0.7546771E-02  0.1115008E+00
         21   -1    0    0  502  501  0.00000000000E+00  0.00000000000E+00  0.18341622285E+03  0.18341622285E+03  0.00000000000E+00 0. -1.
         21   -1    0    0  501  502 -0.00000000000E+00 -0.00000000000E+00 -0.33349855142E+03  0.33349855142E+03  0.00000000000E+00 0. -1.
         25    1    1    2    0    0 -0.34892474071E+02  0.86676261322E+02  0.36700529322E+02  0.16031901907E+03  0.12500000000E+03 0.  0.
         25    1    1    2    0    0  0.87603059368E+02 -0.30870609888E+02 -0.11290361468E+03  0.19235258452E+03  0.12500000000E+03 0.  0.
         25    1    1    2    0    0 -0.52710585297E+02 -0.55805651434E+02 -0.73879243218E+02  0.16424317067E+03  0.12500000000E+03 0.  0.
</event>
<event>
 5    0  0.5660959E-005  0.8465621E+03  0.7546771E-02  0.9494963E-01
         21   -1    0    0  502  501  0.00000000000E+00  0.00000000000E+00  0.55896065122E+03  0.55896065122E+03  0.00000000000E+00 0. -1.
         21   -1    0    0  501  502 -0.00000000000E+00 -0.00000000000E+00 -0.12821427004E+04  0.12821427004E+04  0.00000000000E+00 0. -1.
         25    1    1    2    0    0  0.47940655066E+03 -0.28378059070E+03 -0.77665926681E+03  0.96394329771E+03  0.12500000000E+03 0.  0.
         25    1    1    2    0    0 -0.35419137101E+03 -0.32614953331E+02 -0.20763107595E+03  0.43040786027E+03  0.12500000000E+03 0.  0.
         25    1    1    2    0    0 -0.12521517965E+03  0.31639554403E+03  0.26110829362E+03  0.44675219361E+03  0.12500000000E+03 0.  0.
</event>
<event>
 5    0  0.5660959E-005  0.2465811E+03  0.7546771E-02  0.1115485E+00
         21   -1    0    0  502  501  0.00000000000E+00  0.00000000000E+00  0.88205635455E+02  0.88205635455E+02  0.00000000000E+00 0. -1.
         21   -1    0    0  501  502 -0.00000000000E+00 -0.00000000000E+00 -0.68932374119E+03  0.68932374119E+03  0.00000000000E+00 0. -1.
         25    1    1    2    0    0 -0.51048445414E+02 -0.27757092914E+02 -0.37499058236E+03  0.39952388770E+03  0.12500000000E+03 0.  0.
         25    1    1    2    0    0  0.94266744639E+02  0.52536193671E+02 -0.97061441601E+02  0.19155206664E+03  0.12500000000E+03 0.  0.
         25    1    1    2    0    0 -0.43218299225E+02 -0.24779100756E+02 -0.12906608177E+03  0.18645342230E+03  0.12500000000E+03 0.  0.
</event>
<event>
 5    0  0.5660959E-005  0.2906380E+03  0.7546771E-02  0.1090017E+00
         21   -1    0    0  502  501  0.00000000000E+00  0.00000000000E+00  0.35824587459E+03  0.35824587459E+03  0.00000000000E+00 0. -1.
         21   -1    0    0  501  502 -0.00000000000E+00 -0.00000000000E+00 -0.23578901819E+03  0.23578901819E+03  0.00000000000E+00 0. -1.
         25    1    1    2    0    0 -0.47138916431E+02 -0.39332540188E+01 -0.87192543425E+02  0.15957784169E+03  0.12500000000E+03 0.  0.
         25    1    1    2    0    0 -0.48602966771E+02 -0.11986905128E+03  0.89868373439E+02  0.20107750341E+03  0.12500000000E+03 0.  0.
         25    1    1    2    0    0  0.95741883202E+02  0.12380230530E+03  0.11978102639E+03  0.23337954769E+03  0.12500000000E+03 0.  0.
</event>
<event>
 5    0  0.5825648E-005  0.2880910E+03  0.7546771E-02  0.1091350E+00
         21   -1    0    0  502  501  0.00000000000E+00  0.00000000000E+00  0.50139467443E+03  0.50139467443E+03  0.00000000000E+00 0. -1.
         21   -1    0    0  501  502 -0.00000000000E+00 -0.00000000000E+00 -0.16553109316E+03  0.16553109316E+03  0.00000000000E+00 0. -1.
         25    1    1    2    0    0  0.77788948003E+01  0.26701107120E+02  0.15905168762E+03  0.20419573860E+03  0.12500000000E+03 0.  0.
         25    1    1    2    0    0 -0.87568652609E+02 -0.16505454761E+03  0.93609740373E+02  0.24351397516E+03  0.12500000000E+03 0.  0.
         25    1    1    2    0    0  0.79789757809E+02  0.13835344049E+03  0.83202153274E+02  0.21921605383E+03  0.12500000000E+03 0.  0.
</event>
<event>
 5    0  0.5660959E-005  0.2256126E+03  0.7546771E-02  0.1129766E+00
         21   -1    0    0  502  501  0.00000000000E+00  0.00000000000E+00  0.56098448113E+02  0.56098448113E+02  0.00000000000E+00 0.  1.
         21   -1    0    0  501  502 -0.00000000000E+00 -0.00000000000E+00 -0.90735190990E+03  0.90735190990E+03  0.00000000000E+00 0.  1.
         25    1    1    2    0    0 -0.57198560917E+02  0.59870439537E+01 -0.46413956047E+03  0.48410541379E+03  0.12500000000E+03 0.  0.
         25    1    1    2    0    0  0.17253363941E+02 -0.50087958553E+02 -0.13348751215E+03  0.19039537300E+03  0.12500000000E+03 0.  0.
         25    1    1    2    0    0  0.39945196976E+02  0.44100914599E+02 -0.25362638916E+03  0.28894957122E+03  0.12500000000E+03 0.  0.
</event>
<event>
 5    0  0.5901233E-005  0.2879725E+03  0.7546771E-02  0.1091413E+00
         21   -1    0    0  502  501  0.00000000000E+00  0.00000000000E+00  0.38659087043E+03  0.38659087043E+03  0.00000000000E+00 0.  1.
         21   -1    0    0  501  502 -0.00000000000E+00 -0.00000000000E+00 -0.21451136577E+03  0.21451136577E+03  0.00000000000E+00 0.  1.
         25    1    1    2    0    0 -0.14635692560E+03  0.42380575594E+02 -0.73550582000E+02  0.21035957542E+03  0.12500000000E+03 0.  0.
         25    1    1    2    0    0  0.88585676329E+02  0.15352653495E+02  0.13688783481E+03  0.20602525413E+03  0.12500000000E+03 0.  0.
         25    1    1    2    0    0  0.57771249268E+02 -0.57733229089E+02  0.10874225185E+03  0.18471740665E+03  0.12500000000E+03 0.  0.
</event>
<event>
 5    0  0.5660959E-005  0.3317650E+03  0.7546771E-02  0.1070359E+00
         21   -1    0    0  502  501  0.00000000000E+00  0.00000000000E+00  0.44153986562E+03  0.44153986562E+03  0.00000000000E+00 0. -1.
         21   -1    0    0  501  502 -0.00000000000E+00 -0.00000000000E+00 -0.24928222155E+03  0.24928222155E+03  0.00000000000E+00 0. -1.
         25    1    1    2    0    0 -0.96312632571E+02 -0.21944526294E+03  0.13901400689E+03  0.30394446982E+03  0.12500000000E+03 0.  0.
         25    1    1    2    0    0  0.42760830683E+02  0.22567866035E+02  0.61491470794E+02  0.14745846262E+03  0.12500000000E+03 0.  0.
         25    1    1    2    0    0  0.53551801889E+02  0.19687739690E+03 -0.82478336141E+01  0.23941915474E+03  0.12500000000E+03 0.  0.
</event>
<event>
 5    0  0.5660959E-005  0.2383023E+03  0.7546771E-02  0.1120929E+00
         21   -1    0    0  502  501  0.00000000000E+00  0.00000000000E+00  0.14983649047E+03  0.14983649047E+03  0.00000000000E+00 0. -1.
         21   -1    0    0  501  502 -0.00000000000E+00 -0.00000000000E+00 -0.37899956110E+03  0.37899956110E+03  0.00000000000E+00 0. -1.
         25    1    1    2    0    0  0.46235610904E+02  0.90120468185E+02 -0.53633882642E+02  0.16959075408E+03  0.12500000000E+03 0.  0.
         25    1    1    2    0    0  0.35794763516E+02 -0.21166449305E+02 -0.13718023221E+03  0.19019121899E+03  0.12500000000E+03 0.  0.
         25    1    1    2    0    0 -0.82030374420E+02 -0.68954018880E+02 -0.38348955783E+02  0.16905407850E+03  0.12500000000E+03 0.  0.
</event>
<event>
 5    0  0.5660959E-005  0.2412605E+03  0.7546771E-02  0.1118956E+00
         21   -1    0    0  502  501  0.00000000000E+00  0.00000000000E+00  0.20513579501E+03  0.20513579501E+03  0.00000000000E+00 0.  1.
         21   -1    0    0  501  502 -0.00000000000E+00 -0.00000000000E+00 -0.28374687944E+03  0.28374687944E+03  0.00000000000E+00 0.  1.
         25    1    1    2    0    0  0.32561012349E+02  0.81177333569E+02 -0.42089950506E+02  0.15826099628E+03  0.12500000000E+03 0.  0.
         25    1    1    2    0    0 -0.88206167839E+01 -0.16168716530E+02 -0.11216484437E+03  0.16895319762E+03  0.12500000000E+03 0.  0.
         25    1    1    2    0    0 -0.23740395565E+02 -0.65008617039E+02  0.75643710447E+02  0.16166848054E+03  0.12500000000E+03 0.  0.
</event>
<event>
 5    0  0.6374619E-005  0.2680961E+03  0.7546771E-02  0.1102374E+00
         21   -1    0    0  502  501  0.00000000000E+00  0.00000000000E+00  0.18171191920E+03  0.18171191920E+03  0.00000000000E+00 0.  1.
         21   -1    0    0  501  502 -0.00000000000E+00 -0.00000000000E+00 -0.39554642065E+03  0.39554642065E+03  0.00000000000E+00 0.  1.
         25    1    1    2    0    0  0.64104163007E+02 -0.16922588500E+02 -0.16326719535E+03  0.21604836216E+03  0.12500000000E+03 0.  0.
         25    1    1    2    0    0  0.76939901878E+02 -0.46685956665E+01 -0.83111337778E+02  0.16874252207E+03  0.12500000000E+03 0.  0.
         25    1    1    2    0    0 -0.14104406488E+03  0.21591184166E+02  0.32544031674E+02  0.19246745561E+03  0.12500000000E+03 0.  0.
</event>
<event>
 5    0  0.5660959E-005  0.2568494E+03  0.7546771E-02  0.1109051E+00
         21   -1    0    0  502  501  0.00000000000E+00  0.00000000000E+00  0.89312749086E+03  0.89312749086E+03  0.00000000000E+00 0. -1.
         21   -1    0    0  501  502 -0.00000000000E+00 -0.00000000000E+00 -0.73865840598E+02  0.73865840598E+02  0.00000000000E+00 0. -1.
         25    1    1    2    0    0 -0.15845746727E+03 -0.18563858265E+02  0.29079461103E+03  0.35445717875E+03  0.12500000000E+03 0.  0.
         25    1    1    2    0    0  0.30057965377E+02  0.84842025474E+01  0.24983997450E+03  0.28110580897E+03  0.12500000000E+03 0.  0.
         25    1    1    2    0    0  0.12839950190E+03  0.10079655718E+02  0.27862706473E+03  0.33143034373E+03  0.12500000000E+03 0.  0.
</event>
<event>
 5    0  0.5660959E-005  0.2907058E+03  0.7546771E-02  0.1089981E+00
         21   -1    0    0  502  501  0.00000000000E+00  0.00000000000E+00  0.37747946473E+03  0.37747946473E+03  0.00000000000E+00 0. -1.
         21   -1    0    0  501  502 -0.00000000000E+00 -0.00000000000E+00 -0.22387939587E+03  0.22387939587E+03  0.00000000000E+00 0. -1.
         25    1    1    2    0    0 -0.95225900039E+01  0.55179406620E+01  0.44154438158E+01  0.12556123420E+03  0.12500000000E+03 0.  0.
         25    1    1    2    0    0 -0.11281022333E+03  0.58339980343E+02 -0.67095574871E+02  0.19041143863E+03  0.12500000000E+03 0.  0.
         25    1    1    2    0    0  0.12233281333E+03 -0.63857921005E+02  0.21628019992E+03  0.28538618777E+03  0.12500000000E+03 0.  0.
</event>
<event>
 5    0  0.5717121E-005  0.3119484E+03  0.7546771E-02  0.1079416E+00
         21   -1    0    0  502  501  0.00000000000E+00  0.00000000000E+00  0.45413900540E+03  0.45413900540E+03  0.00000000000E+00 0.  1.
         21   -1    0    0  501  502 -0.00000000000E+00 -0.00000000000E+00 -0.21427752159E+03  0.21427752159E+03  0.00000000000E+00 0.  1.
         25    1    1    2    0    0  0.76866470310E+02  0.96166165827E+02 -0.79077500579E+02  0.19244385364E+03  0.12500000000E+03 0.  0.
         25    1    1    2    0    0 -0.21468974288E+02 -0.13553469452E+03  0.89677756285E+02  0.20614963073E+03  0.12500000000E+03 0.  0.
         25    1    1    2    0    0 -0.55397496022E+02  0.39368528694E+02  0.22926122810E+03  0.26982304262E+03  0.12500000000E+03 0.  0.
</event>
<event>
 5    0  0.5660959E-005  0.3043288E+03  0.7546771E-02  0.1083096E+00
         21   -1    0    0  502  501  0.00000000000E+00  0.00000000000E+00  0.17393501008E+04  0.17393501008E+04  0.00000000000E+00 0. -1.
         21   -1    0    0  501  502 -0.00000000000E+00 -0.00000000000E+00 -0.53247492457E+02  0.53247492457E+02  0.00000000000E+00 0. -1.
         25    1    1    2    0    0  0.32916303727E+00  0.48665460976E+02  0.63287874504E+03  0.64693812793E+03  0.12500000000E+03 0.  0.
         25    1    1    2    0    0  0.18417329777E+03 -0.42556381074E+02  0.57397855933E+03  0.61709580760E+03  0.12500000000E+03 0.  0.
         25    1    1    2    0    0 -0.18450246081E+03 -0.61090799020E+01  0.47924530400E+03  0.52856365776E+03  0.12500000000E+03 0.  0.
</event>
<event>
 5    0  0.5904239E-005  0.4297455E+03  0.7546771E-02  0.1033940E+00
         21   -1    0    0  502  501  0.00000000000E+00  0.00000000000E+00  0.18850833853E+03  0.18850833853E+03  0.00000000000E+00 0.  1.
         21   -1    0    0  501  502 -0.00000000000E+00 -0.00000000000E+00 -0.97969782932E+03  0.97969782932E+03  0.00000000000E+00 0.  1.
         25    1    1    2    0    0 -0.73808369784E+02  0.19620890698E+03 -0.54914329285E+01  0.24413268209E+03  0.12500000000E+03 0.  0.
         25    1    1    2    0    0 -0.10837570689E+03 -0.17971927905E+03 -0.54323220321E+03  0.59562617446E+03  0.12500000000E+03 0.  0.
         25    1    1    2    0    0  0.18218407667E+03 -0.16489627930E+02 -0.24246585466E+03  0.32844731130E+03  0.12500000000E+03 0.  0.
</event>
<event>
 5    0  0.5911032E-005  0.2470566E+03  0.7546771E-02  0.1115179E+00
         21   -1    0    0  502  501  0.00000000000E+00  0.00000000000E+00  0.18883693223E+03  0.18883693223E+03  0.00000000000E+00 0. -1.
         21   -1    0    0  501  502 -0.00000000000E+00 -0.00000000000E+00 -0.32322569841E+03  0.32322569841E+03  0.00000000000E+00 0. -1.
         25    1    1    2    0    0  0.37852390219E+02  0.70237596810E+02 -0.18073982146E+03  0.23379051844E+03  0.12500000000E+03 0.  0.
         25    1    1    2    0    0  0.19957291628E+01 -0.40228533256E+02  0.57209098526E+02  0.14324873046E+03  0.12500000000E+03 0.  0.
         25    1    1    2    0    0 -0.39848119382E+02 -0.30009063554E+02 -0.10858043251E+02  0.13502338174E+03  0.12500000000E+03 0.  0.
</event>
<event>
 5    0  0.5660959E-005  0.2559818E+03  0.7546771E-02  0.1109582E+00
         21   -1    0    0  502  501  0.00000000000E+00  0.00000000000E+00  0.34369909721E+03  0.34369909721E+03  0.00000000000E+00 0.  1.
         21   -1    0    0  501  502 -0.00000000000E+00 -0.00000000000E+00 -0.19065131875E+03  0.19065131875E+03  0.00000000000E+00 0.  1.
         25    1    1    2    0    0  0.16968448594E+02 -0.50948135341E+02  0.99002439970E+01  0.13640621530E+03  0.12500000000E+03 0.  0.
         25    1    1    2    0    0  0.79518426435E+02 -0.76114710865E+02  0.85514851449E+02  0.18722825420E+03  0.12500000000E+03 0.  0.
         25    1    1    2    0    0 -0.96486875028E+02  0.12706284621E+03  0.57632683009E+02  0.21071594645E+03  0.12500000000E+03 0.  0.
</event>
<event>
 5    0  0.5660959E-005  0.2629199E+03  0.7546771E-02  0.1105401E+00
         21   -1    0    0  502  501  0.00000000000E+00  0.00000000000E+00  0.28698716042E+02  0.28698716042E+02  0.00000000000E+00 0.  1.
         21   -1    0    0  501  502 -0.00000000000E+00 -0.00000000000E+00 -0.24087102381E+04  0.24087102381E+04  0.00000000000E+00 0.  1.
         25    1    1    2    0    0 -0.49353048294E+02 -0.70118287862E+02 -0.70936747616E+03  0.72538232258E+03  0.12500000000E+03 0.  0.
         25    1    1    2    0    0  0.62682905593E+02 -0.75628779659E+02 -0.47265610364E+03  0.49867589802E+03  0.12500000000E+03 0.  0.
         25    1    1    2    0    0 -0.13329857299E+02  0.14574706752E+03 -0.11979879422E+04  0.12133507335E+04  0.12500000000E+03 0.  0.
</event>
<event>
 5    0  0.5660959E-005  0.2902879E+03  0.7546771E-02  0.1090199E+00
         21   -1    0    0  502  501  0.00000000000E+00  0.00000000000E+00  0.11104350556E+04  0.11104350556E+04  0.00000000000E+00 0.  1.
         21   -1    0    0  501  502 -0.00000000000E+00 -0.00000000000E+00 -0.75886539317E+02  0.75886539317E+02  0.00000000000E+00 0.  1.
         25    1    1    2    0    0  0.12277505583E+02 -0.41585164995E+01  0.10744821447E+03  0.16534252084E+03  0.12500000000E+03 0.  0.
         25    1    1    2    0    0  0.17613102811E+02 -0.14209924030E+03  0.23626414563E+03  0.30322955330E+03  0.12500000000E+03 0.  0.
         25    1    1    2    0    0 -0.29890608395E+02  0.14625775680E+03  0.69083615619E+03  0.71774952079E+03  0.12500000000E+03 0.  0.
</event>
<event>
 5    0  0.5660959E-005  0.3924390E+03  0.7546771E-02  0.1046430E+00
         21   -1    0    0  502  501  0.00000000000E+00  0.00000000000E+00  0.65310827180E+03  0.65310827180E+03  0.00000000000E+00 0. -1.
         21   -1    0    0  501  502 -0.00000000000E+00 -0.00000000000E+00 -0.23580832004E+03  0.23580832004E+03  0.00000000000E+00 0. -1.
         25    1    1    2    0    0 -0.44424515456E+02  0.23155536838E+03  0.89851127559E+02  0.28158418159E+03  0.12500000000E+03 0.  0.
         25    1    1    2    0    0 -0.10252204207E+03  0.39024880204E+02  0.47885580599E+02  0.17306570779E+03  0.12500000000E+03 0.  0.
         25    1    1    2    0    0  0.14694655752E+03 -0.27058024858E+03  0.27956324360E+03  0.43426670246E+03  0.12500000000E+03 0.  0.
</event>
<event>
 5    0  0.5660959E-005  0.3512693E+03  0.7546771E-02  0.1062095E+00
         21   -1    0    0  502  501  0.00000000000E+00  0.00000000000E+00  0.14670780014E+03  0.14670780014E+03  0.00000000000E+00 0.  1.
         21   -1    0    0  501  502 -0.00000000000E+00 -0.00000000000E+00 -0.84106041329E+03  0.84106041329E+03  0.00000000000E+00 0.  1.
         25    1    1    2    0    0 -0.44301254265E+02  0.45520543573E+02 -0.52351640783E+02  0.14966768292E+03  0.12500000000E+03 0.  0.
         25    1    1    2    0    0  0.18741890129E+03 -0.16321162812E+03 -0.50325011529E+03  0.57502135495E+03  0.12500000000E+03 0.  0.
         25    1    1    2    0    0 -0.14311764702E+03  0.11769108455E+03 -0.13875085708E+03  0.26307917556E+03  0.12500000000E+03 0.  0.
</event>
<event>
 5    0  0.5660959E-005  0.3799253E+03  0.7546771E-02  0.1050961E+00
         21   -1    0    0  502  501  0.00000000000E+00  0.00000000000E+00  0.75349321536E+03  0.75349321536E+03  0.00000000000E+00 0. -1.
         21   -1    0    0  501  502 -0.00000000000E+00 -0.00000000000E+00 -0.19156536996E+03  0.19156536996E+03  0.00000000000E+00 0. -1.
         25    1    1    2    0    0  0.55361211349E+02  0.15116376759E+02 -0.96338169163E+02  0.16792680372E+03  0.12500000000E+03 0.  0.
         25    1    1    2    0    0  0.52287809070E+02 -0.44800533425E+01  0.46339958588E+02  0.14327064465E+03  0.12500000000E+03 0.  0.
         25    1    1    2    0    0 -0.10764902042E+03 -0.10636323416E+02  0.61192605597E+03  0.63386113696E+03  0.12500000000E+03 0.  0.
</event>
<event>
 5    0  0.5660959E-005  0.2695175E+03  0.7546771E-02  0.1101556E+00
         21   -1    0    0  502  501  0.00000000000E+00  0.00000000000E+00  0.35366925784E+03  0.35366925784E+03  0.00000000000E+00 0. -1.
         21   -1    0    0  501  502 -0.00000000000E+00 -0.00000000000E+00 -0.20538876073E+03  0.20538876073E+03  0.00000000000E+00 0. -1.
         25    1    1    2    0    0 -0.11339786077E+03 -0.73082196049E+02 -0.33652964017E+02  0.18696952744E+03  0.12500000000E+03 0.  0.
         25    1    1    2    0    0  0.12327242910E+03 -0.59242337577E+01  0.86362830312E+02  0.19574147946E+03  0.12500000000E+03 0.  0.
         25    1    1    2    0    0 -0.98745683339E+01  0.79006429807E+02  0.95570630811E+02  0.17634701167E+03  0.12500000000E+03 0.  0.
</event>
<event>
 5    0  0.5660959E-005  0.3629773E+03  0.7546771E-02  0.1057411E+00
         21   -1    0    0  502  501  0.00000000000E+00  0.00000000000E+00  0.12890709114E+03  0.12890709114E+03  0.00000000000E+00 0.  1.
         21   -1    0    0  501  502 -0.00000000000E+00 -0.00000000000E+00 -0.10220733727E+04  0.10220733727E+04  0.00000000000E+00 0.  1.
         25    1    1    2    0    0  0.23631027884E+02 -0.10837448448E+03 -0.18694699034E+03  0.25075412571E+03  0.12500000000E+03 0.  0.
         25    1    1    2    0    0 -0.72815130788E+02  0.19028655149E+03 -0.70336047544E+03  0.74286739958E+03  0.12500000000E+03 0.  0.
         25    1    1    2    0    0  0.49184102905E+02 -0.81912067015E+02 -0.28588157436E+01  0.15735893851E+03  0.12500000000E+03 0.  0.
</event>
<event>
 5    0  0.5660959E-005  0.2405883E+03  0.7546771E-02  0.1119402E+00
         21   -1    0    0  502  501  0.00000000000E+00  0.00000000000E+00  0.63116772131E+02  0.63116772131E+02  0.00000000000E+00 0. -1.
         21   -1    0    0  501  502 -0.00000000000E+00 -0.00000000000E+00 -0.91707341249E+03  0.91707341249E+03  0.00000000000E+00 0. -1.
         25    1    1    2    0    0 -0.76703933871E+02 -0.18439009021E+02 -0.18534178229E+03  0.23706553268E+03  0.12500000000E+03 0.  0.
         25    1    1    2    0    0 -0.32328978143E+02  0.12272693259E+02 -0.45192716379E+03  0.47016905810E+03  0.12500000000E+03 0.  0.
         25    1    1    2    0    0  0.10903291201E+03  0.61663157616E+01 -0.21668769428E+03  0.27295559384E+03  0.12500000000E+03 0.  0.
</event>
<event>
 5    0  0.5660959E-005  0.1953494E+03  0.7546771E-02  0.1153723E+00
         21   -1    0    0  502  501  0.00000000000E+00  0.00000000000E+00  0.63404499418E+03  0.63404499418E+03  0.00000000000E+00 0. -1.
         21   -1    0    0  501  502 -0.00000000000E+00 -0.00000000000E+00 -0.60187217041E+02  0.60187217041E+02  0.00000000000E+00 0. -1.
         25    1    1    2    0    0 -0.31903630428E+02  0.33200129424E+02  0.20712965214E+03  0.24626770601E+03  0.12500000000E+03 0.  0.
         25    1    1    2    0    0  0.33397745781E+02 -0.12357886337E+02  0.17100546970E+03  0.21479291758E+03  0.12500000000E+03 0.  0.
         25    1    1    2    0    0 -0.14941153524E+01 -0.20842243087E+02  0.19572265530E+03  0.23317158763E+03  0.12500000000E+03 0.  0.
</event>
<event>
 5    0  0.5660959E-005  0.2587588E+03  0.7546771E-02  0.1107891E+00
         21   -1    0    0  502  501  0.00000000000E+00  0.00000000000E+00  0.11601827663E+04  0.11601827663E+04  0.00000000000E+00 0. -1.
         21   -1    0    0  501  502 -0.00000000000E+00 -0.00000000000E+00 -0.57711712980E+02  0.57711712980E+02  0.00000000000E+00 0. -1.
         25    1    1    2    0    0 -0.28078282633E+01  0.10939915240E+03  0.33237714468E+03  0.37158528597E+03  0.12500000000E+03 0.  0.
         25    1    1    2    0    0  0.67956007526E+02 -0.90627347777E+02  0.60663071406E+03  0.62964844030E+03  0.12500000000E+03 0.  0.
         25    1    1    2    0    0 -0.65148179263E+02 -0.18771804623E+02  0.16346319454E+03  0.21666075297E+03  0.12500000000E+03 0.  0.
</event>
<event>
 5    0  0.5660959E-005  0.3080120E+03  0.7546771E-02  0.1081303E+00
         21   -1    0    0  502  501  0.00000000000E+00  0.00000000000E+00  0.99079609383E+03  0.99079609383E+03  0.00000000000E+00 0. -1.
         21   -1    0    0  501  502 -0.00000000000E+00 -0.00000000000E+00 -0.95752686757E+02  0.95752686757E+02  0.00000000000E+00 0. -1.
         25    1    1    2    0    0 -0.53333796440E+02  0.14478839860E+03  0.47757465101E+03  0.51721438640E+03  0.12500000000E+03 0.  0.
         25    1    1    2    0    0  0.10660626966E+03 -0.10927739492E+03  0.97892230375E+02  0.22025969795E+03  0.12500000000E+03 0.  0.
         25    1    1    2    0    0 -0.53272473218E+02 -0.35511003680E+02  0.31957652568E+03  0.34907469624E+03  0.12500000000E+03 0.  0.
</event>
<event>
 5    0  0.5660959E-005  0.3275309E+03  0.7546771E-02  0.1072235E+00
         21   -1    0    0  502  501  0.00000000000E+00  0.00000000000E+00  0.30055530619E+03  0.30055530619E+03  0.00000000000E+00 0. -1.
         21   -1    0    0  501  502 -0.00000000000E+00 -0.00000000000E+00 -0.35692759601E+03  0.35692759601E+03  0.00000000000E+00 0. -1.
         25    1    1    2    0    0 -0.34992033791E+02 -0.14422686210E+03 -0.73755470426E+02  0.20758299448E+03  0.12500000000E+03 0.  0.
         25    1    1    2    0    0  0.67653324118E+02  0.24272654834E+03  0.45762156449E+02  0.28497776141E+03  0.12500000000E+03 0.  0.
         25    1    1    2    0    0 -0.32661290327E+02 -0.98499686238E+02 -0.28378975837E+02  0.16492214631E+03  0.12500000000E+03 0.  0.
</event>
<event>
 5    0  0.5660959E-005  0.3989915E+03  0.7546771E-02  0.1044129E+00
         21   -1    0    0  502  501  0.00000000000E+00  0.00000000000E+00  0.17645030349E+03  0.17645030349E+03  0.00000000000E+00 0. -1.
         21   -1    0    0  501  502 -0.00000000000E+00 -0.00000000000E+00 -0.90220405966E+03  0.90220405966E+03  0.00000000000E+00 0. -1.
         25    1    1    2    0    0  0.14021324509E+03 -0.20827458546E+03 -0.12561429841E+03  0.30731418616E+03  0.12500000000E+03 0.  0.
         25    1    1    2    0    0 -0.12806685661E+03  0.24045480581E+03 -0.22605539333E+03  0.37542732219E+03  0.12500000000E+03 0.  0.
         25    1    1    2    0    0 -0.12146388475E+02 -0.32180220342E+02 -0.37408406444E+03  0.39591285481E+03  0.12500000000E+03 0.  0.
</event>
<event>
 5    0  0.5660959E-005  0.2871477E+03  0.7546771E-02  0.1091848E+00
         21   -1    0    0  502  501  0.00000000000E+00  0.00000000000E+00  0.36805715040E+02  0.36805715040E+02  0.00000000000E+00 0.  1.
         21   -1    0    0  501  502 -0.00000000000E+00 -0.00000000000E+00 -0.22402447473E+04  0.22402447473E+04  0.00000000000E+00 0.  1.
         25    1    1    2    0    0  0.13246882006E+03  0.10609359119E+03 -0.12454133248E+04  0.12631243755E+04  0.12500000000E+03 0.  0.
         25    1    1    2    0    0  0.82666230544E+01 -0.44397414750E+02 -0.34632994028E+03  0.37095672932E+03  0.12500000000E+03 0.  0.
         25    1    1    2    0    0 -0.14073544311E+03 -0.61696176443E+02 -0.61169576724E+03  0.64296935759E+03  0.12500000000E+03 0.  0.
</event>
<event>
 5    0  0.6518594E-005  0.2755192E+03  0.7546771E-02  0.1098162E+00
         21   -1    0    0  502  501  0.00000000000E+00  0.00000000000E+00  0.65730493962E+03  0.65730493962E+03  0.00000000000E+00 0.  1.
         21   -1    0    0  501  502 -0.00000000000E+00 -0.00000000000E+00 -0.11548799859E+03  0.11548799859E+03  0.00000000000E+00 0.  1.
         25    1    1    2    0    0 -0.10490361192E+03  0.61300506868E+02  0.45433325656E+02  0.18014357334E+03  0.12500000000E+03 0.  0.
         25    1    1    2    0    0  0.11769798083E+03  0.21656454393E+02  0.27487794823E+03  0.32481487517E+03  0.12500000000E+03 0.  0.
         25    1    1    2    0    0 -0.12794368915E+02 -0.82956961262E+02  0.22150566714E+03  0.26783448970E+03  0.12500000000E+03 0.  0.
</event>
<event>
 5    0  0.5660959E-005  0.4485957E+03  0.7546771E-02  0.1028142E+00
         21   -1    0    0  502  501  0.00000000000E+00  0.00000000000E+00  0.70019246103E+02  0.70019246103E+02  0.00000000000E+00 0.  1.
         21   -1    0    0  501  502 -0.00000000000E+00 -0.00000000000E+00 -0.28740403249E+04  0.28740403249E+04  0.00000000000E+00 0.  1.
         25    1    1    2    0    0 -0.17259335523E+03 -0.13999890973E+03 -0.14390164853E+04  0.14614313552E+04  0.12500000000E+03 0.  0.
         25    1    1    2    0    0  0.21546350400E+03  0.28748875341E+03 -0.87391764440E+03  0.95311665293E+03  0.12500000000E+03 0.  0.
         25    1    1    2    0    0 -0.42870148766E+02 -0.14748984369E+03 -0.49108694908E+03  0.52951156286E+03  0.12500000000E+03 0.  0.
</event>
<event>
 5    0  0.5660959E-005  0.3544168E+03  0.7546771E-02  0.1060817E+00
         21   -1    0    0  502  501  0.00000000000E+00  0.00000000000E+00  0.29196723130E+04  0.29196723130E+04  0.00000000000E+00 0.  1.
         21   -1    0    0  501  502 -0.00000000000E+00 -0.00000000000E+00 -0.43022395351E+02  0.43022395351E+02  0.00000000000E+00 0.  1.
         25    1    1    2    0    0 -0.21651430279E+03  0.12793390229E+03  0.13154560651E+04  0.13451004371E+04  0.12500000000E+03 0.  0.
         25    1    1    2    0    0  0.11985022843E+02  0.38439447005E+02  0.51376126609E+03  0.53027999245E+03  0.12500000000E+03 0.  0.
         25    1    1    2    0    0  0.20452927995E+03 -0.16637334929E+03  0.10474325864E+04  0.10873142788E+04  0.12500000000E+03 0.  0.
</event>
<event>
 5    0  0.5660959E-005  0.6031195E+03  0.7546771E-02  0.9898955E-01
         21   -1    0    0  502  501  0.00000000000E+00  0.00000000000E+00  0.93925613155E+03  0.93925613155E+03  0.00000000000E+00 0. -1.
         21   -1    0    0  501  502 -0.00000000000E+00 -0.00000000000E+00 -0.38727790691E+03  0.38727790691E+03  0.00000000000E+00 0. -1.
         25    1    1    2    0    0 -0.14434249680E+03  0.43727830936E+02 -0.34539426695E+01  0.19591786366E+03  0.12500000000E+03 0.  0.
         25    1    1    2    0    0 -0.66320795492E+02  0.78926290059E+02 -0.23986344417E+03  0.28946032375E+03  0.12500000000E+03 0.  0.
         25    1    1    2    0    0  0.21066329230E+03 -0.12265412100E+03  0.79529561147E+03  0.84115585105E+03  0.12500000000E+03 0.  0.
</event>
<event>
 5    0  0.6297840E-005  0.3352652E+03  0.7546771E-02  0.1068831E+00
         21   -1    0    0  502  501  0.00000000000E+00  0.00000000000E+00  0.13428624008E+03  0.13428624008E+03  0.00000000000E+00 0. -1.
         21   -1    0    0  501  502 -0.00000000000E+00 -0.00000000000E+00 -0.83703869181E+03  0.83703869181E+03  0.00000000000E+00 0. -1.
         25    1    1    2    0    0 -0.77161491987E+02 -0.12086550653E+03 -0.18915838602E+02  0.19116792478E+03  0.12500000000E+03 0.  0.
         25    1    1    2    0    0 -0.61049177662E+02  0.32942780665E+02 -0.43042920873E+03  0.45354882055E+03  0.12500000000E+03 0.  0.
         25    1    1    2    0    0  0.13821066965E+03  0.87922725865E+02 -0.25340740439E+03  0.32660818656E+03  0.12500000000E+03 0.  0.
</event>
<event>
 5    0  0.5660959E-005  0.4302612E+03  0.7546771E-02  0.1033777E+00
         21   -1    0    0  502  501  0.00000000000E+00  0.00000000000E+00  0.94252192983E+03  0.94252192983E+03  0.00000000000E+00 0. -1.
         21   -1    0    0  501  502 -0.00000000000E+00 -0.00000000000E+00 -0.19641420823E+03  0.19641420823E+03  0.00000000000E+00 0. -1.
         25    1    1    2    0    0  0.10852669256E+03 -0.57831134418E+02  0.20377123602E+03  0.26883117329E+03  0.12500000000E+03 0.  0.
         25    1    1    2    0    0  0.18698477886E+03  0.15197013978E+02 -0.14639679232E+02  0.22590612423E+03  0.12500000000E+03 0.  0.
         25    1    1    2    0    0 -0.29551147142E+03  0.42634120440E+02  0.55697616481E+03  0.64419884053E+03  0.12500000000E+03 0.  0.
</event>
<event>
 5    0  0.5660959E-005  0.2565550E+03  0.7546771E-02  0.1109231E+00
         21   -1    0    0  502  501  0.00000000000E+00  0.00000000000E+00  0.61402125639E+02  0.61402125639E+02  0.00000000000E+00 0. -1.
         21   -1    0    0  501  502 -0.00000000000E+00 -0.00000000000E+00 -0.10719575852E+04  0.10719575852E+04  0.00000000000E+00 0. -1.
         25    1    1    2    0    0  0.32854948031E+02  0.96507021941E+02 -0.33571771581E+03  0.37245729634E+03  0.12500000000E+03 0.  0.
         25    1    1    2    0    0 -0.59860765730E+02 -0.13371225263E+03 -0.24936899325E+03  0.31507486820E+03  0.12500000000E+03 0.  0.
         25    1    1    2    0    0  0.27005817700E+02  0.37205230691E+02 -0.42546875055E+03  0.44582754634E+03  0.12500000000E+03 0.  0.
</event>
<event>
 5    0  0.5660959E-005  0.2247469E+03  0.7546771E-02  0.1130393E+00
         21   -1    0    0  502  501  0.00000000000E+00  0.00000000000E+00  0.88344865329E+02  0.88344865329E+02  0.00000000000E+00 0. -1.
         21   -1    0    0  501  502 -0.00000000000E+00 -0.00000000000E+00 -0.57175009350E+03  0.57175009350E+03  0.00000000000E+00 0. -1.
         25    1    1    2    0    0 -0.65326583440E+02 -0.22812824827E+02 -0.97631665832E+02  0.17304603334E+03  0.12500000000E+03 0.  0.
         25    1    1    2    0    0  0.70663057295E+02  0.72707795657E+02 -0.23548564756E+03  0.28523355592E+03  0.12500000000E+03 0.  0.
         25    1    1    2    0    0 -0.53364738554E+01 -0.49894970830E+02 -0.15028791478E+03  0.20181536958E+03  0.12500000000E+03 0.  0.
</event>
<event>
 5    0  0.5660959E-005  0.2823812E+03  0.7546771E-02  0.1094395E+00
         21   -1    0    0  502  501  0.00000000000E+00  0.00000000000E+00  0.28149260747E+03  0.28149260747E+03  0.00000000000E+00 0. -1.
         21   -1    0    0  501  502 -0.00000000000E+00 -0.00000000000E+00 -0.28327250502E+03  0.28327250502E+03  0.00000000000E+00 0. -1.
         25    1    1    2    0    0  0.59131964028E+02  0.13956748846E+03 -0.59117401705E+02  0.20517197711E+03  0.12500000000E+03 0.  0.
         25    1    1    2    0    0 -0.53058499799E+02  0.34898616531E+02  0.19034944384E+02  0.14149362864E+03  0.12500000000E+03 0.  0.
         25    1    1    2    0    0 -0.60734642298E+01 -0.17446610500E+03  0.38302559773E+02  0.21809950675E+03  0.12500000000E+03 0.  0.
</event>
<event>
 5    0  0.5660959E-005  0.3640005E+03  0.7546771E-02  0.1057011E+00
         21   -1    0    0  502  501  0.00000000000E+00  0.00000000000E+00  0.61495556929E+03  0.61495556929E+03  0.00000000000E+00 0. -1.
         21   -1    0    0  501  502 -0.00000000000E+00 -0.00000000000E+00 -0.21545684804E+03  0.21545684804E+03  0.00000000000E+00 0. -1.
         25    1    1    2    0    0 -0.21339465469E+03  0.14603585141E+03  0.26133133403E+03  0.38830762894E+03  0.12500000000E+03 0.  0.
         25    1    1    2    0    0  0.33179063651E+02 -0.78756744496E+02  0.14900236814E+03  0.21243865180E+03  0.12500000000E+03 0.  0.
         25    1    1    2    0    0  0.18021559104E+03 -0.67279106918E+02 -0.10834980933E+02  0.22966613658E+03  0.12500000000E+03 0.  0.
</event>
<event>
 5    0  0.5660959E-005  0.2652607E+03  0.7546771E-02  0.1104023E+00
         21   -1    0    0  502  501  0.00000000000E+00  0.00000000000E+00  0.77023027809E+03  0.77023027809E+03  0.00000000000E+00 0.  1.
         21   -1    0    0  501  502 -0.00000000000E+00 -0.00000000000E+00 -0.91353502032E+02  0.91353502032E+02  0.00000000000E+00 0.  1.
         25    1    1    2    0    0 -0.10034257863E+03 -0.10169592632E+03  0.15013456704E+03  0.24202496305E+03  0.12500000000E+03 0.  0.
         25    1    1    2    0    0  0.51750092627E+02  0.43384634441E+02  0.40085055141E+03  0.42528397943E+03  0.12500000000E+03 0.  0.
         25    1    1    2    0    0  0.48592486008E+02  0.58311291881E+02  0.12789165761E+03  0.19427483765E+03  0.12500000000E+03 0.  0.
</event>
<event>
 5    0  0.5660959E-005  0.4974848E+03  0.7546771E-02  0.1014437E+00
         21   -1    0    0  502  501  0.00000000000E+00  0.00000000000E+00  0.75525477937E+03  0.75525477937E+03  0.00000000000E+00 0.  1.
         21   -1    0    0  501  502 -0.00000000000E+00 -0.00000000000E+00 -0.32769229255E+03  0.32769229255E+03  0.00000000000E+00 0.  1.
         25    1    1    2    0    0 -0.40497865632E+03 -0.19585332771E+02  0.22014851912E+03  0.47799756046E+03  0.12500000000E+03 0.  0.
         25    1    1    2    0    0  0.63489591630E+02  0.10285669611E+03  0.14562193796E+03  0.22680647476E+03  0.12500000000E+03 0.  0.
         25    1    1    2    0    0  0.34148906469E+03 -0.83271363341E+02  0.61792029742E+02  0.37814303669E+03  0.12500000000E+03 0.  0.
</event>
<event>
 5    0  0.5660959E-005  0.3131960E+03  0.7546771E-02  0.1078824E+00
         21   -1    0    0  502  501  0.00000000000E+00  0.00000000000E+00  0.91003354243E+02  0.91003354243E+02  0.00000000000E+00 0.  1.
         21   -1    0    0  501  502 -0.00000000000E+00 -0.00000000000E+00 -0.10778914144E+04  0.10778914144E+04  0.00000000000E+00 0.  1.
         25    1    1    2    0    0  0.38853430103E+02 -0.41748926039E+02 -0.19651997300E+02  0.13879395828E+03  0.12500000000E+03 0.  0.
         25    1    1    2    0    0 -0.60576979438E+02 -0.28160209984E+02 -0.78305816175E+03  0.79578115870E+03  0.12500000000E+03 0.  0.
         25    1    1    2    0    0  0.21723549335E+02  0.69909136023E+02 -0.18417790107E+03  0.23431965162E+03  0.12500000000E+03 0.  0.
</event>
<event>
 5    0  0.5660959E-005  0.2796341E+03  0.7546771E-02  0.1095889E+00
         21   -1    0    0  502  501  0.00000000000E+00  0.00000000000E+00  0.17035558518E+04  0.17035558518E+04  0.00000000000E+00 0. -1.
         21   -1    0    0  501  502 -0.00000000000E+00 -0.00000000000E+00 -0.45901196547E+02  0.45901196547E+02  0.00000000000E+00 0. -1.
         25    1    1    2    0    0 -0.70854121092E+01 -0.20384527328E+02  0.17492131071E+03  0.21607451715E+03  0.12500000000E+03 0.  0.
         25    1    1    2    0    0  0.12007935623E+03  0.90563137118E+02  0.57113404308E+03  0.60368851965E+03  0.12500000000E+03 0.  0.
         25    1    1    2    0    0 -0.11299394412E+03 -0.70178609790E+02  0.91159930143E+03  0.92969401151E+03  0.12500000000E+03 0.  0.
</event>
<event>
 5    0  0.5660959E-005  0.4012484E+03  0.7546771E-02  0.1043348E+00
         21   -1    0    0  502  501  0.00000000000E+00  0.00000000000E+00  0.22367194146E+03  0.22367194146E+03  0.00000000000E+00 0.  1.
         21   -1    0    0  501  502 -0.00000000000E+00 -0.00000000000E+00 -0.71980529991E+03  0.71980529991E+03  0.00000000000E+00 0.  1.
         25    1    1    2    0    0  0.22922518616E+02 -0.16135201896E+03 -0.49315633680E+03  0.53421726705E+03  0.12500000000E+03 0.  0.
         25    1    1    2    0    0  0.58252859729E+02  0.17530120191E+03  0.81384954987E+02  0.23742876396E+03  0.12500000000E+03 0.  0.
         25    1    1    2    0    0 -0.81175378344E+02 -0.13949182946E+02 -0.84361976635E+02  0.17183121037E+03  0.12500000000E+03 0.  0.
</event>
<event>
 5    0  0.6130168E-005  0.2668163E+03  0.7546771E-02  0.1103116E+00
         21   -1    0    0  502  501  0.00000000000E+00  0.00000000000E+00  0.27513767955E+03  0.27513767955E+03  0.00000000000E+00 0. -1.
         21   -1    0    0  501  502 -0.00000000000E+00 -0.00000000000E+00 -0.25874650945E+03  0.25874650945E+03  0.00000000000E+00 0. -1.
         25    1    1    2    0    0  0.71912150435E+02 -0.11447534735E+03 -0.12444664159E+02  0.18454222334E+03  0.12500000000E+03 0.  0.
         25    1    1    2    0    0 -0.12523171949E+03  0.11030823365E+03 -0.73838147075E+01  0.20863942747E+03  0.12500000000E+03 0.  0.
         25    1    1    2    0    0  0.53319569059E+02  0.41671137005E+01  0.36219648970E+02  0.14070253819E+03  0.12500000000E+03 0.  0.
</event>
<event>
 5    0  0.5660959E-005  0.1219740E+04  0.7546771E-02  0.9095752E-01
         21   -1    0    0  502  501  0.00000000000E+00  0.00000000000E+00  0.12024808983E+04  0.12024808983E+04  0.00000000000E+00 0.  1.
         21   -1    0    0  501  502 -0.00000000000E+00 -0.00000000000E+00 -0.12372464591E+04  0.12372464591E+04  0.00000000000E+00 0.  1.
         25    1    1    2    0    0  0.58756131344E+03 -0.54196118763E+01 -0.77652031526E+03  0.98176701374E+03  0.12500000000E+03 0.  0.
         25    1    1    2    0    0 -0.41124978697E+03  0.96987831982E+02 -0.20252262868E+03  0.48494684447E+03  0.12500000000E+03 0.  0.
         25    1    1    2    0    0 -0.17631152648E+03 -0.91568220106E+02  0.94427738312E+03  0.97301349918E+03  0.12500000000E+03 0.  0.
</event>
<event>
 5    0  0.5660959E-005  0.3866664E+03  0.7546771E-02  0.1048497E+00
         21   -1    0    0  502  501  0.00000000000E+00  0.00000000000E+00  0.73499650769E+03  0.73499650769E+03  0.00000000000E+00 0.  1.
         21   -1    0    0  501  502 -0.00000000000E+00 -0.00000000000E+00 -0.20341711342E+03  0.20341711342E+03  0.00000000000E+00 0.  1.
         25    1    1    2    0    0  0.14498018744E+03  0.89482351297E+02  0.48518847177E+01  0.21136434593E+03  0.12500000000E+03 0.  0.
         25    1    1    2    0    0 -0.11362017801E+03  0.15209650649E+03  0.24390946513E+03  0.33340623767E+03  0.12500000000E+03 0.  0.
         25    1    1    2    0    0 -0.31360009431E+02 -0.24157885779E+03  0.28281804443E+03  0.39364303751E+03  0.12500000000E+03 0.  0.
</event>
<event>
 5    0  0.5701984E-005  0.2734791E+03  0.7546771E-02  0.1099305E+00
         21   -1    0    0  502  501  0.00000000000E+00  0.00000000000E+00  0.49035351181E+03  0.49035351181E+03  0.00000000000E+00 0. -1.
         21   -1    0    0  501  502 -0.00000000000E+00 -0.00000000000E+00 -0.15252430191E+03  0.15252430191E+03  0.00000000000E+00 0. -1.
         25    1    1    2    0    0 -0.36818128707E+02 -0.59728064256E+02  0.26369359955E+03  0.30013718647E+03  0.12500000000E+03 0.  0.
         25    1    1    2    0    0  0.92925871201E+02  0.96131573552E+02  0.82409963742E+02  0.20073091216E+03  0.12500000000E+03 0.  0.
         25    1    1    2    0    0 -0.56107742494E+02 -0.36403509297E+02 -0.82743533854E+01  0.14200971509E+03  0.12500000000E+03 0.  0.
</event>
<event>
 5    0  0.5660959E-005  0.2447859E+03  0.7546771E-02  0.1116645E+00
         21   -1    0    0  502  501  0.00000000000E+00  0.00000000000E+00  0.12559910882E+03  0.12559910882E+03  0.00000000000E+00 0. -1.
         21   -1    0    0  501  502 -0.00000000000E+00 -0.00000000000E+00 -0.47707438160E+03  0.47707438160E+03  0.00000000000E+00 0. -1.
         25    1    1    2    0    0 -0.56106725384E+02  0.88643225607E+02 -0.21189320888E+03  0.26744965517E+03  0.12500000000E+03 0.  0.
         25    1    1    2    0    0  0.26677910567E+02 -0.10228160549E+03 -0.12355109048E+03  0.20509292940E+03  0.12500000000E+03 0.  0.
         25    1    1    2    0    0  0.29428814817E+02  0.13638379880E+02 -0.16030973426E+02  0.13013090585E+03  0.12500000000E+03 0.  0.
</event>
<event>
 5    0  0.5660959E-005  0.3305153E+03  0.7546771E-02  0.1070909E+00
         21   -1    0    0  502  501  0.00000000000E+00  0.00000000000E+00  0.17843025137E+03  0.17843025137E+03  0.00000000000E+00 0.  1.
         21   -1    0    0  501  502 -0.00000000000E+00 -0.00000000000E+00 -0.61223003875E+03  0.61223003875E+03  0.00000000000E+00 0.  1.
         25    1    1    2    0    0  0.77931951850E+02  0.51893732267E+02 -0.13022371661E+02  0.15671927364E+03  0.12500000000E+03 0.  0.
         25    1    1    2    0    0 -0.21497783759E+02  0.11672345281E+03 -0.14251447413E+02  0.17295844269E+03  0.12500000000E+03 0.  0.
         25    1    1    2    0    0 -0.56434168092E+02 -0.16861718508E+03 -0.40652596830E+03  0.46098257379E+03  0.12500000000E+03 0.  0.
</event>
<event>
 5    0  0.5660959E-005  0.3952684E+03  0.7546771E-02  0.1045430E+00
         21   -1    0    0  502  501  0.00000000000E+00  0.00000000000E+00  0.50286534417E+02  0.50286534417E+02  0.00000000000E+00 0.  1.
         21   -1    0    0  501  502 -0.00000000000E+00 -0.00000000000E+00 -0.31069365666E+04  0.31069365666E+04  0.00000000000E+00 0.  1.
         25    1    1    2    0    0 -0.41821114407E+02  0.70205563385E+02 -0.14674735239E+03  0.20937433504E+03  0.12500000000E+03 0.  0.
         25    1    1    2    0    0  0.12464092475E+02 -0.54555424495E+02 -0.26843212768E+04  0.26878127474E+04  0.12500000000E+03 0.  0.
         25    1    1    2    0    0  0.29357021933E+02 -0.15650138889E+02 -0.22558140296E+03  0.26003601855E+03  0.12500000000E+03 0.  0.
</event>
<event>
 5    0  0.5660959E-005  0.2933327E+03  0.7546771E-02  0.1088622E+00
         21   -1    0    0  502  501  0.00000000000E+00  0.00000000000E+00  0.12551665509E+04  0.12551665509E+04  0.00000000000E+00 0. -1.
         21   -1    0    0  501  502 -0.00000000000E+00 -0.00000000000E+00 -0.68551907133E+02  0.68551907133E+02  0.00000000000E+00 0. -1.
         25    1    1    2    0    0  0.16077135528E+02 -0.18686526253E+01  0.58396197178E+03  0.59740986821E+03  0.12500000000E+03 0.  0.
         25    1    1    2    0    0  0.13623657895E+03  0.46290192599E+02  0.20263995561E+03  0.27819262928E+03  0.12500000000E+03 0.  0.
         25    1    1    2    0    0 -0.15231371448E+03 -0.44421539973E+02  0.40001271636E+03  0.44811596053E+03  0.12500000000E+03 0.  0.
</event>
<event>
 5    0  0.5660959E-005  0.3180987E+03  0.7546771E-02  0.1076528E+00
         21   -1    0    0  502  501  0.00000000000E+00  0.00000000000E+00  0.11600943999E+04  0.11600943999E+04  0.00000000000E+00 0. -1.
         21   -1    0    0  501  502 -0.00000000000E+00 -0.00000000000E+00 -0.87222912510E+02  0.87222912510E+02  0.00000000000E+00 0. -1.
         25    1    1    2    0    0  0.10444173840E+03  0.88189653091E+00  0.31742260643E+03  0.35677859456E+03  0.12500000000E+03 0.  0.
         25    1    1    2    0    0  0.82245059807E+02  0.58669471141E+02  0.86839046763E+02  0.18268107934E+03  0.12500000000E+03 0.  0.
         25    1    1    2    0    0 -0.18668679820E+03 -0.59551367671E+02  0.66860983418E+03  0.70785763850E+03  0.12500000000E+03 0.  0.
</event>
<event>
 5    0  0.5660959E-005  0.5702738E+03  0.7546771E-02  0.9969073E-01
         21   -1    0    0  502  501  0.00000000000E+00  0.00000000000E+00  0.57085727343E+03  0.57085727343E+03  0.00000000000E+00 0.  1.
         21   -1    0    0  501  502 -0.00000000000E+00 -0.00000000000E+00 -0.56969096402E+03  0.56969096402E+03  0.00000000000E+00 0.  1.
         25    1    1    2    0    0 -0.40428594671E+03  0.10182349245E+03 -0.23550881369E+03  0.49487832004E+03  0.12500000000E+03 0.  0.
         25    1    1    2    0    0  0.24419854986E+03 -0.21699758566E+03  0.64778324715E+02  0.35572758579E+03  0.12500000000E+03 0.  0.
         25    1    1    2    0    0  0.16008739685E+03  0.11517409321E+03  0.17189679838E+03  0.28994233163E+03  0.12500000000E+03 0.  0.
</event>
<event>
 5    0  0.5660959E-005  0.2513919E+03  0.7546771E-02  0.1112428E+00
         21   -1    0    0  502  501  0.00000000000E+00  0.00000000000E+00  0.82889267871E+02  0.82889267871E+02  0.00000000000E+00 0.  1.
         21   -1    0    0  501  502 -0.00000000000E+00 -0.00000000000E+00 -0.76243729937E+03  0.76243729937E+03  0.00000000000E+00 0.  1.
         25    1    1    2    0    0 -0.80511920471E+01 -0.82721575818E+02 -0.36693307712E+03  0.39644995130E+03  0.12500000000E+03 0.  0.
         25    1    1    2    0    0  0.56937486814E+02 -0.36428209933E+02 -0.12529788124E+03  0.18945567008E+03  0.12500000000E+03 0.  0.
         25    1    1    2    0    0 -0.48886294766E+02  0.11914978575E+03 -0.18731707313E+03  0.25942094586E+03  0.12500000000E+03 0.  0.
</event>
<event>
 5    0  0.6881473E-005  0.3701667E+03  0.7546771E-02  0.1054629E+00
         21   -1    0    0  502  501  0.00000000000E+00  0.00000000000E+00  0.26470616630E+03  0.26470616630E+03  0.00000000000E+00 0.  1.
         21   -1    0    0  501  502 -0.00000000000E+00 -0.00000000000E+00 -0.51764339786E+03  0.51764339786E+03  0.00000000000E+00 0.  1.
         25    1    1    2    0    0  0.66697685652E+02 -0.25727886219E+02  0.10677725189E+03  0.17926764048E+03  0.12500000000E+03 0.  0.
         25    1    1    2    0    0  0.72543592172E+02  0.53071027911E+02 -0.38277270703E+03  0.41257611663E+03  0.12500000000E+03 0.  0.
         25    1    1    2    0    0 -0.13924127782E+03 -0.27343141692E+02  0.23058223580E+02  0.19050580706E+03  0.12500000000E+03 0.  0.
</event>
<event>
 5    0  0.5660959E-005  0.3581920E+03  0.7546771E-02  0.1059302E+00
         21   -1    0    0  502  501  0.00000000000E+00  0.00000000000E+00  0.73738316541E+03  0.73738316541E+03  0.00000000000E+00 0. -1.
         21   -1    0    0  501  502 -0.00000000000E+00 -0.00000000000E+00 -0.17399572525E+03  0.17399572525E+03  0.00000000000E+00 0. -1.
         25    1    1    2    0    0  0.46785814030E+02  0.53535109713E+02 -0.89544246312E+02  0.16940511331E+03  0.12500000000E+03 0.  0.
         25    1    1    2    0    0  0.72085321636E+02 -0.19739579512E+02  0.45261733484E+03  0.47547176193E+03  0.12500000000E+03 0.  0.
         25    1    1    2    0    0 -0.11887113567E+03 -0.33795530201E+02  0.20031435163E+03  0.26650201543E+03  0.12500000000E+03 0.  0.
</event>
<event>
 5    0  0.7100756E-005  0.3748180E+03  0.7546771E-02  0.1052866E+00
         21   -1    0    0  502  501  0.00000000000E+00  0.00000000000E+00  0.23407088454E+03  0.23407088454E+03  0.00000000000E+00 0. -1.
         21   -1    0    0  501  502 -0.00000000000E+00 -0.00000000000E+00 -0.60019637996E+03  0.60019637996E+03  0.00000000000E+00 0. -1.
         25    1    1    2    0    0  0.18694428195E+03 -0.15871868836E+03 -0.44759964169E+02  0.27886957701E+03  0.12500000000E+03 0.  0.
         25    1    1    2    0    0 -0.17578827811E+03  0.21222691000E+02 -0.43699829523E+02  0.22110313529E+03  0.12500000000E+03 0.  0.
         25    1    1    2    0    0 -0.11156003845E+02  0.13749599736E+03 -0.27766570174E+03  0.33429455220E+03  0.12500000000E+03 0.  0.
</event>
<event>
 5    0  0.5660959E-005  0.3517968E+03  0.7546771E-02  0.1061880E+00
         21   -1    0    0  502  501  0.00000000000E+00  0.00000000000E+00  0.27148639063E+03  0.27148639063E+03  0.00000000000E+00 0. -1.
         21   -1    0    0  501  502 -0.00000000000E+00 -0.00000000000E+00 -0.45586438865E+03  0.45586438865E+03  0.00000000000E+00 0. -1.
         25    1    1    2    0    0 -0.43997589365E+02 -0.16554396062E+01 -0.79478528299E+02  0.15453273055E+03  0.12500000000E+03 0.  0.
         25    1    1    2    0    0  0.24426611574E+03  0.55660185085E+02  0.51296533461E+02  0.28464069605E+03  0.12500000000E+03 0.  0.
         25    1    1    2    0    0 -0.20026852637E+03 -0.54004745479E+02 -0.15619600318E+03  0.28817735268E+03  0.12500000000E+03 0.  0.
</event>
<event>
 5    0  0.5660959E-005  0.3104928E+03  0.7546771E-02  0.1080110E+00
         21   -1    0    0  502  501  0.00000000000E+00  0.00000000000E+00  0.85049030600E+03  0.85049030600E+03  0.00000000000E+00 0. -1.
         21   -1    0    0  501  502 -0.00000000000E+00 -0.00000000000E+00 -0.11335318876E+03  0.11335318876E+03  0.00000000000E+00 0. -1.
         25    1    1    2    0    0  0.78675311472E+02  0.47766142020E+00  0.35873788943E+01  0.14774268876E+03  0.12500000000E+03 0.  0.
         25    1    1    2    0    0  0.54971905666E+02 -0.78714379947E+02  0.29364916159E+03  0.33327570287E+03  0.12500000000E+03 0.  0.
         25    1    1    2    0    0 -0.13364721714E+03  0.78236718527E+02  0.43990057676E+03  0.48282510313E+03  0.12500000000E+03 0.  0.
</event>
<event>
 5    0  0.5660959E-005  0.2149072E+03  0.7546771E-02  0.1137738E+00
         21   -1    0    0  502  501  0.00000000000E+00  0.00000000000E+00  0.92144341806E+02  0.92144341806E+02  0.00000000000E+00 0.  1.
         21   -1    0    0  501  502 -0.00000000000E+00 -0.00000000000E+00 -0.50122561994E+03  0.50122561994E+03  0.00000000000E+00 0.  1.
         25    1    1    2    0    0  0.95846973678E+01 -0.80644508934E+02 -0.21408705475E+03  0.26087098393E+03  0.12500000000E+03 0.  0.
         25    1    1    2    0    0 -0.26799213635E+01  0.14439299745E+02 -0.11120305493E+03  0.16794878618E+03  0.12500000000E+03 0.  0.
         25    1    1    2    0    0 -0.69047760043E+01  0.66205209189E+02 -0.83791168459E+02  0.16455019164E+03  0.12500000000E+03 0.  0.
</event>
<event>
 5    0  0.5660959E-005  0.2451814E+03  0.7546771E-02  0.1116389E+00
         21   -1    0    0  502  501  0.00000000000E+00  0.00000000000E+00  0.19502461019E+04  0.19502461019E+04  0.00000000000E+00 0.  1.
         21   -1    0    0  501  502 -0.00000000000E+00 -0.00000000000E+00 -0.30823751586E+02  0.30823751586E+02  0.00000000000E+00 0.  1.
         25    1    1    2    0    0 -0.55920075074E+02  0.49584017651E+02  0.56823174244E+03  0.58659862148E+03  0.12500000000E+03 0.  0.
         25    1    1    2    0    0 -0.13482023935E+02 -0.71138660241E+00  0.22128751779E+03  0.25451018952E+03  0.12500000000E+03 0.  0.
         25    1    1    2    0    0  0.69402099009E+02 -0.48872631049E+02  0.11299030901E+04  0.11399610425E+04  0.12500000000E+03 0.  0.
</event>
<event>
 5    0  0.5660959E-005  0.3848706E+03  0.7546771E-02  0.1049148E+00
         21   -1    0    0  502  501  0.00000000000E+00  0.00000000000E+00  0.37151371342E+04  0.37151371342E+04  0.00000000000E+00 0. -1.
         21   -1    0    0  501  502 -0.00000000000E+00 -0.00000000000E+00 -0.39870775275E+02  0.39870775275E+02  0.00000000000E+00 0. -1.
         25    1    1    2    0    0 -0.19271472510E+03  0.21691468504E+03  0.15356535696E+04  0.15678162621E+04  0.12500000000E+03 0.  0.
         25    1    1    2    0    0 -0.25181331898E+02 -0.13701499394E+03  0.10134522502E+04  0.10305909332E+04  0.12500000000E+03 0.  0.
         25    1    1    2    0    0  0.21789605700E+03 -0.79899691101E+02  0.11261605390E+04  0.11566007141E+04  0.12500000000E+03 0.  0.
</event>
<event>
 5    0  0.5660959E-005  0.4824030E+03  0.7546771E-02  0.1018477E+00
         21   -1    0    0  502  501  0.00000000000E+00  0.00000000000E+00  0.30259458502E+03  0.30259458502E+03  0.00000000000E+00 0.  1.
         21   -1    0    0  501  502 -0.00000000000E+00 -0.00000000000E+00 -0.76905753884E+03  0.76905753884E+03  0.00000000000E+00 0.  1.
         25    1    1    2    0    0  0.24042040109E+03 -0.32444364014E+02 -0.22796473503E+03  0.35559460968E+03  0.12500000000E+03 0.  0.
         25    1    1    2    0    0 -0.26335581109E+03 -0.21966536381E+03 -0.32285338329E+02  0.36643757772E+03  0.12500000000E+03 0.  0.
         25    1    1    2    0    0  0.22935409999E+02  0.25210972783E+03 -0.20621288047E+03  0.34961993646E+03  0.12500000000E+03 0.  0.
</event>
<event>
 5    0  0.5660959E-005  0.5071216E+03  0.7546771E-02  0.1011937E+00
         21   -1    0    0  502  501  0.00000000000E+00  0.00000000000E+00  0.16793468035E+04  0.16793468035E+04  0.00000000000E+00 0.  1.
         21   -1    0    0  501  502 -0.00000000000E+00 -0.00000000000E+00 -0.15313831173E+03  0.15313831173E+03  0.00000000000E+00 0.  1.
         25    1    1    2    0    0  0.31898172926E+03  0.12085810533E+02  0.77852306873E+03  0.85065773315E+03  0.12500000000E+03 0.  0.
         25    1    1    2    0    0 -0.37413280119E+03 -0.10031107867E+03  0.70438913420E+03  0.81352733071E+03  0.12500000000E+03 0.  0.
         25    1    1    2    0    0  0.55151071924E+02  0.88225268132E+02  0.43296288861E+02  0.16830005140E+03  0.12500000000E+03 0.  0.
</event>
<event>
 5    0  0.6659801E-005  0.3198928E+03  0.7546771E-02  0.1075699E+00
         21   -1    0    0  502  501  0.00000000000E+00  0.00000000000E+00  0.33950399931E+03  0.33950399931E+03  0.00000000000E+00 0. -1.
         21   -1    0    0  501  502 -0.00000000000E+00 -0.00000000000E+00 -0.30141435009E+03  0.30141435009E+03  0.00000000000E+00 0. -1.
         25    1    1    2    0    0  0.76127029502E+02  0.15021010125E+03 -0.17694823179E+02  0.21046735116E+03  0.12500000000E+03 0.  0.
         25    1    1    2    0    0  0.34293404884E+02 -0.16083750804E+03 -0.73398488052E+02  0.21921925020E+03  0.12500000000E+03 0.  0.
         25    1    1    2    0    0 -0.11042043439E+03  0.10627406787E+02  0.12918296046E+03  0.21123174803E+03  0.12500000000E+03 0.  0.
</event>
<event>
 5    0  0.5660959E-005  0.3655599E+03  0.7546771E-02  0.1056404E+00
         21   -1    0    0  502  501  0.00000000000E+00  0.00000000000E+00  0.20640420139E+03  0.20640420139E+03  0.00000000000E+00 0. -1.
         21   -1    0    0  501  502 -0.00000000000E+00 -0.00000000000E+00 -0.64743840910E+03  0.64743840910E+03  0.00000000000E+00 0. -1.
         25    1    1    2    0    0 -0.94797762765E+02 -0.12719589990E+03 -0.38749644357E+02  0.20565006131E+03  0.12500000000E+03 0.  0.
         25    1    1    2    0    0  0.20327782272E+03  0.13644022567E+03 -0.80847432829E+02  0.28652943266E+03  0.12500000000E+03 0.  0.
         25    1    1    2    0    0 -0.10848005995E+03 -0.92443257646E+01 -0.32143713053E+03  0.36166311652E+03  0.12500000000E+03 0.  0.
</event>
<event>
 5    0  0.5660959E-005  0.3182687E+03  0.7546771E-02  0.1076449E+00
         21   -1    0    0  502  501  0.00000000000E+00  0.00000000000E+00  0.47145816412E+03  0.47145816412E+03  0.00000000000E+00 0.  1.
         21   -1    0    0  501  502 -0.00000000000E+00 -0.00000000000E+00 -0.21485463720E+03  0.21485463720E+03  0.00000000000E+00 0.  1.
         25    1    1    2    0    0  0.17074982011E+03  0.46916187453E+02  0.24839266902E+03  0.32966732889E+03  0.12500000000E+03 0.  0.
         25    1    1    2    0    0 -0.78679632888E+02  0.68783569910E+02  0.40111387464E+01  0.16298083739E+03  0.12500000000E+03 0.  0.
         25    1    1    2    0    0 -0.92070187224E+02 -0.11569975736E+03  0.41997191507E+01  0.19366463505E+03  0.12500000000E+03 0.  0.
</event>
<event>
 5    0  0.5660959E-005  0.2838414E+03  0.7546771E-02  0.1093609E+00
         21   -1    0    0  502  501  0.00000000000E+00  0.00000000000E+00  0.70939853680E+02  0.70939853680E+02  0.00000000000E+00 0. -1.
         21   -1    0    0  501  502 -0.00000000000E+00 -0.00000000000E+00 -0.11356938579E+04  0.11356938579E+04  0.00000000000E+00 0. -1.
         25    1    1    2    0    0  0.66559251798E+02  0.22898115566E+02 -0.32643842739E+03  0.35656907405E+03  0.12500000000E+03 0.  0.
         25    1    1    2    0    0  0.85360276672E+02 -0.74612115555E+02 -0.14380599238E+03  0.22171718036E+03  0.12500000000E+03 0.  0.
         25    1    1    2    0    0 -0.15191952847E+03  0.51713999989E+02 -0.59450958446E+03  0.62834745718E+03  0.12500000000E+03 0.  0.
</event>
<event>
 5    0  0.5660959E-005  0.7187674E+03  0.7546771E-02  0.9685665E-01
         21   -1    0    0  502  501  0.00000000000E+00  0.00000000000E+00  0.29129043466E+03  0.29129043466E+03  0.00000000000E+00 0.  1.
         21   -1    0    0  501  502 -0.00000000000E+00 -0.00000000000E+00 -0.17735791368E+04  0.17735791368E+04  0.00000000000E+00 0.  1.
         25    1    1    2    0    0 -0.12519665856E+03 -0.32989353590E+03 -0.31865819590E+03  0.49160145866E+03  0.12500000000E+03 0.  0.
         25    1    1    2    0    0 -0.73688012524E+02 -0.32598270161E+03 -0.47077817978E+03  0.59072137213E+03  0.12500000000E+03 0.  0.
         25    1    1    2    0    0  0.19888467109E+03  0.65587623751E+03 -0.69285232645E+03  0.98254674066E+03  0.12500000000E+03 0.  0.
</event>
<event>
 5    0  0.5660959E-005  0.2577964E+03  0.7546771E-02  0.1108474E+00
         21   -1    0    0  502  501  0.00000000000E+00  0.00000000000E+00  0.22833629994E+03  0.22833629994E+03  0.00000000000E+00 0. -1.
         21   -1    0    0  501  502 -0.00000000000E+00 -0.00000000000E+00 -0.29105741123E+03  0.29105741123E+03  0.00000000000E+00 0. -1.
         25    1    1    2    0    0  0.14368502291E+02  0.36257102479E+02  0.10722206280E+03  0.16924125410E+03  0.12500000000E+03 0.  0.
         25    1    1    2    0    0 -0.87086446497E+02 -0.45915823636E+02 -0.68441350813E+02  0.17320949894E+03  0.12500000000E+03 0.  0.
         25    1    1    2    0    0  0.72717944205E+02  0.96587211574E+01 -0.10150182327E+03  0.17694295813E+03  0.12500000000E+03 0.  0.
</event>
<event>
 5    0  0.5660959E-005  0.4647707E+03  0.7546771E-02  0.1023407E+00
         21   -1    0    0  502  501  0.00000000000E+00  0.00000000000E+00  0.11449379265E+03  0.11449379265E+03  0.00000000000E+00 0.  1.
         21   -1    0    0  501  502 -0.00000000000E+00 -0.00000000000E+00 -0.18866679550E+04  0.18866679550E+04  0.00000000000E+00 0. -1.
         25    1    1    2    0    0  0.20464995107E+03  0.26360942359E+03 -0.64011997980E+03  0.73263232199E+03  0.12500000000E+03 0.  0.
         25    1    1    2    0    0 -0.19789966236E+03 -0.33296466356E+03 -0.97228925000E+03  0.10540403831E+04  0.12500000000E+03 0.  0.
         25    1    1    2    0    0 -0.67502887142E+01  0.69355239967E+02 -0.15976493256E+03  0.21448904258E+03  0.12500000000E+03 0.  0.
</event>
<event>
 5    0  0.5660959E-005  0.2698360E+03  0.7546771E-02  0.1101374E+00
         21   -1    0    0  502  501  0.00000000000E+00  0.00000000000E+00  0.11783819510E+03  0.11783819510E+03  0.00000000000E+00 0. -1.
         21   -1    0    0  501  502 -0.00000000000E+00 -0.00000000000E+00 -0.61789363272E+03  0.61789363272E+03  0.00000000000E+00 0. -1.
         25    1    1    2    0    0 -0.62679233861E+02  0.11118537863E+03 -0.39853969557E+02  0.18304156268E+03  0.12500000000E+03 0.  0.
         25    1    1    2    0    0  0.41940139830E+02 -0.77092114178E+02 -0.34801236687E+03  0.38005233441E+03  0.12500000000E+03 0.  0.
         25    1    1    2    0    0  0.20739094031E+02 -0.34093264451E+02 -0.11218910119E+03  0.17263793074E+03  0.12500000000E+03 0.  0.
</event>
<event>
 5    0  0.5660959E-005  0.2368318E+03  0.7546771E-02  0.1121922E+00
         21   -1    0    0  502  501  0.00000000000E+00  0.00000000000E+00  0.34936587690E+03  0.34936587690E+03  0.00000000000E+00 0.  1.
         21   -1    0    0  501  502 -0.00000000000E+00 -0.00000000000E+00 -0.16054599882E+03  0.16054599882E+03  0.00000000000E+00 0.  1.
         25    1    1    2    0    0 -0.41705179481E+02  0.29227024155E+02  0.14827618468E+03  0.20051026876E+03  0.12500000000E+03 0.  0.
         25    1    1    2    0    0  0.87913811239E+02 -0.68095987474E+02  0.12451254762E+02  0.16776750419E+03  0.12500000000E+03 0.  0.
         25    1    1    2    0    0 -0.46208631758E+02  0.38868963319E+02  0.28092438632E+02  0.14163410277E+03  0.12500000000E+03 0.  0.
</event>
<event>
 5    0  0.5660959E-005  0.3967546E+03  0.7546771E-02  0.1044909E+00
         21   -1    0    0  502  501  0.00000000000E+00  0.00000000000E+00  0.16374983076E+03  0.16374983076E+03  0.00000000000E+00 0.  1.
         21   -1    0    0  501  502 -0.00000000000E+00 -0.00000000000E+00 -0.96130936174E+03  0.96130936174E+03  0.00000000000E+00 0.  1.
         25    1    1    2    0    0 -0.22585009307E+03  0.89310561118E+02 -0.35033921737E+03  0.44423778328E+03  0.12500000000E+03 0.  0.
         25    1    1    2    0    0 -0.83800727341E+02 -0.25035976236E+02 -0.23434590658E+03  0.27962897908E+03  0.12500000000E+03 0.  0.
         25    1    1    2    0    0  0.30965082041E+03 -0.64274584882E+02 -0.21287440703E+03  0.40119243015E+03  0.12500000000E+03 0.  0.
</event>
<event>
 5    0  0.5660959E-005  0.3364136E+03  0.7546771E-02  0.1068334E+00
         21   -1    0    0  502  501  0.00000000000E+00  0.00000000000E+00  0.77058039006E+03  0.77058039006E+03  0.00000000000E+00 0. -1.
         21   -1    0    0  501  502 -0.00000000000E+00 -0.00000000000E+00 -0.14686865710E+03  0.14686865710E+03  0.00000000000E+00 0. -1.
         25    1    1    2    0    0 -0.92464042249E+02  0.33436819383E+02  0.73802579531E+02  0.17532666866E+03  0.12500000000E+03 0.  0.
         25    1    1    2    0    0  0.20763578760E+03 -0.13724479671E+03  0.21254041387E+03  0.35035293926E+03  0.12500000000E+03 0.  0.
         25    1    1    2    0    0 -0.11517174536E+03  0.10380797733E+03  0.33736873956E+03  0.39176943923E+03  0.12500000000E+03 0.  0.
</event>
<event>
 5    0  0.5660959E-005  0.2998627E+03  0.7546771E-02  0.1085309E+00
         21   -1    0    0  502  501  0.00000000000E+00  0.00000000000E+00  0.53179358980E+03  0.53179358980E+03  0.00000000000E+00 0. -1.
         21   -1    0    0  501  502 -0.00000000000E+00 -0.00000000000E+00 -0.16908370360E+03  0.16908370360E+03  0.00000000000E+00 0. -1.
         25    1    1    2    0    0  0.76421235352E+01  0.27048824681E+02  0.68224601794E+02  0.14515383997E+03  0.12500000000E+03 0.  0.
         25    1    1    2    0    0 -0.15782783932E+03 -0.40181371398E+02  0.39426666529E+01  0.20534048332E+03  0.12500000000E+03 0.  0.
         25    1    1    2    0    0  0.15018571578E+03  0.13132546717E+02  0.29054261775E+03  0.35038297010E+03  0.12500000000E+03 0.  0.
</event>
<event>
 5    0  0.5660959E-005  0.2664604E+03  0.7546771E-02  0.1103323E+00
         21   -1    0    0  502  501  0.00000000000E+00  0.00000000000E+00  0.27949453410E+02  0.27949453410E+02  0.00000000000E+00 0.  1.
         21   -1    0    0  501  502 -0.00000000000E+00 -0.00000000000E+00 -0.25403417289E+04  0.25403417289E+04  0.00000000000E+00 0.  1.
         25    1    1    2    0    0  0.48343614069E+02  0.16070864347E+02 -0.45066060857E+03  0.47044166675E+03  0.12500000000E+03 0.  0.
         25    1    1    2    0    0 -0.24818770061E+02 -0.13663229420E+03 -0.68558839675E+03  0.71059186945E+03  0.12500000000E+03 0.  0.
         25    1    1    2    0    0 -0.23524844007E+02  0.12056142985E+03 -0.13761432701E+04  0.13872576461E+04  0.12500000000E+03 0.  0.
</event>
<event>
 5    0  0.6848453E-005  0.4120207E+03  0.7546771E-02  0.1039695E+00
         21   -1    0    0  502  501  0.00000000000E+00  0.00000000000E+00  0.47144264650E+03  0.47144264650E+03  0.00000000000E+00 0. -1.
         21   -1    0    0  501  502 -0.00000000000E+00 -0.00000000000E+00 -0.36008847904E+03  0.36008847904E+03  0.00000000000E+00 0. -1.
         25    1    1    2    0    0  0.60810074592E+02 -0.86597483621E+02  0.16317408354E+03  0.23118773947E+03  0.12500000000E+03 0.  0.
         25    1    1    2    0    0  0.17219936288E+03 -0.15700717142E+01 -0.19354819411E+03  0.28764733467E+03  0.12500000000E+03 0.  0.
         25    1    1    2    0    0 -0.23300943747E+03  0.88167555335E+02  0.14172827804E+03  0.31269605140E+03  0.12500000000E+03 0.  0.
</event>
<event>
 5    0  0.5660959E-005  0.3288096E+03  0.7546771E-02  0.1071665E+00
         21   -1    0    0  502  501  0.00000000000E+00  0.00000000000E+00  0.20598100381E+03  0.20598100381E+03  0.00000000000E+00 0. -1.
         21   -1    0    0  501  502 -0.00000000000E+00 -0.00000000000E+00 -0.52488200396E+03  0.52488200396E+03  0.00000000000E+00 0. -1.
         25    1    1    2    0    0 -0.16963205202E+02 -0.68856792899E+01 -0.81446694408E+02  0.15031209845E+03  0.12500000000E+03 0.  0.
         25    1    1    2    0    0  0.19276233061E+03  0.18695489931E+02 -0.27759678274E+03  0.36082102383E+03  0.12500000000E+03 0.  0.
         25    1    1    2    0    0 -0.17579912541E+03 -0.11809810641E+02  0.40142477000E+02  0.21972988550E+03  0.12500000000E+03 0.  0.
</event>
<event>
 5    0  0.5660959E-005  0.2481933E+03  0.7546771E-02  0.1114452E+00
         21   -1    0    0  502  501  0.00000000000E+00  0.00000000000E+00  0.44071250433E+02  0.44071250433E+02  0.00000000000E+00 0. -1.
         21   -1    0    0  501  502 -0.00000000000E+00 -0.00000000000E+00 -0.13977345043E+04  0.13977345043E+04  0.00000000000E+00 0. -1.
         25    1    1    2    0    0  0.75041345520E+02 -0.60644281826E+01 -0.23596369410E+03  0.27743800345E+03  0.12500000000E+03 0.  0.
         25    1    1    2    0    0  0.51292355480E+02 -0.41700623969E+02 -0.44295839709E+03  0.46498063328E+03  0.12500000000E+03 0.  0.
         25    1    1    2    0    0 -0.12633370100E+03  0.47765052151E+02 -0.67474116263E+03  0.69938711796E+03  0.12500000000E+03 0.  0.
</event>
<event>
 5    0  0.5660959E-005  0.2254864E+03  0.7546771E-02  0.1129858E+00
         21   -1    0    0  502  501  0.00000000000E+00  0.00000000000E+00  0.18863276283E+03  0.18863276283E+03  0.00000000000E+00 0.  1.
         21   -1    0    0  501  502 -0.00000000000E+00 -0.00000000000E+00 -0.26954018058E+03  0.26954018058E+03  0.00000000000E+00 0.  1.
         25    1    1    2    0    0 -0.62435384701E+02 -0.11850256198E+02 -0.12107825631E+03  0.18526615985E+03  0.12500000000E+03 0.  0.
         25    1    1    2    0    0  0.41339788856E+02 -0.21238683833E+01  0.58454447279E+02  0.14406738481E+03  0.12500000000E+03 0.  0.
         25    1    1    2    0    0  0.21095595846E+02  0.13974124581E+02 -0.18283608724E+02  0.12883939875E+03  0.12500000000E+03 0.  0.
</event>
<event>
 5    0  0.5660959E-005  0.4555395E+03  0.7546771E-02  0.1026083E+00
         21   -1    0    0  502  501  0.00000000000E+00  0.00000000000E+00  0.23963213893E+03  0.23963213893E+03  0.00000000000E+00 0.  1.
         21   -1    0    0  501  502 -0.00000000000E+00 -0.00000000000E+00 -0.86597818493E+03  0.86597818493E+03  0.00000000000E+00 0.  1.
         25    1    1    2    0    0 -0.59314322123E+02 -0.37286552454E+03 -0.15138986516E+03  0.42554762304E+03  0.12500000000E+03 0.  0.
         25    1    1    2    0    0  0.11252222815E+03  0.19710779508E+03 -0.30602174489E+03  0.40098259695E+03  0.12500000000E+03 0.  0.
         25    1    1    2    0    0 -0.53207906024E+02  0.17575772946E+03 -0.16893443594E+03  0.27908010387E+03  0.12500000000E+03 0.  0.
</event>
<event>
 5    0  0.5660959E-005  0.3159254E+03  0.7546771E-02  0.1077540E+00
         21   -1    0    0  502  501  0.00000000000E+00  0.00000000000E+00  0.81080297850E+02  0.81080297850E+02  0.00000000000E+00 0. -1.
         21   -1    0    0  501  502 -0.00000000000E+00 -0.00000000000E+00 -0.12309875413E+04  0.12309875413E+04  0.00000000000E+00 0. -1.
         25    1    1    2    0    0 -0.86331843915E+02 -0.92510907197E+02 -0.51673818722E+03  0.54649319242E+03  0.12500000000E+03 0.  0.
         25    1    1    2    0    0  0.17011988361E+03  0.10096205137E+03 -0.20307638193E+03  0.30983725973E+03  0.12500000000E+03 0.  0.
         25    1    1    2    0    0 -0.83788039693E+02 -0.84511441769E+01 -0.43009267431E+03  0.45573738702E+03  0.12500000000E+03 0.  0.
</event>
<event>
 5    0  0.5686230E-005  0.2754690E+03  0.7546771E-02  0.1098190E+00
         21   -1    0    0  502  501  0.00000000000E+00  0.00000000000E+00  0.19086172618E+04  0.19086172618E+04  0.00000000000E+00 0.  1.
         21   -1    0    0  501  502 -0.00000000000E+00 -0.00000000000E+00 -0.39758181136E+02  0.39758181136E+02  0.00000000000E+00 0.  1.
         25    1    1    2    0    0  0.54744404499E+02 -0.67969513005E+01  0.68184703403E+03  0.69540170131E+03  0.12500000000E+03 0.  0.
         25    1    1    2    0    0  0.89517073683E+02  0.54206872678E+02  0.82528933785E+03  0.84123669837E+03  0.12500000000E+03 0.  0.
         25    1    1    2    0    0 -0.14426147818E+03 -0.47409921377E+02  0.36172270877E+03  0.41173704323E+03  0.12500000000E+03 0.  0.
</event>
<event>
 5    0  0.5660959E-005  0.2769785E+03  0.7546771E-02  0.1097351E+00
         21   -1    0    0  502  501  0.00000000000E+00  0.00000000000E+00  0.70135990066E+02  0.70135990066E+02  0.00000000000E+00 0.  1.
         21   -1    0    0  501  502 -0.00000000000E+00 -0.00000000000E+00 -0.10938335616E+04  0.10938335616E+04  0.00000000000E+00 0.  1.
         25    1    1    2    0    0  0.41907394889E+02  0.78262427760E+02 -0.19339842629E+03  0.24679787000E+03  0.12500000000E+03 0.  0.
         25    1    1    2    0    0  0.37995361322E+02 -0.61891709686E+02 -0.11023005474E+03  0.18179630408E+03  0.12500000000E+03 0.  0.
         25    1    1    2    0    0 -0.79902756211E+02 -0.16370718074E+02 -0.72006909052E+03  0.73537537760E+03  0.12500000000E+03 0.  0.
</event>
<event>
 5    0  0.5660959E-005  0.2955884E+03  0.7546771E-02  0.1087467E+00
         21   -1    0    0  502  501  0.00000000000E+00  0.00000000000E+00  0.76510515518E+03  0.76510515518E+03  0.00000000000E+00 0. -1.
         21   -1    0    0  501  502 -0.00000000000E+00 -0.00000000000E+00 -0.11419668954E+03  0.11419668954E+03  0.00000000000E+00 0.  1.
         25    1    1    2    0    0  0.23137349742E+02  0.18063045792E+02  0.40156244297E+03  0.42159104139E+03  0.12500000000E+03 0.  0.
         25    1    1    2    0    0 -0.32676515778E+02 -0.14889804428E+03  0.16831574776E+03  0.25921723172E+03  0.12500000000E+03 0.  0.
         25    1    1    2    0    0  0.95391660364E+01  0.13083499849E+03  0.81030274905E+02  0.19849357161E+03  0.12500000000E+03 0.  0.
</event>
<event>
 5    0  0.5660959E-005  0.2425336E+03  0.7546771E-02  0.1118116E+00
         21   -1    0    0  502  501  0.00000000000E+00  0.00000000000E+00  0.31401057922E+02  0.31401057922E+02  0.00000000000E+00 0. -1.
         21   -1    0    0  501  502 -0.00000000000E+00 -0.00000000000E+00 -0.18732668745E+04  0.18732668745E+04  0.00000000000E+00 0. -1.
         25    1    1    2    0    0 -0.36664004311E+02 -0.17289830021E+02 -0.64287965046E+03  0.65617256298E+03  0.12500000000E+03 0.  0.
         25    1    1    2    0    0  0.85474878384E+02  0.10101062243E+03 -0.77161809016E+03  0.79279794257E+03  0.12500000000E+03 0.  0.
         25    1    1    2    0    0 -0.48810874073E+02 -0.83720792407E+02 -0.42736807596E+03  0.45569742687E+03  0.12500000000E+03 0.  0.
</event>
<event>
 5    0  0.5660959E-005  0.2485337E+03  0.7546771E-02  0.1114235E+00
         21   -1    0    0  502  501  0.00000000000E+00  0.00000000000E+00  0.52606896215E+02  0.52606896215E+02  0.00000000000E+00 0. -1.
         21   -1    0    0  501  502 -0.00000000000E+00 -0.00000000000E+00 -0.11741618115E+04  0.11741618115E+04  0.00000000000E+00 0. -1.
         25    1    1    2    0    0 -0.44483374929E+02 -0.52071041246E+02 -0.13120952573E+03  0.19372945987E+03  0.12500000000E+03 0.  0.
         25    1    1    2    0    0 -0.37755215653E+02  0.30195021827E+02 -0.59140752656E+03  0.60640337905E+03  0.12500000000E+03 0.  0.
         25    1    1    2    0    0  0.82238590582E+02  0.21876019419E+02 -0.39893786303E+03  0.42663586882E+03  0.12500000000E+03 0.  0.
</event>
<event>
 5    0  0.5660959E-005  0.2593876E+03  0.7546771E-02  0.1107512E+00
         21   -1    0    0  502  501  0.00000000000E+00  0.00000000000E+00  0.11140751498E+03  0.11140751498E+03  0.00000000000E+00 0.  1.
         21   -1    0    0  501  502 -0.00000000000E+00 -0.00000000000E+00 -0.60392631505E+03  0.60392631505E+03  0.00000000000E+00 0.  1.
         25    1    1    2    0    0 -0.15726890664E+02 -0.40131552415E+02 -0.17252334709E+03  0.21736416881E+03  0.12500000000E+03 0.  0.
         25    1    1    2    0    0 -0.12822363723E+03  0.21647766986E+01 -0.20460951242E+03  0.27191182389E+03  0.12500000000E+03 0.  0.
         25    1    1    2    0    0  0.14395052789E+03  0.37966775716E+02 -0.11538594055E+03  0.22605783733E+03  0.12500000000E+03 0.  0.
</event>
<event>
 5    0  0.5660959E-005  0.4928199E+03  0.7546771E-02  0.1015670E+00
         21   -1    0    0  502  501  0.00000000000E+00  0.00000000000E+00  0.87666454405E+03  0.87666454405E+03  0.00000000000E+00 0. -1.
         21   -1    0    0  501  502 -0.00000000000E+00 -0.00000000000E+00 -0.27704039487E+03  0.27704039487E+03  0.00000000000E+00 0. -1.
         25    1    1    2    0    0  0.15157367804E+03 -0.17597859481E+03  0.11205235965E+03  0.28657246380E+03  0.12500000000E+03 0.  0.
         25    1    1    2    0    0 -0.94509908326E+02  0.31240437359E+03  0.76142074681E+01  0.34958774516E+03  0.12500000000E+03 0.  0.
         25    1    1    2    0    0 -0.57063769709E+02 -0.13642577878E+03  0.47995758206E+03  0.51754472996E+03  0.12500000000E+03 0.  0.
</event>
<event>
 5    0  0.5660959E-005  0.2797200E+03  0.7546771E-02  0.1095842E+00
         21   -1    0    0  502  501  0.00000000000E+00  0.00000000000E+00  0.16628253796E+04  0.16628253796E+04  0.00000000000E+00 0. -1.
         21   -1    0    0  501  502 -0.00000000000E+00 -0.00000000000E+00 -0.47054413054E+02  0.47054413054E+02  0.00000000000E+00 0. -1.
         25    1    1    2    0    0 -0.34518496767E+02 -0.75516370634E+02  0.17597963639E+03  0.23127490412E+03  0.12500000000E+03 0.  0.
         25    1    1    2    0    0  0.22642800955E+02  0.56697073120E+02  0.28801122163E+03  0.31984796126E+03  0.12500000000E+03 0.  0.
         25    1    1    2    0    0  0.11875695812E+02  0.18819297514E+02  0.11517801085E+04  0.11587569273E+04  0.12500000000E+03 0.  0.
</event>
<event>
 5    0  0.5660959E-005  0.2310503E+03  0.7546771E-02  0.1125903E+00
         21   -1    0    0  502  501  0.00000000000E+00  0.00000000000E+00  0.61055600102E+03  0.61055600102E+03  0.00000000000E+00 0.  1.
         21   -1    0    0  501  502 -0.00000000000E+00 -0.00000000000E+00 -0.87435440798E+02  0.87435440798E+02  0.00000000000E+00 0.  1.
         25    1    1    2    0    0 -0.55094283852E+02 -0.65938473108E+01  0.24976934801E+03  0.28476057687E+03  0.12500000000E+03 0.  0.
         25    1    1    2    0    0 -0.11293218333E+02 -0.30452422171E+02  0.35423699289E+02  0.13392059314E+03  0.12500000000E+03 0.  0.
         25    1    1    2    0    0  0.66387502185E+02  0.37046269482E+02  0.23792751293E+03  0.27931027180E+03  0.12500000000E+03 0.  0.
</event>
<event>
 5    0  0.5660959E-005  0.3339277E+03  0.7546771E-02  0.1069412E+00
         21   -1    0    0  502  501  0.00000000000E+00  0.00000000000E+00  0.13797918563E+03  0.13797918563E+03  0.00000000000E+00 0. -1.
         21   -1    0    0  501  502 -0.00000000000E+00 -0.00000000000E+00 -0.80814879362E+03  0.80814879362E+03  0.00000000000E+00 0. -1.
         25    1    1    2    0    0 -0.29842666090E+02 -0.19741683015E+02 -0.48467696296E+03  0.50181378736E+03  0.12500000000E+03 0.  0.
         25    1    1    2    0    0  0.18098506085E+02  0.16462328976E+03 -0.63146441254E+02  0.21688904190E+03  0.12500000000E+03 0.  0.
         25    1    1    2    0    0  0.11744160005E+02 -0.14488160675E+03 -0.12234620378E+03  0.22742514999E+03  0.12500000000E+03 0.  0.
</event>
<event>
 5    0  0.5660959E-005  0.3306213E+03  0.7546771E-02  0.1070862E+00
         21   -1    0    0  502  501  0.00000000000E+00  0.00000000000E+00  0.50384490673E+03  0.50384490673E+03  0.00000000000E+00 0. -1.
         21   -1    0    0  501  502 -0.00000000000E+00 -0.00000000000E+00 -0.21695259438E+03  0.21695259438E+03  0.00000000000E+00 0. -1.
         25    1    1    2    0    0 -0.43390336602E+02  0.16819441657E+03 -0.79458804868E+02  0.22827786741E+03  0.12500000000E+03 0.  0.
         25    1    1    2    0    0  0.75512443192E+02 -0.90121256542E+02  0.24397079548E+03  0.29827959871E+03  0.12500000000E+03 0.  0.
         25    1    1    2    0    0 -0.32122106590E+02 -0.78073160033E+02  0.12238032173E+03  0.19424003500E+03  0.12500000000E+03 0.  0.
</event>
<event>
 5    0  0.5660959E-005  0.3375285E+03  0.7546771E-02  0.1067853E+00
         21   -1    0    0  502  501  0.00000000000E+00  0.00000000000E+00  0.31413466124E+03  0.31413466124E+03  0.00000000000E+00 0.  1.
         21   -1    0    0  501  502 -0.00000000000E+00 -0.00000000000E+00 -0.36266457264E+03  0.36266457264E+03  0.00000000000E+00 0.  1.
         25    1    1    2    0    0 -0.37326492079E+02  0.55884812702E+02 -0.22586085964E+03  0.26674802196E+03  0.12500000000E+03 0.  0.
         25    1    1    2    0    0  0.46943715280E+02  0.19288269691E+02  0.21973511671E+03  0.25784544066E+03  0.12500000000E+03 0.  0.
         25    1    1    2    0    0 -0.96172232003E+01 -0.75173082393E+02 -0.42404168470E+02  0.15220577125E+03  0.12500000000E+03 0.  0.
</event>
<event>
 5    0  0.5660959E-005  0.2504334E+03  0.7546771E-02  0.1113031E+00
         21   -1    0    0  502  501  0.00000000000E+00  0.00000000000E+00  0.20017476830E+03  0.20017476830E+03  0.00000000000E+00 0. -1.
         21   -1    0    0  501  502 -0.00000000000E+00 -0.00000000000E+00 -0.31331062362E+03  0.31331062362E+03  0.00000000000E+00 0. -1.
         25    1    1    2    0    0 -0.30486184841E+02 -0.77628820450E+01  0.75865476825E+02  0.14956684251E+03  0.12500000000E+03 0.  0.
         25    1    1    2    0    0 -0.11603234701E+02 -0.64485422625E+02 -0.28517404988E+02  0.14398349619E+03  0.12500000000E+03 0.  0.
         25    1    1    2    0    0  0.42089419542E+02  0.72248304670E+02 -0.16048392715E+03  0.21993505323E+03  0.12500000000E+03 0.  0.
</event>
<event>
 5    0  0.5660959E-005  0.2551542E+03  0.7546771E-02  0.1110090E+00
         21   -1    0    0  502  501  0.00000000000E+00  0.00000000000E+00  0.30656013249E+02  0.30656013249E+02  0.00000000000E+00 0.  1.
         21   -1    0    0  501  502 -0.00000000000E+00 -0.00000000000E+00 -0.21236826520E+04  0.21236826520E+04  0.00000000000E+00 0.  1.
         25    1    1    2    0    0 -0.16940986653E+02  0.41659430140E+01 -0.47327146092E+03  0.48981142068E+03  0.12500000000E+03 0.  0.
         25    1    1    2    0    0  0.39235515671E+02  0.34372163163E+02 -0.21900006799E+03  0.25750126421E+03  0.12500000000E+03 0.  0.
         25    1    1    2    0    0 -0.22294529018E+02 -0.38538106177E+02 -0.14007551099E+04  0.14070259804E+04  0.12500000000E+03 0.  0.
</event>
<event>
 5    0  0.5660959E-005  0.2292214E+03  0.7546771E-02  0.1127189E+00
         21   -1    0    0  502  501  0.00000000000E+00  0.00000000000E+00  0.15977887145E+03  0.15977887145E+03  0.00000000000E+00 0. -1.
         21   -1    0    0  501  502 -0.00000000000E+00 -0.00000000000E+00 -0.32884475374E+03  0.32884475374E+03  0.00000000000E+00 0. -1.
         25    1    1    2    0    0 -0.56354581699E+02 -0.78560184189E+02 -0.10318465794E+03  0.18873159527E+03  0.12500000000E+03 0.  0.
         25    1    1    2    0    0 -0.11618119257E+02  0.59782838432E+02 -0.71317523834E+02  0.15626950333E+03  0.12500000000E+03 0.  0.
         25    1    1    2    0    0  0.67972700957E+02  0.18777345757E+02  0.54362994865E+01  0.14362252658E+03  0.12500000000E+03 0.  0.
</event>
<event>
 5    0  0.5660959E-005  0.2954546E+03  0.7546771E-02  0.1087535E+00
         21   -1    0    0  502  501  0.00000000000E+00  0.00000000000E+00  0.13049281877E+03  0.13049281877E+03  0.00000000000E+00 0. -1.
         21   -1    0    0  501  502 -0.00000000000E+00 -0.00000000000E+00 -0.66895193466E+03  0.66895193466E+03  0.00000000000E+00 0. -1.
         25    1    1    2    0    0 -0.15907286005E+03 -0.21742959775E+01 -0.12046090475E+03  0.23546705065E+03  0.12500000000E+03 0.  0.
         25    1    1    2    0    0 -0.81202975493E+01 -0.43702042682E+02 -0.27923139124E+03  0.30914556057E+03  0.12500000000E+03 0.  0.
         25    1    1    2    0    0  0.16719315760E+03  0.45876338660E+02 -0.13876681991E+03  0.25483214221E+03  0.12500000000E+03 0.  0.
</event>
<event>
 5    0  0.5660959E-005  0.3004714E+03  0.7546771E-02  0.1085005E+00
         21   -1    0    0  502  501  0.00000000000E+00  0.00000000000E+00  0.60034169513E+02  0.60034169513E+02  0.00000000000E+00 0.  1.
         21   -1    0    0  501  502 -0.00000000000E+00 -0.00000000000E+00 -0.15038608987E+04  0.15038608987E+04  0.00000000000E+00 0.  1.
         25    1    1    2    0    0  0.33491246707E+02  0.10707998843E+02 -0.87830199135E+02  0.15676564906E+03  0.12500000000E+03 0.  0.
         25    1    1    2    0    0 -0.10165508153E+03  0.66393382475E+02 -0.10124815010E+04  0.10273683014E+04  0.12500000000E+03 0.  0.
         25    1    1    2    0    0  0.68163834826E+02 -0.77101381319E+02 -0.34351502907E+03  0.37976111778E+03  0.12500000000E+03 0.  0.
</event>
<event>
 5    0  0.5660959E-005  0.3415399E+03  0.7546771E-02  0.1066142E+00
         21   -1    0    0  502  501  0.00000000000E+00  0.00000000000E+00  0.27380025535E+03  0.27380025535E+03  0.00000000000E+00 0.  1.
         21   -1    0    0  501  502 -0.00000000000E+00 -0.00000000000E+00 -0.42603871718E+03  0.42603871718E+03  0.00000000000E+00 0.  1.
         25    1    1    2    0    0  0.19148744431E+03 -0.10544566447E+03 -0.17376281357E+03  0.30594892526E+03  0.12500000000E+03 0.  0.
         25    1    1    2    0    0 -0.10240291278E+03  0.11924508624E+03  0.96152455608E+02  0.22265678040E+03  0.12500000000E+03 0.  0.
         25    1    1    2    0    0 -0.89084531536E+02 -0.13799421772E+02 -0.74628103858E+02  0.17123326688E+03  0.12500000000E+03 0.  0.
</event>
<event>
 5    0  0.5694483E-005  0.3699674E+03  0.7546771E-02  0.1054705E+00
         21   -1    0    0  502  501  0.00000000000E+00  0.00000000000E+00  0.39229587757E+03  0.39229587757E+03  0.00000000000E+00 0.  1.
         21   -1    0    0  501  502 -0.00000000000E+00 -0.00000000000E+00 -0.34890987763E+03  0.34890987763E+03  0.00000000000E+00 0.  1.
         25    1    1    2    0    0 -0.14208484090E+03 -0.79567956314E+02  0.83676731275E+02  0.22168887442E+03  0.12500000000E+03 0.  0.
         25    1    1    2    0    0 -0.62784119193E+02 -0.50971582720E+02  0.12995212762E+03  0.19761706237E+03  0.12500000000E+03 0.  0.
         25    1    1    2    0    0  0.20486896010E+03  0.13053953903E+03 -0.17024285896E+03  0.32189981840E+03  0.12500000000E+03 0.  0.
</event>
<event>
 5    0  0.5660959E-005  0.4238185E+03  0.7546771E-02  0.1035831E+00
         21   -1    0    0  502  501  0.00000000000E+00  0.00000000000E+00  0.30073939506E+04  0.30073939506E+04  0.00000000000E+00 0.  1.
         21   -1    0    0  501  502 -0.00000000000E+00 -0.00000000000E+00 -0.59726827053E+02  0.59726827053E+02  0.00000000000E+00 0. -1.
         25    1    1    2    0    0 -0.13900231612E+03  0.90611909702E+02  0.14412335952E+04  0.14561289222E+04  0.12500000000E+03 0.  0.
         25    1    1    2    0    0  0.36410924924E+02  0.19760929683E+03  0.53880405682E+03  0.58848109680E+03  0.12500000000E+03 0.  0.
         25    1    1    2    0    0  0.10259139119E+03 -0.28822120653E+03  0.96762947154E+03  0.10225107587E+04  0.12500000000E+03 0.  0.
</event>
<event>
 5    0  0.5660959E-005  0.2311838E+03  0.7546771E-02  0.1125809E+00
         21   -1    0    0  502  501  0.00000000000E+00  0.00000000000E+00  0.18540559596E+03  0.18540559596E+03  0.00000000000E+00 0.  1.
         21   -1    0    0  501  502 -0.00000000000E+00 -0.00000000000E+00 -0.28826514242E+03  0.28826514242E+03  0.00000000000E+00 0.  1.
         25    1    1    2    0    0 -0.52120280153E+01 -0.12789752252E+03 -0.20779801318E+02  0.18011591169E+03  0.12500000000E+03 0.  0.
         25    1    1    2    0    0  0.12435829357E+02  0.57990045745E+02 -0.36647707753E+02  0.14312773924E+03  0.12500000000E+03 0.  0.
         25    1    1    2    0    0 -0.72238013413E+01  0.69907476772E+02 -0.45432037392E+02  0.15042708744E+03  0.12500000000E+03 0.  0.
</event>
<event>
 5    0  0.5660959E-005  0.2530677E+03  0.7546771E-02  0.1111381E+00
         21   -1    0    0  502  501  0.00000000000E+00  0.00000000000E+00  0.31114353459E+03  0.31114353459E+03  0.00000000000E+00 0.  1.
         21   -1    0    0  501  502 -0.00000000000E+00 -0.00000000000E+00 -0.20583189669E+03  0.20583189669E+03  0.00000000000E+00 0.  1.
         25    1    1    2    0    0  0.49701171898E+02 -0.28160915308E+02  0.13486488762E+03  0.19255332132E+03  0.12500000000E+03 0.  0.
         25    1    1    2    0    0  0.38977271340E+02 -0.44180565917E+02  0.35850746355E+02  0.14276353211E+03  0.12500000000E+03 0.  0.
         25    1    1    2    0    0 -0.88678443238E+02  0.72341481226E+02 -0.65403996088E+02  0.18165857785E+03  0.12500000000E+03 0.  0.
</event>
<event>
 5    0  0.5660959E-005  0.3881028E+03  0.7546771E-02  0.1047979E+00
         21   -1    0    0  502  501  0.00000000000E+00  0.00000000000E+00  0.32064061738E+03  0.32064061738E+03  0.00000000000E+00 0. -1.
         21   -1    0    0  501  502 -0.00000000000E+00 -0.00000000000E+00 -0.46975889406E+03  0.46975889406E+03  0.00000000000E+00 0. -1.
         25    1    1    2    0    0  0.27439411734E+02  0.10822622662E+03  0.85740130644E+02  0.18826100883E+03  0.12500000000E+03 0.  0.
         25    1    1    2    0    0 -0.13148906646E+03  0.15079975550E+03 -0.39441480997E+02  0.23918731421E+03  0.12500000000E+03 0.  0.
         25    1    1    2    0    0  0.10404965472E+03 -0.25902598212E+03 -0.19541692632E+03  0.36295118839E+03  0.12500000000E+03 0.  0.
</event>
<event>
 5    0  0.5660959E-005  0.4954459E+03  0.7546771E-02  0.1014974E+00
         21   -1    0    0  502  501  0.00000000000E+00  0.00000000000E+00  0.27446392266E+03  0.27446392266E+03  0.00000000000E+00 0.  1.
         21   -1    0    0  501  502 -0.00000000000E+00 -0.00000000000E+00 -0.89434928675E+03  0.89434928675E+03  0.00000000000E+00 0.  1.
         25    1    1    2    0    0  0.64926936640E+02  0.27732010109E+03 -0.30943765254E+03  0.43874663119E+03  0.12500000000E+03 0.  0.
         25    1    1    2    0    0  0.49738789283E+02 -0.27753066089E+03  0.67570935546E+02  0.31573413851E+03  0.12500000000E+03 0.  0.
         25    1    1    2    0    0 -0.11466572592E+03  0.21055979730E+00 -0.37801864709E+03  0.41433243970E+03  0.12500000000E+03 0.  0.
</event>
<event>
 5    0  0.5660959E-005  0.5452266E+03  0.7546771E-02  0.1002605E+00
         21   -1    0    0  502  501  0.00000000000E+00  0.00000000000E+00  0.15261079575E+03  0.15261079575E+03  0.00000000000E+00 0. -1.
         21   -1    0    0  501  502 -0.00000000000E+00 -0.00000000000E+00 -0.19479096962E+04  0.19479096962E+04  0.00000000000E+00 0. -1.
         25    1    1    2    0    0 -0.24850427417E+02  0.66745371592E+02 -0.18758208346E+03  0.23639908292E+03  0.12500000000E+03 0.  0.
         25    1    1    2    0    0 -0.11978343612E+03 -0.35106662682E+03 -0.14210150405E+04  0.14739418555E+04  0.12500000000E+03 0.  0.
         25    1    1    2    0    0  0.14463386354E+03  0.28432125523E+03 -0.18670177648E+03  0.39017955354E+03  0.12500000000E+03 0.  0.
</event>
<event>
 5    0  0.5660959E-005  0.4804391E+03  0.7546771E-02  0.1019015E+00
         21   -1    0    0  502  501  0.00000000000E+00  0.00000000000E+00  0.11979002349E+04  0.11979002349E+04  0.00000000000E+00 0. -1.
         21   -1    0    0  501  502 -0.00000000000E+00 -0.00000000000E+00 -0.19268864127E+03  0.19268864127E+03  0.00000000000E+00 0. -1.
         25    1    1    2    0    0  0.17249675787E+03  0.30477838331E+03  0.20316717562E+03  0.42372974366E+03  0.12500000000E+03 0.  0.
         25    1    1    2    0    0  0.80172231991E+02 -0.56847048473E+02  0.30511166701E+03  0.34406002826E+03  0.12500000000E+03 0.  0.
         25    1    1    2    0    0 -0.25266898986E+03 -0.24793133484E+03  0.49693275100E+03  0.62279910425E+03  0.12500000000E+03 0.  0.
</event>
<event>
 5    0  0.5660959E-005  0.4110299E+03  0.7546771E-02  0.1040026E+00
         21   -1    0    0  502  501  0.00000000000E+00  0.00000000000E+00  0.29470662834E+04  0.29470662834E+04  0.00000000000E+00 0. -1.
         21   -1    0    0  501  502 -0.00000000000E+00 -0.00000000000E+00 -0.57326689300E+02  0.57326689300E+02  0.00000000000E+00 0. -1.
         25    1    1    2    0    0 -0.16488754493E+03 -0.10673450824E+03  0.46402809038E+03  0.51916011633E+03  0.12500000000E+03 0.  0.
         25    1    1    2    0    0 -0.59341462785E+02 -0.13043678238E+03  0.78422236036E+03  0.80694787557E+03  0.12500000000E+03 0.  0.
         25    1    1    2    0    0  0.22422900772E+03  0.23717129063E+03  0.16414891433E+04  0.16782849808E+04  0.12500000000E+03 0.  0.
</event>
<event>
 5    0  0.5891943E-005  0.3544607E+03  0.7546771E-02  0.1060799E+00
         21   -1    0    0  502  501  0.00000000000E+00  0.00000000000E+00  0.70631771565E+03  0.70631771565E+03  0.00000000000E+00 0.  1.
         21   -1    0    0  501  502 -0.00000000000E+00 -0.00000000000E+00 -0.17788364643E+03  0.17788364643E+03  0.00000000000E+00 0.  1.
         25    1    1    2    0    0  0.31247473325E+02  0.16451193377E+03  0.35565551612E+03  0.41250021466E+03  0.12500000000E+03 0.  0.
         25    1    1    2    0    0  0.11986430196E+03 -0.69803854860E+02  0.17207227808E+03  0.25391710837E+03  0.12500000000E+03 0.  0.
         25    1    1    2    0    0 -0.15111177528E+03 -0.94708078912E+02  0.70627501416E+00  0.21778403905E+03  0.12500000000E+03 0.  0.
</event>
<event>
 5    0  0.5998890E-005  0.2806480E+03  0.7546771E-02  0.1095336E+00
         21   -1    0    0  502  501  0.00000000000E+00  0.00000000000E+00  0.11994156824E+04  0.11994156824E+04  0.00000000000E+00 0.  1.
         21   -1    0    0  501  502 -0.00000000000E+00 -0.00000000000E+00 -0.65668069293E+02  0.65668069293E+02  0.00000000000E+00 0.  1.
         25    1    1    2    0    0  0.14246858301E+02 -0.67276898881E+02  0.61314832777E+03  0.62952762127E+03  0.12500000000E+03 0.  0.
         25    1    1    2    0    0  0.57969229804E+02 -0.14987750286E+01  0.43049444735E+03  0.45201011839E+03  0.12500000000E+03 0.  0.
         25    1    1    2    0    0 -0.72216088106E+02  0.68775673909E+02  0.90104837986E+02  0.18354601203E+03  0.12500000000E+03 0.  0.
</event>
<event>
 5    0  0.5660959E-005  0.3376491E+03  0.7546771E-02  0.1067802E+00
         21   -1    0    0  502  501  0.00000000000E+00  0.00000000000E+00  0.28388513315E+03  0.28388513315E+03  0.00000000000E+00 0. -1.
         21   -1    0    0  501  502 -0.00000000000E+00 -0.00000000000E+00 -0.40159532928E+03  0.40159532928E+03  0.00000000000E+00 0. -1.
         25    1    1    2    0    0 -0.20346760087E+03 -0.15110897118E+03  0.88146486177E+01  0.28272899357E+03  0.12500000000E+03 0.  0.
         25    1    1    2    0    0  0.84395751463E+02  0.14086566466E+03 -0.94023695315E+02  0.22678455332E+03  0.12500000000E+03 0.  0.
         25    1    1    2    0    0  0.11907184941E+03  0.10243306515E+02 -0.32501149429E+02  0.17596691554E+03  0.12500000000E+03 0.  0.
</event>
<event>
 5    0  0.5660959E-005  0.3162065E+03  0.7546771E-02  0.1077409E+00
         21   -1    0    0  502  501  0.00000000000E+00  0.00000000000E+00  0.50020470540E+03  0.50020470540E+03  0.00000000000E+00 0. -1.
         21   -1    0    0  501  502 -0.00000000000E+00 -0.00000000000E+00 -0.19989126526E+03  0.19989126526E+03  0.00000000000E+00 0. -1.
         25    1    1    2    0    0 -0.50912789139E+02  0.18021299494E+03  0.25555533924E+03  0.34059120226E+03  0.12500000000E+03 0.  0.
         25    1    1    2    0    0  0.77047961305E+02 -0.33837940791E+02  0.65186631748E+02  0.16418188553E+03  0.12500000000E+03 0.  0.
         25    1    1    2    0    0 -0.26135172166E+02 -0.14637505415E+03 -0.20428530838E+02  0.19532288287E+03  0.12500000000E+03 0.  0.
</event>
<event>
 5    0  0.5660959E-005  0.2795247E+03  0.7546771E-02  0.1095949E+00
         21   -1    0    0  502  501  0.00000000000E+00  0.00000000000E+00  0.26186673607E+03  0.26186673607E+03  0.00000000000E+00 0. -1.
         21   -1    0    0  501  502 -0.00000000000E+00 -0.00000000000E+00 -0.29837342179E+03  0.29837342179E+03  0.00000000000E+00 0. -1.
         25    1    1    2    0    0  0.33958529469E+02 -0.26312810832E+02  0.79224836978E+02  0.15410100756E+03  0.12500000000E+03 0.  0.
         25    1    1    2    0    0 -0.42830850110E+02 -0.10804033431E+03  0.27883884896E+02  0.17294422973E+03  0.12500000000E+03 0.  0.
         25    1    1    2    0    0  0.88723206406E+01  0.13435314515E+03 -0.14361540759E+03  0.23319492058E+03  0.12500000000E+03 0.  0.
</event>
<event>
 5    0  0.6191646E-005  0.2859641E+03  0.7546771E-02  0.1092475E+00
         21   -1    0    0  502  501  0.00000000000E+00  0.00000000000E+00  0.32188824257E+03  0.32188824257E+03  0.00000000000E+00 0. -1.
         21   -1    0    0  501  502 -0.00000000000E+00 -0.00000000000E+00 -0.25404925449E+03  0.25404925449E+03  0.00000000000E+00 0. -1.
         25    1    1    2    0    0  0.16091470185E+01 -0.99074185041E+02 -0.27875456021E+02  0.16192691112E+03  0.12500000000E+03 0.  0.
         25    1    1    2    0    0 -0.10165570715E+02  0.58058979086E+00 -0.10086623668E+03  0.16094307569E+03  0.12500000000E+03 0.  0.
         25    1    1    2    0    0  0.85564236967E+01  0.98493595251E+02  0.19658068078E+03  0.25306751026E+03  0.12500000000E+03 0.  0.
</event>
<event>
 5    0  0.5976869E-005  0.2770316E+03  0.7546771E-02  0.1097321E+00
         21   -1    0    0  502  501  0.00000000000E+00  0.00000000000E+00  0.12389241271E+04  0.12389241271E+04  0.00000000000E+00 0. -1.
         21   -1    0    0  501  502 -0.00000000000E+00 -0.00000000000E+00 -0.61946093369E+02  0.61946093369E+02  0.00000000000E+00 0. -1.
         25    1    1    2    0    0 -0.32605587290E+02  0.40795680182E+02  0.19494548103E+03  0.23739450798E+03  0.12500000000E+03 0.  0.
         25    1    1    2    0    0 -0.52420862122E+02  0.21424892874E+02  0.10895150627E+03  0.17522101340E+03  0.12500000000E+03 0.  0.
         25    1    1    2    0    0  0.85026449412E+02 -0.62220573056E+02  0.87308104643E+03  0.88825469909E+03  0.12500000000E+03 0.  0.
</event>
<event>
 5    0  0.5660959E-005  0.2392825E+03  0.7546771E-02  0.1120272E+00
         21   -1    0    0  502  501  0.00000000000E+00  0.00000000000E+00  0.29072676107E+02  0.29072676107E+02  0.00000000000E+00 0. -1.
         21   -1    0    0  501  502 -0.00000000000E+00 -0.00000000000E+00 -0.19694130225E+04  0.19694130225E+04  0.00000000000E+00 0. -1.
         25    1    1    2    0    0  0.30993206671E+02 -0.66704102259E+02 -0.69999929559E+03  0.71486644203E+03  0.12500000000E+03 0.  0.
         25    1    1    2    0    0  0.48344308073E+02 -0.48144552860E+02 -0.49404085239E+03  0.51415604045E+03  0.12500000000E+03 0.  0.
         25    1    1    2    0    0 -0.79337514744E+02  0.11484865512E+03 -0.74630019837E+03  0.76946321609E+03  0.12500000000E+03 0.  0.
</event>
<event>
 5    0  0.5660959E-005  0.4882339E+03  0.7546771E-02  0.1016896E+00
         21   -1    0    0  502  501  0.00000000000E+00  0.00000000000E+00  0.20268450463E+04  0.20268450463E+04  0.00000000000E+00 0. -1.
         21   -1    0    0  501  502 -0.00000000000E+00 -0.00000000000E+00 -0.11760758778E+03  0.11760758778E+03  0.00000000000E+00 0. -1.
         25    1    1    2    0    0 -0.26215310194E+03 -0.38771487051E+01  0.22584412438E+03  0.36792641881E+03  0.12500000000E+03 0.  0.
         25    1    1    2    0    0  0.35553207516E+03  0.92717769565E+02  0.11539199179E+04  0.12174382194E+04  0.12500000000E+03 0.  0.
         25    1    1    2    0    0 -0.93378973223E+02 -0.88840620860E+02  0.52947341631E+03  0.55908799588E+03  0.12500000000E+03 0.  0.
</event>
<event>
 5    0  0.5660959E-005  0.3072977E+03  0.7546771E-02  0.1081648E+00
         21   -1    0    0  502  501  0.00000000000E+00  0.00000000000E+00  0.25516993862E+03  0.25516993862E+03  0.00000000000E+00 0.  1.
         21   -1    0    0  501  502 -0.00000000000E+00 -0.00000000000E+00 -0.37007448549E+03  0.37007448549E+03  0.00000000000E+00 0.  1.
         25    1    1    2    0    0 -0.61780223731E+02  0.28856214801E+02  0.84917188554E+02  0.16578723138E+03  0.12500000000E+03 0.  0.
         25    1    1    2    0    0 -0.10785054098E+03  0.48598635850E+02 -0.22884639601E+02  0.17361530268E+03  0.12500000000E+03 0.  0.
         25    1    1    2    0    0  0.16963076471E+03 -0.77454850651E+02 -0.17693709583E+03  0.28584189004E+03  0.12500000000E+03 0.  0.
</event>
<event>
 5    0  0.5660959E-005  0.2544659E+03  0.7546771E-02  0.1110515E+00
         21   -1    0    0  502  501  0.00000000000E+00  0.00000000000E+00  0.34360976696E+03  0.34360976696E+03  0.00000000000E+00 0. -1.
         21   -1    0    0  501  502 -0.00000000000E+00 -0.00000000000E+00 -0.18844899483E+03  0.18844899483E+03  0.00000000000E+00 0. -1.
         25    1    1    2    0    0 -0.27542892568E+02  0.84430422789E+02  0.12375975327E+03  0.19704969869E+03  0.12500000000E+03 0.  0.
         25    1    1    2    0    0  0.51530081031E+01  0.51762391983E+02  0.57275920882E+02  0.14700826449E+03  0.12500000000E+03 0.  0.
         25    1    1    2    0    0  0.22389884465E+02 -0.13619281477E+03 -0.25874902028E+02  0.18800079861E+03  0.12500000000E+03 0.  0.
</event>
<event>
 5    0  0.5660959E-005  0.3989842E+03  0.7546771E-02  0.1044132E+00
         21   -1    0    0  502  501  0.00000000000E+00  0.00000000000E+00  0.31758643609E+03  0.31758643609E+03  0.00000000000E+00 0. -1.
         21   -1    0    0  501  502 -0.00000000000E+00 -0.00000000000E+00 -0.50124424657E+03  0.50124424657E+03  0.00000000000E+00 0. -1.
         25    1    1    2    0    0  0.29007561781E+03  0.82117521952E+02 -0.75248841518E+02  0.33492467751E+03  0.12500000000E+03 0.  0.
         25    1    1    2    0    0 -0.11439729570E+03  0.93091196840E+02 -0.34112037568E+02  0.19631949292E+03  0.12500000000E+03 0.  0.
         25    1    1    2    0    0 -0.17567832211E+03 -0.17520871879E+03 -0.74296931397E+02  0.28758651223E+03  0.12500000000E+03 0.  0.
</event>
<event>
 5    0  0.5660959E-005  0.2662599E+03  0.7546771E-02  0.1103439E+00
         21   -1    0    0  502  501  0.00000000000E+00  0.00000000000E+00  0.40135064930E+03  0.40135064930E+03  0.00000000000E+00 0.  1.
         21   -1    0    0  501  502 -0.00000000000E+00 -0.00000000000E+00 -0.17663943116E+03  0.17663943116E+03  0.00000000000E+00 0.  1.
         25    1    1    2    0    0  0.66611491240E+02  0.12035816542E+02 -0.54373255220E+02  0.15219527761E+03  0.12500000000E+03 0.  0.
         25    1    1    2    0    0 -0.64606679227E+01  0.60595580565E+02  0.21618591063E+03  0.25705040861E+03  0.12500000000E+03 0.  0.
         25    1    1    2    0    0 -0.60150823318E+02 -0.72631397107E+02  0.62898562727E+02  0.16874439423E+03  0.12500000000E+03 0.  0.
</event>
<event>
 5    0  0.5660959E-005  0.2611439E+03  0.7546771E-02  0.1106458E+00
         21   -1    0    0  502  501  0.00000000000E+00  0.00000000000E+00  0.52064600176E+02  0.52064600176E+02  0.00000000000E+00 0. -1.
         21   -1    0    0  501  502 -0.00000000000E+00 -0.00000000000E+00 -0.13098369161E+04  0.13098369161E+04  0.00000000000E+00 0. -1.
         25    1    1    2    0    0 -0.18123537449E+02  0.17991158712E+02 -0.15340340052E+03  0.19952380232E+03  0.12500000000E+03 0.  0.
         25    1    1    2    0    0  0.71520980835E+01 -0.64551593584E+02 -0.18098240836E+03  0.22934186900E+03  0.12500000000E+03 0.  0.
         25    1    1    2    0    0  0.10971439365E+02  0.46560434872E+02 -0.92338650700E+03  0.93303584491E+03  0.12500000000E+03 0.  0.
</event>
<event>
 5    0  0.5660959E-005  0.3511974E+03  0.7546771E-02  0.1062125E+00
         21   -1    0    0  502  501  0.00000000000E+00  0.00000000000E+00  0.66076561098E+02  0.66076561098E+02  0.00000000000E+00 0.  1.
         21   -1    0    0  501  502 -0.00000000000E+00 -0.00000000000E+00 -0.18666166653E+04  0.18666166653E+04  0.00000000000E+00 0.  1.
         25    1    1    2    0    0 -0.97725727428E+02  0.14430422297E+03 -0.25095559805E+03  0.33011776499E+03  0.12500000000E+03 0.  0.
         25    1    1    2    0    0  0.26001725326E+02 -0.12490801175E+03 -0.33796459836E+03  0.38226060595E+03  0.12500000000E+03 0.  0.
         25    1    1    2    0    0  0.71724002102E+02 -0.19396211215E+02 -0.12116199078E+04  0.12203148555E+04  0.12500000000E+03 0.  0.
</event>
<event>
 5    0  0.5660959E-005  0.2447160E+03  0.7546771E-02  0.1116690E+00
         21   -1    0    0  502  501  0.00000000000E+00  0.00000000000E+00  0.61974069117E+03  0.61974069117E+03  0.00000000000E+00 0.  1.
         21   -1    0    0  501  502 -0.00000000000E+00 -0.00000000000E+00 -0.96630634392E+02  0.96630634392E+02  0.00000000000E+00 0.  1.
         25    1    1    2    0    0 -0.99724566730E+01  0.31528557893E+02  0.62129077486E+02  0.14345215971E+03  0.12500000000E+03 0.  0.
         25    1    1    2    0    0  0.32006201247E+02  0.95055978854E+02  0.19970611339E+03  0.25606164836E+03  0.12500000000E+03 0.  0.
         25    1    1    2    0    0 -0.22033744574E+02 -0.12658453675E+03  0.26127486590E+03  0.31685751750E+03  0.12500000000E+03 0.  0.
</event>
<event>
 5    0  0.5660959E-005  0.5290020E+03  0.7546771E-02  0.1006474E+00
         21   -1    0    0  502  501  0.00000000000E+00  0.00000000000E+00  0.60736644313E+03  0.60736644313E+03  0.00000000000E+00 0.  1.
         21   -1    0    0  501  502 -0.00000000000E+00 -0.00000000000E+00 -0.46074843254E+03  0.46074843254E+03  0.00000000000E+00 0.  1.
         25    1    1    2    0    0  0.81592006327E+02  0.13778252983E+02  0.14759508640E+03  0.21037206393E+03  0.12500000000E+03 0.  0.
         25    1    1    2    0    0 -0.18290453143E+03 -0.63769597359E+02 -0.37914980681E+03  0.44373438583E+03  0.12500000000E+03 0.  0.
         25    1    1    2    0    0  0.10131252510E+03  0.49991344376E+02  0.37817273100E+03  0.41400842591E+03  0.12500000000E+03 0.  0.
</event>
<event>
 5    0  0.5660959E-005  0.2519709E+03  0.7546771E-02  0.1112066E+00
         21   -1    0    0  502  501  0.00000000000E+00  0.00000000000E+00  0.11306544367E+03  0.11306544367E+03  0.00000000000E+00 0.  1.
         21   -1    0    0  501  502 -0.00000000000E+00 -0.00000000000E+00 -0.56152738424E+03  0.56152738424E+03  0.00000000000E+00 0.  1.
         25    1    1    2    0    0  0.67205089895E+02 -0.12933917694E+03 -0.19060489561E+03  0.27055567455E+03  0.12500000000E+03 0.  0.
         25    1    1    2    0    0  0.24431713841E+02  0.48868956801E+02 -0.11360372030E+03  0.17752714960E+03  0.12500000000E+03 0.  0.
         25    1    1    2    0    0 -0.91636803736E+02  0.80470220137E+02 -0.14425332466E+03  0.22651000376E+03  0.12500000000E+03 0.  0.
</event>
<event>
 5    0  0.5660959E-005  0.3061382E+03  0.7546771E-02  0.1082212E+00
         21   -1    0    0  502  501  0.00000000000E+00  0.00000000000E+00  0.94819963167E+02  0.94819963167E+02  0.00000000000E+00 0. -1.
         21   -1    0    0  501  502 -0.00000000000E+00 -0.00000000000E+00 -0.98840575970E+03  0.98840575970E+03  0.00000000000E+00 0. -1.
         25    1    1    2    0    0 -0.23128729350E+02 -0.13017570029E+03 -0.56859682385E+03  0.59699916177E+03  0.12500000000E+03 0.  0.
         25    1    1    2    0    0 -0.17333984027E+02  0.16335780977E+03 -0.27027166285E+03  0.34008530217E+03  0.12500000000E+03 0.  0.
         25    1    1    2    0    0  0.40462713377E+02 -0.33182109486E+02 -0.54717309839E+02  0.14614125892E+03  0.12500000000E+03 0.  0.
</event>
<event>
 5    0  0.5660959E-005  0.4796981E+03  0.7546771E-02  0.1019218E+00
         21   -1    0    0  502  501  0.00000000000E+00  0.00000000000E+00  0.75245070187E+02  0.75245070187E+02  0.00000000000E+00 0. -1.
         21   -1    0    0  501  502 -0.00000000000E+00 -0.00000000000E+00 -0.30581439868E+04  0.30581439868E+04  0.00000000000E+00 0. -1.
         25    1    1    2    0    0 -0.34799431250E+02 -0.13767525067E+02 -0.12976140262E+03  0.18402056073E+03  0.12500000000E+03 0.  0.
         25    1    1    2    0    0  0.33227366316E+03 -0.94308438706E+02 -0.19490495427E+04  0.19833605292E+04  0.12500000000E+03 0.  0.
         25    1    1    2    0    0 -0.29747423191E+03  0.10807596377E+03 -0.90408797120E+03  0.96600796698E+03  0.12500000000E+03 0.  0.
</event>
<event>
 5    0  0.6030348E-005  0.4193525E+03  0.7546771E-02  0.1037277E+00
         21   -1    0    0  502  501  0.00000000000E+00  0.00000000000E+00  0.12286518922E+04  0.12286518922E+04  0.00000000000E+00 0.  1.
         21   -1    0    0  501  502 -0.00000000000E+00 -0.00000000000E+00 -0.14312964816E+03  0.14312964816E+03  0.00000000000E+00 0.  1.
         25    1    1    2    0    0 -0.15468281263E+03  0.11787523927E+03  0.35557755325E+03  0.42412467617E+03  0.12500000000E+03 0.  0.
         25    1    1    2    0    0  0.31598351729E+03  0.95890083119E+00  0.56603045147E+03  0.66019843584E+03  0.12500000000E+03 0.  0.
         25    1    1    2    0    0 -0.16130070466E+03 -0.11883414010E+03  0.16391423928E+03  0.28745842832E+03  0.12500000000E+03 0.  0.
</event>
<event>
 5    0  0.5660959E-005  0.2799790E+03  0.7546771E-02  0.1095700E+00
         21   -1    0    0  502  501  0.00000000000E+00  0.00000000000E+00  0.24973317252E+03  0.24973317252E+03  0.00000000000E+00 0. -1.
         21   -1    0    0  501  502 -0.00000000000E+00 -0.00000000000E+00 -0.31388793495E+03  0.31388793495E+03  0.00000000000E+00 0. -1.
         25    1    1    2    0    0 -0.11694474738E+03  0.60202753116E+02  0.65589041201E+02  0.19294394976E+03  0.12500000000E+03 0.  0.
         25    1    1    2    0    0  0.11302313339E+03 -0.95968454126E+02 -0.10498708489E+02  0.19421481856E+03  0.12500000000E+03 0.  0.
         25    1    1    2    0    0  0.39216139963E+01  0.35765701010E+02 -0.11924509514E+03  0.17646233915E+03  0.12500000000E+03 0.  0.
</event>
<event>
 5    0  0.5660959E-005  0.3109007E+03  0.7546771E-02  0.1079915E+00
         21   -1    0    0  502  501  0.00000000000E+00  0.00000000000E+00  0.36262524644E+03  0.36262524644E+03  0.00000000000E+00 0. -1.
         21   -1    0    0  501  502 -0.00000000000E+00 -0.00000000000E+00 -0.26655402760E+03  0.26655402760E+03  0.00000000000E+00 0. -1.
         25    1    1    2    0    0  0.12276861544E+03  0.43744325780E+02  0.17014687520E+03  0.24811420377E+03  0.12500000000E+03 0.  0.
         25    1    1    2    0    0 -0.10102302498E+03  0.50405336325E+02  0.54850239599E+02  0.17714372213E+03  0.12500000000E+03 0.  0.
         25    1    1    2    0    0 -0.21745590458E+02 -0.94149662105E+02 -0.12892589595E+03  0.20392134813E+03  0.12500000000E+03 0.  0.
</event>
<event>
 5    0  0.5660959E-005  0.2588100E+03  0.7546771E-02  0.1107860E+00
         21   -1    0    0  502  501  0.00000000000E+00  0.00000000000E+00  0.40234121037E+02  0.40234121037E+02  0.00000000000E+00 0.  1.
         21   -1    0    0  501  502 -0.00000000000E+00 -0.00000000000E+00 -0.16648215799E+04  0.16648215799E+04  0.00000000000E+00 0.  1.
         25    1    1    2    0    0 -0.75326629369E+02 -0.32734815082E+02 -0.21996555373E+03  0.26599908653E+03  0.12500000000E+03 0.  0.
         25    1    1    2    0    0  0.73095567942E+02  0.88301614607E+02 -0.91955539409E+03  0.93506537739E+03  0.12500000000E+03 0.  0.
         25    1    1    2    0    0  0.22310614267E+01 -0.55566799526E+02 -0.48506651102E+03  0.50399123698E+03  0.12500000000E+03 0.  0.
</event>
<event>
 5    0  0.5660959E-005  0.5836457E+03  0.7546771E-02  0.9939929E-01
         21   -1    0    0  502  501  0.00000000000E+00  0.00000000000E+00  0.35637857735E+03  0.35637857735E+03  0.00000000000E+00 0. -1.
         21   -1    0    0  501  502 -0.00000000000E+00 -0.00000000000E+00 -0.95584394206E+03  0.95584394206E+03  0.00000000000E+00 0. -1.
         25    1    1    2    0    0 -0.49145828046E+02  0.14477357577E+03 -0.51324526439E+03  0.54992763349E+03  0.12500000000E+03 0.  0.
         25    1    1    2    0    0  0.20722942191E+03 -0.32511633235E+03  0.11944326735E+03  0.42253562806E+03  0.12500000000E+03 0.  0.
         25    1    1    2    0    0 -0.15808359386E+03  0.18034275658E+03 -0.20566336767E+03  0.33975925786E+03  0.12500000000E+03 0.  0.
</event>
<event>
 5    0  0.6460343E-005  0.2751891E+03  0.7546771E-02  0.1098346E+00
         21   -1    0    0  502  501  0.00000000000E+00  0.00000000000E+00  0.47601420214E+03  0.47601420214E+03  0.00000000000E+00 0.  1.
         21   -1    0    0  501  502 -0.00000000000E+00 -0.00000000000E+00 -0.15908987268E+03  0.15908987268E+03  0.00000000000E+00 0.  1.
         25    1    1    2    0    0 -0.66337538264E+02  0.62309800055E+02  0.58570270882E+02  0.16534405583E+03  0.12500000000E+03 0.  0.
         25    1    1    2    0    0  0.72371726107E+02 -0.11275682804E+03  0.27845766411E+03  0.33333982617E+03  0.12500000000E+03 0.  0.
         25    1    1    2    0    0 -0.60341878433E+01  0.50447027986E+02 -0.20103605537E+02  0.13642019283E+03  0.12500000000E+03 0.  0.
</event>
<event>
 5    0  0.5660959E-005  0.2292452E+03  0.7546771E-02  0.1127172E+00
         21   -1    0    0  502  501  0.00000000000E+00  0.00000000000E+00  0.10774878619E+03  0.10774878619E+03  0.00000000000E+00 0. -1.
         21   -1    0    0  501  502 -0.00000000000E+00 -0.00000000000E+00 -0.48773955504E+03  0.48773955504E+03  0.00000000000E+00 0. -1.
         25    1    1    2    0    0 -0.37482461726E+02  0.67535545573E+02 -0.10033551894E+03  0.17792751674E+03  0.12500000000E+03 0.  0.
         25    1    1    2    0    0  0.56215746040E+02 -0.33592110073E+02 -0.24408016786E+03  0.28193752553E+03  0.12500000000E+03 0.  0.
         25    1    1    2    0    0 -0.18733284314E+02 -0.33943435499E+02 -0.35575082051E+02  0.13562329895E+03  0.12500000000E+03 0.  0.
</event>
<event>
 5    0  0.5660959E-005  0.2797044E+03  0.7546771E-02  0.1095850E+00
         21   -1    0    0  502  501  0.00000000000E+00  0.00000000000E+00  0.35022501859E+03  0.35022501859E+03  0.00000000000E+00 0. -1.
         21   -1    0    0  501  502 -0.00000000000E+00 -0.00000000000E+00 -0.22338371969E+03  0.22338371969E+03  0.00000000000E+00 0. -1.
         25    1    1    2    0    0  0.13244274705E+03  0.77701430581E+02 -0.43301888063E+01  0.19804631806E+03  0.12500000000E+03 0.  0.
         25    1    1    2    0    0  0.21254783407E+02 -0.67296439173E+02  0.11793862842E+02  0.14403010707E+03  0.12500000000E+03 0.  0.
         25    1    1    2    0    0 -0.15369753046E+03 -0.10404991407E+02  0.11937762486E+03  0.23153231315E+03  0.12500000000E+03 0.  0.
</event>
<event>
 5    0  0.5660959E-005  0.2774721E+03  0.7546771E-02  0.1097078E+00
         21   -1    0    0  502  501  0.00000000000E+00  0.00000000000E+00  0.34270049505E+03  0.34270049505E+03  0.00000000000E+00 0. -1.
         21   -1    0    0  501  502 -0.00000000000E+00 -0.00000000000E+00 -0.22465910516E+03  0.22465910516E+03  0.00000000000E+00 0. -1.
         25    1    1    2    0    0  0.83227988357E+02 -0.65967859491E+02 -0.68941041125E+02  0.17792280259E+03  0.12500000000E+03 0.  0.
         25    1    1    2    0    0 -0.12880226803E+03  0.21971872606E+02  0.17015577228E+03  0.24829573954E+03  0.12500000000E+03 0.  0.
         25    1    1    2    0    0  0.45574279673E+02  0.43995986885E+02  0.16826658745E+02  0.14114105807E+03  0.12500000000E+03 0.  0.
</event>
<event>
 5    0  0.5660959E-005  0.4117368E+03  0.7546771E-02  0.1039790E+00
         21   -1    0    0  502  501  0.00000000000E+00  0.00000000000E+00  0.69765457179E+02  0.69765457179E+02  0.00000000000E+00 0.  1.
         21   -1    0    0  501  502 -0.00000000000E+00 -0.00000000000E+00 -0.24299592674E+04  0.24299592674E+04  0.00000000000E+00 0.  1.
         25    1    1    2    0    0 -0.12125810254E+03 -0.22641206965E+03 -0.34856642982E+03  0.45065453366E+03  0.12500000000E+03 0.  0.
         25    1    1    2    0    0  0.85943580243E+02  0.31308199413E+02 -0.85891605350E+03  0.87277046770E+03  0.12500000000E+03 0.  0.
         25    1    1    2    0    0  0.35314522297E+02  0.19510387023E+03 -0.11527113269E+04  0.11762997232E+04  0.12500000000E+03 0.  0.
</event>
<event>
 5    0  0.5660959E-005  0.4110113E+03  0.7546771E-02  0.1040032E+00
         21   -1    0    0  502  501  0.00000000000E+00  0.00000000000E+00  0.59046868081E+03  0.59046868081E+03  0.00000000000E+00 0. -1.
         21   -1    0    0  501  502 -0.00000000000E+00 -0.00000000000E+00 -0.28609529948E+03  0.28609529948E+03  0.00000000000E+00 0. -1.
         25    1    1    2    0    0  0.17241262559E+03  0.25598720985E+03  0.18364453498E+03  0.38027079863E+03  0.12500000000E+03 0.  0.
         25    1    1    2    0    0 -0.19148707458E+03 -0.21715949983E+03 -0.27092837547E+01  0.31536944735E+03  0.12500000000E+03 0.  0.
         25    1    1    2    0    0  0.19074448991E+02 -0.38827710011E+02  0.12343813011E+03  0.18092373430E+03  0.12500000000E+03 0.  0.
</event>
<event>
 5    0  0.5660959E-005  0.2202469E+03  0.7546771E-02  0.1133699E+00
         21   -1    0    0  502  501  0.00000000000E+00  0.00000000000E+00  0.23289864179E+03  0.23289864179E+03  0.00000000000E+00 0. -1.
         21   -1    0    0  501  502 -0.00000000000E+00 -0.00000000000E+00 -0.20828250609E+03  0.20828250609E+03  0.00000000000E+00 0. -1.
         25    1    1    2    0    0  0.69033809178E+02  0.55248039680E+02  0.28370241622E+02  0.15571731859E+03  0.12500000000E+03 0.  0.
         25    1    1    2    0    0 -0.14259755845E+02 -0.44874170704E+02  0.43797038487E+02  0.14057102267E+03  0.12500000000E+03 0.  0.
         25    1    1    2    0    0 -0.54774053334E+02 -0.10373868975E+02 -0.47551144413E+02  0.14489280662E+03  0.12500000000E+03 0.  0.
</event>
<event>
 5    0  0.5660959E-005  0.2964028E+03  0.7546771E-02  0.1087053E+00
         21   -1    0    0  502  501  0.00000000000E+00  0.00000000000E+00  0.28679020209E+03  0.28679020209E+03  0.00000000000E+00 0.  1.
         21   -1    0    0  501  502 -0.00000000000E+00 -0.00000000000E+00 -0.30633761299E+03  0.30633761299E+03  0.00000000000E+00 0.  1.
         25    1    1    2    0    0 -0.13224000928E+03  0.10414963797E+03 -0.87840831421E+02  0.22732263153E+03  0.12500000000E+03 0.  0.
         25    1    1    2    0    0  0.30752845186E+02  0.40521236270E+02 -0.10712488287E+02  0.13537896986E+03  0.12500000000E+03 0.  0.
         25    1    1    2    0    0  0.10148716409E+03 -0.14467087424E+03  0.79005908805E+02  0.23042621369E+03  0.12500000000E+03 0.  0.
</event>
<event>
 5    0  0.5660959E-005  0.2706468E+03  0.7546771E-02  0.1100910E+00
         21   -1    0    0  502  501  0.00000000000E+00  0.00000000000E+00  0.73176500466E+03  0.73176500466E+03  0.00000000000E+00 0.  1.
         21   -1    0    0  501  502 -0.00000000000E+00 -0.00000000000E+00 -0.10009998157E+03  0.10009998157E+03  0.00000000000E+00 0.  1.
         25    1    1    2    0    0  0.12026263169E+03  0.18835303946E+02  0.18755762669E+03  0.25616543987E+03  0.12500000000E+03 0.  0.
         25    1    1    2    0    0 -0.82112811296E+02 -0.11382873332E+03  0.32329584285E+03  0.37395814781E+03  0.12500000000E+03 0.  0.
         25    1    1    2    0    0 -0.38149820390E+02  0.94993429376E+02  0.12081155354E+03  0.20174139855E+03  0.12500000000E+03 0.  0.
</event>
<event>
 5    0  0.5660959E-005  0.4152036E+03  0.7546771E-02  0.1038639E+00
         21   -1    0    0  502  501  0.00000000000E+00  0.00000000000E+00  0.14729791807E+03  0.14729791807E+03  0.00000000000E+00 0. -1.
         21   -1    0    0  501  502 -0.00000000000E+00 -0.00000000000E+00 -0.11703765592E+04  0.11703765592E+04  0.00000000000E+00 0. -1.
         25    1    1    2    0    0 -0.44821570248E+02  0.44481487849E+01 -0.21639976638E+03  0.25393427905E+03  0.12500000000E+03 0.  0.
         25    1    1    2    0    0 -0.25567495614E+02 -0.31347977220E+03 -0.50933143608E+03  0.61152823008E+03  0.12500000000E+03 0.  0.
         25    1    1    2    0    0  0.70389065862E+02  0.30903162342E+03 -0.29734743872E+03  0.45221196819E+03  0.12500000000E+03 0.  0.
</event>
<event>
 5    0  0.5660959E-005  0.2803504E+03  0.7546771E-02  0.1095498E+00
         21   -1    0    0  502  501  0.00000000000E+00  0.00000000000E+00  0.47670510399E+03  0.47670510399E+03  0.00000000000E+00 0. -1.
         21   -1    0    0  501  502 -0.00000000000E+00 -0.00000000000E+00 -0.16487419582E+03  0.16487419582E+03  0.00000000000E+00 0. -1.
         25    1    1    2    0    0 -0.10962833921E+03 -0.55095111319E+02  0.27201442271E+03  0.32352849984E+03  0.12500000000E+03 0.  0.
         25    1    1    2    0    0 -0.11225609890E+02 -0.14198675225E+02 -0.17752501450E+01  0.12631614390E+03  0.12500000000E+03 0.  0.
         25    1    1    2    0    0  0.12085394910E+03  0.69293786544E+02  0.41591735609E+02  0.19173465607E+03  0.12500000000E+03 0.  0.
</event>
<event>
 5    0  0.5660959E-005  0.2851369E+03  0.7546771E-02  0.1092916E+00
         21   -1    0    0  502  501  0.00000000000E+00  0.00000000000E+00  0.73378509643E+03  0.73378509643E+03  0.00000000000E+00 0. -1.
         21   -1    0    0  501  502 -0.00000000000E+00 -0.00000000000E+00 -0.11079957051E+03  0.11079957051E+03  0.00000000000E+00 0. -1.
         25    1    1    2    0    0  0.85631873969E+02 -0.11751071022E+03  0.94925537935E+02  0.21395663722E+03  0.12500000000E+03 0.  0.
         25    1    1    2    0    0 -0.37815072952E+01  0.10532644373E+03  0.14226452037E+03  0.21673060076E+03  0.12500000000E+03 0.  0.
         25    1    1    2    0    0 -0.81850366674E+02  0.12184266487E+02  0.38579546761E+03  0.41389742897E+03  0.12500000000E+03 0.  0.
</event>
<event>
 5    0  0.5660959E-005  0.3445280E+03  0.7546771E-02  0.1064884E+00
         21   -1    0    0  502  501  0.00000000000E+00  0.00000000000E+00  0.83437369843E+03  0.83437369843E+03  0.00000000000E+00 0. -1.
         21   -1    0    0  501  502 -0.00000000000E+00 -0.00000000000E+00 -0.14226184586E+03  0.14226184586E+03  0.00000000000E+00 0. -1.
         25    1    1    2    0    0 -0.47662118425E+02  0.12177114928E+03  0.49446825392E+03  0.52652041220E+03  0.12500000000E+03 0.  0.
         25    1    1    2    0    0  0.15168646722E+03 -0.37067422230E+02  0.17423886406E+03  0.26526771360E+03  0.12500000000E+03 0.  0.
         25    1    1    2    0    0 -0.10402434879E+03 -0.84703727052E+02  0.23404734587E+02  0.18484741848E+03  0.12500000000E+03 0.  0.
</event>
<event>
 5    0  0.5660959E-005  0.2271000E+03  0.7546771E-02  0.1128698E+00
         21   -1    0    0  502  501  0.00000000000E+00  0.00000000000E+00  0.60867891051E+02  0.60867891051E+02  0.00000000000E+00 0. -1.
         21   -1    0    0  501  502 -0.00000000000E+00 -0.00000000000E+00 -0.84731715830E+03  0.84731715830E+03  0.00000000000E+00 0. -1.
         25    1    1    2    0    0 -0.25308544456E+02  0.62248985869E+02 -0.25383200330E+03  0.29081118370E+03  0.12500000000E+03 0.  0.
         25    1    1    2    0    0  0.69761458614E+02 -0.50628444740E+02 -0.15508124680E+03  0.21703707894E+03  0.12500000000E+03 0.  0.
         25    1    1    2    0    0 -0.44452914157E+02 -0.11620541130E+02 -0.37753601715E+03  0.40033678671E+03  0.12500000000E+03 0.  0.
</event>
<event>
 5    0  0.5986130E-005  0.3812518E+03  0.7546771E-02  0.1050472E+00
         21   -1    0    0  502  501  0.00000000000E+00  0.00000000000E+00  0.26321418309E+03  0.26321418309E+03  0.00000000000E+00 0.  1.
         21   -1    0    0  501  502 -0.00000000000E+00 -0.00000000000E+00 -0.55222292327E+03  0.55222292327E+03  0.00000000000E+00 0.  1.
         25    1    1    2    0    0  0.21122608733E+03 -0.40658742251E+02  0.42244854950E+02  0.25234742134E+03  0.12500000000E+03 0.  0.
         25    1    1    2    0    0  0.49752501418E+01  0.77577379937E+02 -0.26330041357E+03  0.30165395866E+03  0.12500000000E+03 0.  0.
         25    1    1    2    0    0 -0.21620133747E+03 -0.36918637686E+02 -0.67953181570E+02  0.26143572636E+03  0.12500000000E+03 0.  0.
</event>
<event>
 5    0  0.5660959E-005  0.2225338E+03  0.7546771E-02  0.1132008E+00
         21   -1    0    0  502  501  0.00000000000E+00  0.00000000000E+00  0.94067602874E+02  0.94067602874E+02  0.00000000000E+00 0. -1.
         21   -1    0    0  501  502 -0.00000000000E+00 -0.00000000000E+00 -0.52644365527E+03  0.52644365527E+03  0.00000000000E+00 0. -1.
         25    1    1    2    0    0  0.96814838199E+02 -0.47567686758E+02 -0.18275915778E+03  0.24629597534E+03  0.12500000000E+03 0.  0.
         25    1    1    2    0    0 -0.65903474720E+02  0.27094007135E+02 -0.16431520988E+03  0.21840751223E+03  0.12500000000E+03 0.  0.
         25    1    1    2    0    0 -0.30911363479E+02  0.20473679623E+02 -0.85301684743E+02  0.15580777057E+03  0.12500000000E+03 0.  0.
</event>
<event>
 5    0  0.6611791E-005  0.5393813E+03  0.7546771E-02  0.1003982E+00
         21   -1    0    0  502  501  0.00000000000E+00  0.00000000000E+00  0.73826231345E+03  0.73826231345E+03  0.00000000000E+00 0.  1.
         21   -1    0    0  501  502 -0.00000000000E+00 -0.00000000000E+00 -0.39407691332E+03  0.39407691332E+03  0.00000000000E+00 0.  1.
         25    1    1    2    0    0  0.57188810810E+02 -0.24449163688E+03 -0.17465396047E+03  0.33041750331E+03  0.12500000000E+03 0.  0.
         25    1    1    2    0    0 -0.18562170355E+03 -0.81200674649E+02  0.23159041286E+03  0.33212661098E+03  0.12500000000E+03 0.  0.
         25    1    1    2    0    0  0.12843289274E+03  0.32569231153E+03  0.28724894774E+03  0.46979511248E+03  0.12500000000E+03 0.  0.
</event>
<event>
 5    0  0.5660959E-005  0.3932378E+03  0.7546771E-02  0.1046147E+00
         21   -1    0    0  502  501  0.00000000000E+00  0.00000000000E+00  0.12347997242E+04  0.12347997242E+04  0.00000000000E+00 0. -1.
         21   -1    0    0  501  502 -0.00000000000E+00 -0.00000000000E+00 -0.12523161318E+03  0.12523161318E+03  0.00000000000E+00 0. -1.
         25    1    1    2    0    0  0.23278054658E+02  0.65464186018E+02  0.49150360479E+03  0.51188692209E+03  0.12500000000E+03 0.  0.
         25    1    1    2    0    0 -0.92831161639E+02  0.13950121506E+03  0.55104652828E+03  0.58936872152E+03  0.12500000000E+03 0.  0.
         25    1    1    2    0    0  0.69553106981E+02 -0.20496540108E+03  0.67017977962E+02  0.25877569380E+03  0.12500000000E+03 0.  0.
</event>
<event>
 5    0  0.5660959E-005  0.3426329E+03  0.7546771E-02  0.1065680E+00
         21   -1    0    0  502  501  0.00000000000E+00  0.00000000000E+00  0.21298294313E+03  0.21298294313E+03  0.00000000000E+00 0. -1.
         21   -1    0    0  501  502 -0.00000000000E+00 -0.00000000000E+00 -0.55120512921E+03  0.55120512921E+03  0.00000000000E+00 0. -1.
         25    1    1    2    0    0 -0.64758262642E+02 -0.15541848965E+03 -0.15116166396E+03  0.25850220145E+03  0.12500000000E+03 0.  0.
         25    1    1    2    0    0 -0.13572421801E+03  0.88518235104E+02 -0.15775457100E+03  0.25839513535E+03  0.12500000000E+03 0.  0.
         25    1    1    2    0    0  0.20048248066E+03  0.66900254549E+02 -0.29305951128E+02  0.24729073553E+03  0.12500000000E+03 0.  0.
</event>
<event>
 5    0  0.5660959E-005  0.2112140E+03  0.7546771E-02  0.1140608E+00
         21   -1    0    0  502  501  0.00000000000E+00  0.00000000000E+00  0.17855885721E+03  0.17855885721E+03  0.00000000000E+00 0. -1.
         21   -1    0    0  501  502 -0.00000000000E+00 -0.00000000000E+00 -0.24984118780E+03  0.24984118780E+03  0.00000000000E+00 0. -1.
         25    1    1    2    0    0 -0.21490390244E+02  0.23947384277E+02 -0.33792910632E+02  0.13342516590E+03  0.12500000000E+03 0.  0.
         25    1    1    2    0    0 -0.53994385193E+02 -0.37577149581E+02  0.78410895558E+01  0.14147055697E+03  0.12500000000E+03 0.  0.
         25    1    1    2    0    0  0.75484775437E+02  0.13629765304E+02 -0.45330509517E+02  0.15350432215E+03  0.12500000000E+03 0.  0.
</event>
<event>
 5    0  0.5896613E-005  0.5411683E+03  0.7546771E-02  0.1003559E+00
         21   -1    0    0  502  501  0.00000000000E+00  0.00000000000E+00  0.77076668120E+03  0.77076668120E+03  0.00000000000E+00 0.  1.
         21   -1    0    0  501  502 -0.00000000000E+00 -0.00000000000E+00 -0.37996344123E+03  0.37996344123E+03  0.00000000000E+00 0.  1.
         25    1    1    2    0    0 -0.44592738822E+01 -0.14747213580E+03 -0.10854803541E+03  0.22175570331E+03  0.12500000000E+03 0.  0.
         25    1    1    2    0    0 -0.34119423616E+03 -0.34878319066E+02  0.16927901644E+03  0.40238090081E+03  0.12500000000E+03 0.  0.
         25    1    1    2    0    0  0.34565351005E+03  0.18235045486E+03  0.33007225895E+03  0.52659351831E+03  0.12500000000E+03 0.  0.
</event>
<event>
 5    0  0.5660959E-005  0.2202297E+03  0.7546771E-02  0.1133712E+00
         21   -1    0    0  502  501  0.00000000000E+00  0.00000000000E+00  0.61319851911E+02  0.61319851911E+02  0.00000000000E+00 0. -1.
         21   -1    0    0  501  502 -0.00000000000E+00 -0.00000000000E+00 -0.79095273936E+03  0.79095273936E+03  0.00000000000E+00 0. -1.
         25    1    1    2    0    0 -0.33170844346E+02 -0.19391565736E+02 -0.30465791115E+03  0.33153850540E+03  0.12500000000E+03 0.  0.
         25    1    1    2    0    0  0.74530242829E+02  0.67928396693E+02 -0.22747592495E+03  0.27845883108E+03  0.12500000000E+03 0.  0.
         25    1    1    2    0    0 -0.41359398482E+02 -0.48536830957E+02 -0.19749905136E+03  0.24227525480E+03  0.12500000000E+03 0.  0.
</event>
<event>
 5    0  0.5660959E-005  0.2386776E+03  0.7546771E-02  0.1120677E+00
         21   -1    0    0  502  501  0.00000000000E+00  0.00000000000E+00  0.73907637886E+02  0.73907637886E+02  0.00000000000E+00 0.  1.
         21   -1    0    0  501  502 -0.00000000000E+00 -0.00000000000E+00 -0.77078651888E+03  0.77078651888E+03  0.00000000000E+00 0.  1.
         25    1    1    2    0    0  0.47701364164E+02  0.78835421029E+02 -0.27629736028E+03  0.31694743263E+03  0.12500000000E+03 0.  0.
         25    1    1    2    0    0 -0.46656580068E+02 -0.78934015690E+02 -0.35323360447E+03  0.38575431900E+03  0.12500000000E+03 0.  0.
         25    1    1    2    0    0 -0.10447840964E+01  0.98594660656E-01 -0.67347916236E+02  0.14199240514E+03  0.12500000000E+03 0.  0.
</event>
<event>
 5    0  0.5660959E-005  0.3218035E+03  0.7546771E-02  0.1074822E+00
         21   -1    0    0  502  501  0.00000000000E+00  0.00000000000E+00  0.51790557367E+03  0.51790557367E+03  0.00000000000E+00 0.  1.
         21   -1    0    0  501  502 -0.00000000000E+00 -0.00000000000E+00 -0.19995436679E+03  0.19995436679E+03  0.00000000000E+00 0.  1.
         25    1    1    2    0    0 -0.21578094925E+03  0.10502233984E+03  0.22757732780E+03  0.35356406782E+03  0.12500000000E+03 0.  0.
         25    1    1    2    0    0  0.13782980474E+03 -0.45616602292E+02  0.70842786552E+02  0.20425873270E+03  0.12500000000E+03 0.  0.
         25    1    1    2    0    0  0.77951144511E+02 -0.59405737552E+02  0.19531092526E+02  0.16003713994E+03  0.12500000000E+03 0.  0.
</event>
<event>
 5    0  0.5660959E-005  0.2302666E+03  0.7546771E-02  0.1126452E+00
         21   -1    0    0  502  501  0.00000000000E+00  0.00000000000E+00  0.81826518618E+03  0.81826518618E+03  0.00000000000E+00 0. -1.
         21   -1    0    0  501  502 -0.00000000000E+00 -0.00000000000E+00 -0.64798932574E+02  0.64798932574E+02  0.00000000000E+00 0. -1.
         25    1    1    2    0    0  0.40579945346E+02 -0.60794569925E+01  0.10671982080E+03  0.16940428540E+03  0.12500000000E+03 0.  0.
         25    1    1    2    0    0 -0.84633447594E+02 -0.45881218606E+02  0.30340497099E+03  0.34197585163E+03  0.12500000000E+03 0.  0.
         25    1    1    2    0    0  0.44053502248E+02  0.51960675599E+02  0.34334146181E+03  0.37168398172E+03  0.12500000000E+03 0.  0.
</event>
<event>
 5    0  0.5660959E-005  0.3206849E+03  0.7546771E-02  0.1075335E+00
         21   -1    0    0  502  501  0.00000000000E+00  0.00000000000E+00  0.56369488001E+03  0.56369488001E+03  0.00000000000E+00 0.  1.
         21   -1    0    0  501  502 -0.00000000000E+00 -0.00000000000E+00 -0.18243701749E+03  0.18243701749E+03  0.00000000000E+00 0.  1.
         25    1    1    2    0    0  0.15710241054E+03  0.10141882946E+03  0.31776570295E+03  0.38931605199E+03  0.12500000000E+03 0.  0.
         25    1    1    2    0    0 -0.15791713849E+03 -0.21106851469E+02  0.39197798717E+02  0.20626388252E+03  0.12500000000E+03 0.  0.
         25    1    1    2    0    0  0.81472794996E+00 -0.80311977993E+02  0.24294360863E+02  0.15055196299E+03  0.12500000000E+03 0.  0.
</event>
<event>
 5    0  0.6139604E-005  0.3032000E+03  0.7546771E-02  0.1083652E+00
         21   -1    0    0  502  501  0.00000000000E+00  0.00000000000E+00  0.60076154486E+03  0.60076154486E+03  0.00000000000E+00 0.  1.
         21   -1    0    0  501  502 -0.00000000000E+00 -0.00000000000E+00 -0.15302283244E+03  0.15302283244E+03  0.00000000000E+00 0.  1.
         25    1    1    2    0    0 -0.14232852758E+03  0.46872886988E+02  0.15990250485E+03  0.25228612398E+03  0.12500000000E+03 0.  0.
         25    1    1    2    0    0  0.13562227619E+03 -0.22091456907E+02 -0.96399253904E+00  0.18576157716E+03  0.12500000000E+03 0.  0.
         25    1    1    2    0    0  0.67062513857E+01 -0.24781430081E+02  0.28880020012E+03  0.31573667616E+03  0.12500000000E+03 0.  0.
</event>
<event>
 5    0  0.5660959E-005  0.3836040E+03  0.7546771E-02  0.1049610E+00
         21   -1    0    0  502  501  0.00000000000E+00  0.00000000000E+00  0.20713124715E+03  0.20713124715E+03  0.00000000000E+00 0. -1.
         21   -1    0    0  501  502 -0.00000000000E+00 -0.00000000000E+00 -0.71042899154E+03  0.71042899154E+03  0.00000000000E+00 0. -1.
         25    1    1    2    0    0 -0.19647044641E+03  0.26566331054E+02 -0.37924775055E+03  0.44582537226E+03  0.12500000000E+03 0.  0.
         25    1    1    2    0    0  0.27558561810E+03 -0.15208500083E+02 -0.54418944797E+02  0.30783949216E+03  0.12500000000E+03 0.  0.
         25    1    1    2    0    0 -0.79115171688E+02 -0.11357830971E+02 -0.69631049040E+02  0.16389537427E+03  0.12500000000E+03 0.  0.
</event>
<event>
 5    0  0.5660959E-005  0.2932094E+03  0.7546771E-02  0.1088685E+00
         21   -1    0    0  502  501  0.00000000000E+00  0.00000000000E+00  0.26031184871E+03  0.26031184871E+03  0.00000000000E+00 0.  1.
         21   -1    0    0  501  502 -0.00000000000E+00 -0.00000000000E+00 -0.33026448807E+03  0.33026448807E+03  0.00000000000E+00 0.  1.
         25    1    1    2    0    0 -0.15607493550E+03  0.14715443716E+02  0.18328622651E+02  0.20133769688E+03  0.12500000000E+03 0.  0.
         25    1    1    2    0    0  0.19042541566E+03  0.32812412516E+02 -0.99469163118E+02  0.25071419536E+03  0.12500000000E+03 0.  0.
         25    1    1    2    0    0 -0.34350480155E+02 -0.47527856232E+02  0.11187901100E+02  0.13852444454E+03  0.12500000000E+03 0.  0.
</event>
<event>
 5    0  0.7620783E-005  0.4147509E+03  0.7546771E-02  0.1038788E+00
         21   -1    0    0  502  501  0.00000000000E+00  0.00000000000E+00  0.29757124034E+03  0.29757124034E+03  0.00000000000E+00 0.  1.
         21   -1    0    0  501  502 -0.00000000000E+00 -0.00000000000E+00 -0.57807442262E+03  0.57807442262E+03  0.00000000000E+00 0.  1.
         25    1    1    2    0    0  0.21025429952E+03  0.19896158220E+02  0.94243136586E+02  0.26288685090E+03  0.12500000000E+03 0.  0.
         25    1    1    2    0    0 -0.27087059121E+03  0.60074684468E+02 -0.15714377345E+03  0.34248943112E+03  0.12500000000E+03 0.  0.
         25    1    1    2    0    0  0.60616291689E+02 -0.79970842688E+02 -0.21760254542E+03  0.27026938094E+03  0.12500000000E+03 0.  0.
</event>
<event>
 5    0  0.5660959E-005  0.2949109E+03  0.7546771E-02  0.1087813E+00
         21   -1    0    0  502  501  0.00000000000E+00  0.00000000000E+00  0.16145540680E+03  0.16145540680E+03  0.00000000000E+00 0.  1.
         21   -1    0    0  501  502 -0.00000000000E+00 -0.00000000000E+00 -0.53867772810E+03  0.53867772810E+03  0.00000000000E+00 0.  1.
         25    1    1    2    0    0  0.59734732591E+02  0.35862340667E+02 -0.15214306200E+03  0.20887043130E+03  0.12500000000E+03 0.  0.
         25    1    1    2    0    0  0.62144135585E+02  0.97865232290E+00  0.62401402002E+02  0.15291104054E+03  0.12500000000E+03 0.  0.
         25    1    1    2    0    0 -0.12187886818E+03 -0.36840992990E+02 -0.28748066130E+03  0.33835166306E+03  0.12500000000E+03 0.  0.
</event>
<event>
 5    0  0.5660959E-005  0.2945727E+03  0.7546771E-02  0.1087986E+00
         21   -1    0    0  502  501  0.00000000000E+00  0.00000000000E+00  0.11862892689E+03  0.11862892689E+03  0.00000000000E+00 0. -1.
         21   -1    0    0  501  502 -0.00000000000E+00 -0.00000000000E+00 -0.73146624081E+03  0.73146624081E+03  0.00000000000E+00 0. -1.
         25    1    1    2    0    0  0.93769350856E+02  0.85946844246E+01 -0.34382403067E+02  0.16023017631E+03  0.12500000000E+03 0.  0.
         25    1    1    2    0    0  0.12722349846E+02  0.64208480863E+02 -0.84982821872E+02  0.16471693056E+03  0.12500000000E+03 0.  0.
         25    1    1    2    0    0 -0.10649170070E+03 -0.72803165287E+02 -0.49347208898E+03  0.52514806083E+03  0.12500000000E+03 0.  0.
</event>
<event>
 5    0  0.5660959E-005  0.3611749E+03  0.7546771E-02  0.1058120E+00
         21   -1    0    0  502  501  0.00000000000E+00  0.00000000000E+00  0.10302059857E+04  0.10302059857E+04  0.00000000000E+00 0.  1.
         21   -1    0    0  501  502 -0.00000000000E+00 -0.00000000000E+00 -0.12662253777E+03  0.12662253777E+03  0.00000000000E+00 0.  1.
         25    1    1    2    0    0 -0.70911600287E+02  0.18941707876E+03  0.72444356636E+03  0.76246361593E+03  0.12500000000E+03 0.  0.
         25    1    1    2    0    0  0.95725243013E+02 -0.63425219414E+02  0.64240358515E+02  0.18148802790E+03  0.12500000000E+03 0.  0.
         25    1    1    2    0    0 -0.24813642725E+02 -0.12599185935E+03  0.11489952305E+03  0.21287687964E+03  0.12500000000E+03 0.  0.
</event>
<event>
 5    0  0.5660959E-005  0.3326571E+03  0.7546771E-02  0.1069967E+00
         21   -1    0    0  502  501  0.00000000000E+00  0.00000000000E+00  0.58615465627E+03  0.58615465627E+03  0.00000000000E+00 0. -1.
         21   -1    0    0  501  502 -0.00000000000E+00 -0.00000000000E+00 -0.18879106609E+03  0.18879106609E+03  0.00000000000E+00 0. -1.
         25    1    1    2    0    0 -0.56995451460E+02 -0.12159949006E+02  0.13274948253E+03  0.19142562775E+03  0.12500000000E+03 0.  0.
         25    1    1    2    0    0  0.11857294697E+02 -0.21608727586E+03  0.84438603402E+02  0.26379761934E+03  0.12500000000E+03 0.  0.
         25    1    1    2    0    0  0.45138156763E+02  0.22824722487E+03  0.18017550425E+03  0.31972247526E+03  0.12500000000E+03 0.  0.
</event>
<event>
 5    0  0.5660959E-005  0.3422371E+03  0.7546771E-02  0.1065847E+00
         21   -1    0    0  502  501  0.00000000000E+00  0.00000000000E+00  0.12137456850E+04  0.12137456850E+04  0.00000000000E+00 0.  1.
         21   -1    0    0  501  502 -0.00000000000E+00 -0.00000000000E+00 -0.96499801053E+02  0.96499801053E+02  0.00000000000E+00 0.  1.
         25    1    1    2    0    0 -0.49263959228E+02 -0.80874152756E+02  0.50761493382E+03  0.53128663384E+03  0.12500000000E+03 0.  0.
         25    1    1    2    0    0 -0.64310565876E+02 -0.75361681792E+02  0.39737073953E+02  0.16437538445E+03  0.12500000000E+03 0.  0.
         25    1    1    2    0    0  0.11357452510E+03  0.15623583455E+03  0.56989387620E+03  0.61458346779E+03  0.12500000000E+03 0.  0.
</event>
<event>
 5    0  0.5660959E-005  0.2830436E+03  0.7546771E-02  0.1094038E+00
         21   -1    0    0  502  501  0.00000000000E+00  0.00000000000E+00  0.39689057807E+03  0.39689057807E+03  0.00000000000E+00 0. -1.
         21   -1    0    0  501  502 -0.00000000000E+00 -0.00000000000E+00 -0.20185328213E+03  0.20185328213E+03  0.00000000000E+00 0. -1.
         25    1    1    2    0    0 -0.50590752152E+02 -0.78255962457E+02  0.10132299615E+03  0.18594291977E+03  0.12500000000E+03 0.  0.
         25    1    1    2    0    0 -0.46579257156E+02  0.56291542423E+02  0.18012073703E+03  0.23109920998E+03  0.12500000000E+03 0.  0.
         25    1    1    2    0    0  0.97170009308E+02  0.21964420035E+02 -0.86406437225E+02  0.18170173046E+03  0.12500000000E+03 0.  0.
</event>
<event>
 5    0  0.5660959E-005  0.2182632E+03  0.7546771E-02  0.1135185E+00
         21   -1    0    0  502  501  0.00000000000E+00  0.00000000000E+00  0.63214781614E+03  0.63214781614E+03  0.00000000000E+00 0.  1.
         21   -1    0    0  501  502 -0.00000000000E+00 -0.00000000000E+00 -0.75360264305E+02  0.75360264305E+02  0.00000000000E+00 0.  1.
         25    1    1    2    0    0 -0.65223303981E+02 -0.12391846337E+02  0.10208523032E+03  0.17451083487E+03  0.12500000000E+03 0.  0.
         25    1    1    2    0    0  0.12900177558E+01 -0.98159391644E+01  0.14160224242E+03  0.18914071975E+03  0.12500000000E+03 0.  0.
         25    1    1    2    0    0  0.63933286225E+02  0.22207785502E+02  0.31310007910E+03  0.34385652583E+03  0.12500000000E+03 0.  0.
</event>
<event>
 5    0  0.5660959E-005  0.3215043E+03  0.7546771E-02  0.1074959E+00
         21   -1    0    0  502  501  0.00000000000E+00  0.00000000000E+00  0.46431626012E+02  0.46431626012E+02  0.00000000000E+00 0.  1.
         21   -1    0    0  501  502 -0.00000000000E+00 -0.00000000000E+00 -0.22261764996E+04  0.22261764996E+04  0.00000000000E+00 0.  1.
         25    1    1    2    0    0  0.27923232395E+02  0.14249849593E+03 -0.87776083700E+03  0.89842897061E+03  0.12500000000E+03 0.  0.
         25    1    1    2    0    0 -0.10336224103E+03 -0.20204701410E+03 -0.10058338388E+04  0.10386690811E+04  0.12500000000E+03 0.  0.
         25    1    1    2    0    0  0.75439008634E+02  0.59548518172E+02 -0.29615019782E+03  0.33551007393E+03  0.12500000000E+03 0.  0.
</event>
<event>
 5    0  0.5660959E-005  0.3138108E+03  0.7546771E-02  0.1078534E+00
         21   -1    0    0  502  501  0.00000000000E+00  0.00000000000E+00  0.87735536699E+02  0.87735536699E+02  0.00000000000E+00 0. -1.
         21   -1    0    0  501  502 -0.00000000000E+00 -0.00000000000E+00 -0.11224322400E+04  0.11224322400E+04  0.00000000000E+00 0. -1.
         25    1    1    2    0    0 -0.10666247343E+02  0.10683749731E+02 -0.36653244688E+03  0.38755508765E+03  0.12500000000E+03 0.  0.
         25    1    1    2    0    0  0.18590783266E+03 -0.74474769576E+02 -0.45712660221E+03  0.51448804067E+03  0.12500000000E+03 0.  0.
         25    1    1    2    0    0 -0.17524158532E+03  0.63791019845E+02 -0.21103765417E+03  0.30812464834E+03  0.12500000000E+03 0.  0.
</event>
<event>
 5    0  0.5660959E-005  0.2961826E+03  0.7546771E-02  0.1087165E+00
         21   -1    0    0  502  501  0.00000000000E+00  0.00000000000E+00  0.12717358699E+04  0.12717358699E+04  0.00000000000E+00 0. -1.
         21   -1    0    0  501  502 -0.00000000000E+00 -0.00000000000E+00 -0.68979826553E+02  0.68979826553E+02  0.00000000000E+00 0. -1.
         25    1    1    2    0    0 -0.74269174876E+02  0.82278755807E+02  0.39864040925E+03  0.43223243733E+03  0.12500000000E+03 0.  0.
         25    1    1    2    0    0  0.20005121742E+02  0.53996187155E+02  0.64218083420E+03  0.65676252705E+03  0.12500000000E+03 0.  0.
         25    1    1    2    0    0  0.54264053134E+02 -0.13627494296E+03  0.16193479993E+03  0.25172073210E+03  0.12500000000E+03 0.  0.
</event>
<event>
 5    0  0.5660959E-005  0.3136173E+03  0.7546771E-02  0.1078625E+00
         21   -1    0    0  502  501  0.00000000000E+00  0.00000000000E+00  0.85721639828E+03  0.85721639828E+03  0.00000000000E+00 0. -1.
         21   -1    0    0  501  502 -0.00000000000E+00 -0.00000000000E+00 -0.11473860045E+03  0.11473860045E+03  0.00000000000E+00 0. -1.
         25    1    1    2    0    0 -0.10132593566E+02  0.56428480317E+02  0.23684092966E+03  0.27387126319E+03  0.12500000000E+03 0.  0.
         25    1    1    2    0    0  0.14230150486E+03 -0.42033154803E+02  0.40177685858E+02  0.19813064082E+03  0.12500000000E+03 0.  0.
         25    1    1    2    0    0 -0.13216891130E+03 -0.14395325514E+02  0.46545918232E+03  0.49995309472E+03  0.12500000000E+03 0.  0.
</event>
<event>
 5    0  0.5660959E-005  0.4032297E+03  0.7546771E-02  0.1042667E+00
         21   -1    0    0  502  501  0.00000000000E+00  0.00000000000E+00  0.48757543819E+02  0.48757543819E+02  0.00000000000E+00 0.  1.
         21   -1    0    0  501  502 -0.00000000000E+00 -0.00000000000E+00 -0.33347496330E+04  0.33347496330E+04  0.00000000000E+00 0.  1.
         25    1    1    2    0    0  0.20295995714E+03  0.60036520195E+01 -0.71382334053E+03  0.75259388088E+03  0.12500000000E+03 0.  0.
         25    1    1    2    0    0  0.12472925715E+03 -0.58378475708E+02 -0.11649240391E+04  0.11796772656E+04  0.12500000000E+03 0.  0.
         25    1    1    2    0    0 -0.32768921429E+03  0.52374823689E+02 -0.14072447095E+04  0.14512360304E+04  0.12500000000E+03 0.  0.
</event>
<event>
 5    0  0.5985938E-005  0.2424238E+03  0.7546771E-02  0.1118189E+00
         21   -1    0    0  502  501  0.00000000000E+00  0.00000000000E+00  0.16119496971E+03  0.16119496971E+03  0.00000000000E+00 0. -1.
         21   -1    0    0  501  502 -0.00000000000E+00 -0.00000000000E+00 -0.36458525937E+03  0.36458525937E+03  0.00000000000E+00 0. -1.
         25    1    1    2    0    0 -0.78217100063E+02 -0.31559782308E+02  0.39501704407E+02  0.15588238917E+03  0.12500000000E+03 0.  0.
         25    1    1    2    0    0  0.12228114346E+02  0.17831650948E+02 -0.65829652176E+02  0.14291968955E+03  0.12500000000E+03 0.  0.
         25    1    1    2    0    0  0.65988985716E+02  0.13728131360E+02 -0.17706234189E+03  0.22697815036E+03  0.12500000000E+03 0.  0.
</event>
<event>
 5    0  0.5660959E-005  0.2816911E+03  0.7546771E-02  0.1094769E+00
         21   -1    0    0  502  501  0.00000000000E+00  0.00000000000E+00  0.10607312384E+04  0.10607312384E+04  0.00000000000E+00 0.  1.
         21   -1    0    0  501  502 -0.00000000000E+00 -0.00000000000E+00 -0.74806763179E+02  0.74806763179E+02  0.00000000000E+00 0.  1.
         25    1    1    2    0    0  0.96945858139E+02  0.96315376029E+02  0.31742585107E+03  0.36750417957E+03  0.12500000000E+03 0.  0.
         25    1    1    2    0    0 -0.11191890411E+03 -0.12259488822E+03  0.56799764906E+03  0.60481540742E+03  0.12500000000E+03 0.  0.
         25    1    1    2    0    0  0.14973045972E+02  0.26279512192E+02  0.10050097508E+03  0.16321841458E+03  0.12500000000E+03 0.  0.
</event>
<event>
 5    0  0.5660959E-005  0.2707435E+03  0.7546771E-02  0.1100855E+00
         21   -1    0    0  502  501  0.00000000000E+00  0.00000000000E+00  0.40649816351E+02  0.40649816351E+02  0.00000000000E+00 0. -1.
         21   -1    0    0  501  502 -0.00000000000E+00 -0.00000000000E+00 -0.18032561959E+04  0.18032561959E+04  0.00000000000E+00 0. -1.
         25    1    1    2    0    0  0.12531269547E+03 -0.17606347437E+02 -0.10657204694E+04  0.10804621113E+04  0.12500000000E+03 0.  0.
         25    1    1    2    0    0  0.39508034725E+01 -0.60287862638E+01 -0.35497042123E+03  0.37640530690E+03  0.12500000000E+03 0.  0.
         25    1    1    2    0    0 -0.12926349894E+03  0.23635133701E+02 -0.34191548891E+03  0.38703859402E+03  0.12500000000E+03 0.  0.
</event>
<event>
 5    0  0.5880627E-005  0.2433807E+03  0.7546771E-02  0.1117561E+00
         21   -1    0    0  502  501  0.00000000000E+00  0.00000000000E+00  0.44964795512E+03  0.44964795512E+03  0.00000000000E+00 0. -1.
         21   -1    0    0  501  502 -0.00000000000E+00 -0.00000000000E+00 -0.13173455739E+03  0.13173455739E+03  0.00000000000E+00 0. -1.
         25    1    1    2    0    0 -0.20447656974E+02  0.49158501056E+02  0.19820770945E+03  0.24030389299E+03  0.12500000000E+03 0.  0.
         25    1    1    2    0    0 -0.34226872517E+01 -0.11393070366E+03  0.28251322887E+02  0.17150818426E+03  0.12500000000E+03 0.  0.
         25    1    1    2    0    0  0.23870344226E+02  0.64772202600E+02  0.91454365387E+02  0.16957043525E+03  0.12500000000E+03 0.  0.
</event>
<event>
 5    0  0.5660959E-005  0.6076786E+03  0.7546771E-02  0.9889602E-01
         21   -1    0    0  502  501  0.00000000000E+00  0.00000000000E+00  0.80752875736E+03  0.80752875736E+03  0.00000000000E+00 0.  1.
         21   -1    0    0  501  502 -0.00000000000E+00 -0.00000000000E+00 -0.45728803729E+03  0.45728803729E+03  0.00000000000E+00 0.  1.
         25    1    1    2    0    0 -0.16909568017E+03 -0.17329450527E+03  0.13142414558E+03  0.30252543802E+03  0.12500000000E+03 0.  0.
         25    1    1    2    0    0  0.31029395996E+03  0.36623226925E+03 -0.13809728153E+03  0.51488277870E+03  0.12500000000E+03 0.  0.
         25    1    1    2    0    0 -0.14119827980E+03 -0.19293776398E+03  0.35691385602E+03  0.44740857793E+03  0.12500000000E+03 0.  0.
</event>
<event>
 5    0  0.7183723E-005  0.3042182E+03  0.7546771E-02  0.1083151E+00
         21   -1    0    0  502  501  0.00000000000E+00  0.00000000000E+00  0.25698247542E+03  0.25698247542E+03  0.00000000000E+00 0.  1.
         21   -1    0    0  501  502 -0.00000000000E+00 -0.00000000000E+00 -0.36013636342E+03  0.36013636342E+03  0.00000000000E+00 0.  1.
         25    1    1    2    0    0  0.27820800893E+02 -0.10862268288E+03 -0.23368089838E+03  0.28775796508E+03  0.12500000000E+03 0.  0.
         25    1    1    2    0    0 -0.61198315480E+02  0.47324444971E+02  0.19713067603E+02  0.14831871744E+03  0.12500000000E+03 0.  0.
         25    1    1    2    0    0  0.33377514587E+02  0.61298237909E+02  0.11081394278E+03  0.18104215632E+03  0.12500000000E+03 0.  0.
</event>
<event>
 5    0  0.5660959E-005  0.2503899E+03  0.7546771E-02  0.1113059E+00
         21   -1    0    0  502  501  0.00000000000E+00  0.00000000000E+00  0.46970838430E+03  0.46970838430E+03  0.00000000000E+00 0.  1.
         21   -1    0    0  501  502 -0.00000000000E+00 -0.00000000000E+00 -0.13347667622E+03  0.13347667622E+03  0.00000000000E+00 0.  1.
         25    1    1    2    0    0 -0.77808553626E+00  0.45572584450E+02  0.33009082214E+02  0.13708415437E+03  0.12500000000E+03 0.  0.
         25    1    1    2    0    0  0.62667112063E+02 -0.35403299177E+02  0.14098190651E+02  0.14492867041E+03  0.12500000000E+03 0.  0.
         25    1    1    2    0    0 -0.61889026526E+02 -0.10169285272E+02  0.28912443522E+03  0.32117223574E+03  0.12500000000E+03 0.  0.
</event>
<event>
 5    0  0.5660959E-005  0.2855378E+03  0.7546771E-02  0.1092702E+00
         21   -1    0    0  502  501  0.00000000000E+00  0.00000000000E+00  0.98414286544E+03  0.98414286544E+03  0.00000000000E+00 0.  1.
         21   -1    0    0  501  502 -0.00000000000E+00 -0.00000000000E+00 -0.82845504831E+02  0.82845504831E+02  0.00000000000E+00 0.  1.
         25    1    1    2    0    0  0.73006142213E+02  0.33093317427E+02  0.34640590256E+03  0.37689138195E+03  0.12500000000E+03 0.  0.
         25    1    1    2    0    0 -0.18829015874E+03  0.31880789928E+02  0.30779566164E+03  0.38318760153E+03  0.12500000000E+03 0.  0.
         25    1    1    2    0    0  0.11528401653E+03 -0.64974107355E+02  0.24709579641E+03  0.30690938679E+03  0.12500000000E+03 0.  0.
</event>
<event>
 5    0  0.5660959E-005  0.4670954E+03  0.7546771E-02  0.1022743E+00
         21   -1    0    0  502  501  0.00000000000E+00  0.00000000000E+00  0.12913425839E+04  0.12913425839E+04  0.00000000000E+00 0.  1.
         21   -1    0    0  501  502 -0.00000000000E+00 -0.00000000000E+00 -0.16895445481E+03  0.16895445481E+03  0.00000000000E+00 0.  1.
         25    1    1    2    0    0 -0.98886936449E+01  0.30862320486E+03  0.63012785317E+03  0.71276376183E+03  0.12500000000E+03 0.  0.
         25    1    1    2    0    0 -0.68686356679E+02 -0.25005701142E+03  0.69821503059E+02  0.29622013240E+03  0.12500000000E+03 0.  0.
         25    1    1    2    0    0  0.78575050324E+02 -0.58566193447E+02  0.42243877285E+03  0.45131314445E+03  0.12500000000E+03 0.  0.
</event>
<event>
 5    0  0.5660959E-005  0.3159098E+03  0.7546771E-02  0.1077547E+00
         21   -1    0    0  502  501  0.00000000000E+00  0.00000000000E+00  0.93478196440E+03  0.93478196440E+03  0.00000000000E+00 0. -1.
         21   -1    0    0  501  502 -0.00000000000E+00 -0.00000000000E+00 -0.10676179065E+03  0.10676179065E+03  0.00000000000E+00 0. -1.
         25    1    1    2    0    0 -0.16923905527E+02  0.68592948913E+02  0.42075980310E+03  0.44458432622E+03  0.12500000000E+03 0.  0.
         25    1    1    2    0    0 -0.67435784873E+02 -0.16430309054E+03  0.34527019729E+03  0.40789655524E+03  0.12500000000E+03 0.  0.
         25    1    1    2    0    0  0.84359690400E+02  0.95710141631E+02  0.61990173357E+02  0.18906287359E+03  0.12500000000E+03 0.  0.
</event>
<event>
 5    0  0.5660959E-005  0.3158920E+03  0.7546771E-02  0.1077556E+00
         21   -1    0    0  502  501  0.00000000000E+00  0.00000000000E+00  0.15488638855E+03  0.15488638855E+03  0.00000000000E+00 0.  1.
         21   -1    0    0  501  502 -0.00000000000E+00 -0.00000000000E+00 -0.64426428563E+03  0.64426428563E+03  0.00000000000E+00 0.  1.
         25    1    1    2    0    0  0.64764369409E+02  0.11193377485E+03 -0.15496436921E+02  0.18052349723E+03  0.12500000000E+03 0.  0.
         25    1    1    2    0    0 -0.87247899724E+02 -0.14437245947E+03 -0.43316635502E+03  0.48136648635E+03  0.12500000000E+03 0.  0.
         25    1    1    2    0    0  0.22483530315E+02  0.32438684626E+02 -0.40715105139E+02  0.13726069059E+03  0.12500000000E+03 0.  0.
</event>
<event>
 5    0  0.5660959E-005  0.2244642E+03  0.7546771E-02  0.1130598E+00
         21   -1    0    0  502  501  0.00000000000E+00  0.00000000000E+00  0.29512241748E+03  0.29512241748E+03  0.00000000000E+00 0.  1.
         21   -1    0    0  501  502 -0.00000000000E+00 -0.00000000000E+00 -0.17072295649E+03  0.17072295649E+03  0.00000000000E+00 0.  1.
         25    1    1    2    0    0 -0.75130849091E+02 -0.58016685741E+02  0.10383990692E+02  0.15730037372E+03  0.12500000000E+03 0.  0.
         25    1    1    2    0    0  0.31751891429E+02  0.20516009797E+02  0.10868515168E+01  0.13059582885E+03  0.12500000000E+03 0.  0.
         25    1    1    2    0    0  0.43378957662E+02  0.37500675943E+02  0.11292861878E+03  0.17794917140E+03  0.12500000000E+03 0.  0.
</event>
<event>
 5    0  0.5660959E-005  0.3318965E+03  0.7546771E-02  0.1070301E+00
         21   -1    0    0  502  501  0.00000000000E+00  0.00000000000E+00  0.77494851032E+03  0.77494851032E+03  0.00000000000E+00 0. -1.
         21   -1    0    0  501  502 -0.00000000000E+00 -0.00000000000E+00 -0.14214533680E+03  0.14214533680E+03  0.00000000000E+00 0. -1.
         25    1    1    2    0    0 -0.89799909768E+02  0.25093735262E+03  0.31319779327E+03  0.42982721696E+03  0.12500000000E+03 0.  0.
         25    1    1    2    0    0  0.53283319729E+02 -0.13536386635E+03  0.14280130321E+03  0.23912277322E+03  0.12500000000E+03 0.  0.
         25    1    1    2    0    0  0.36516590039E+02 -0.11557348627E+03  0.17680407705E+03  0.24814385694E+03  0.12500000000E+03 0.  0.
</event>
<event>
 5    0  0.6798580E-005  0.3321135E+03  0.7546771E-02  0.1070206E+00
         21   -1    0    0  502  501  0.00000000000E+00  0.00000000000E+00  0.34391421764E+03  0.34391421764E+03  0.00000000000E+00 0.  1.
         21   -1    0    0  501  502 -0.00000000000E+00 -0.00000000000E+00 -0.32071765169E+03  0.32071765169E+03  0.00000000000E+00 0.  1.
         25    1    1    2    0    0 -0.93985139833E+01 -0.62996828504E+02  0.12715110375E+03  0.18933920791E+03  0.12500000000E+03 0.  0.
         25    1    1    2    0    0  0.76367843342E+02  0.20067487849E+03  0.71565231746E+01  0.24855315363E+03  0.12500000000E+03 0.  0.
         25    1    1    2    0    0 -0.66969329359E+02 -0.13767804999E+03 -0.11111106097E+03  0.22673950779E+03  0.12500000000E+03 0.  0.
</event>
<event>
 5    0  0.5660959E-005  0.2291643E+03  0.7546771E-02  0.1127229E+00
         21   -1    0    0  502  501  0.00000000000E+00  0.00000000000E+00  0.23063284707E+03  0.23063284707E+03  0.00000000000E+00 0.  1.
         21   -1    0    0  501  502 -0.00000000000E+00 -0.00000000000E+00 -0.22770504880E+03  0.22770504880E+03  0.00000000000E+00 0.  1.
         25    1    1    2    0    0  0.63314826131E+01  0.23909552586E+02  0.23035403265E+02  0.12948893459E+03  0.12500000000E+03 0.  0.
         25    1    1    2    0    0 -0.15414120207E+02  0.64087816942E+02 -0.82335585531E+02  0.16355119085E+03  0.12500000000E+03 0.  0.
         25    1    1    2    0    0  0.90826375935E+01 -0.87997369528E+02  0.62227980535E+02  0.16529777044E+03  0.12500000000E+03 0.  0.
</event>
<event>
 5    0  0.5660959E-005  0.2285541E+03  0.7546771E-02  0.1127662E+00
         21   -1    0    0  502  501  0.00000000000E+00  0.00000000000E+00  0.13695215406E+03  0.13695215406E+03  0.00000000000E+00 0. -1.
         21   -1    0    0  501  502 -0.00000000000E+00 -0.00000000000E+00 -0.38142500613E+03  0.38142500613E+03  0.00000000000E+00 0. -1.
         25    1    1    2    0    0  0.39915477955E+02 -0.12093824316E+00 -0.66836945211E+02  0.14725976114E+03  0.12500000000E+03 0.  0.
         25    1    1    2    0    0  0.52396322990E+02  0.44548040833E+02 -0.15025094583E+03  0.20719616147E+03  0.12500000000E+03 0.  0.
         25    1    1    2    0    0 -0.92311800944E+02 -0.44427102590E+02 -0.27384961025E+02  0.16392123758E+03  0.12500000000E+03 0.  0.
</event>
<event>
 5    0  0.5660959E-005  0.2843385E+03  0.7546771E-02  0.1093343E+00
         21   -1    0    0  502  501  0.00000000000E+00  0.00000000000E+00  0.39331301105E+03  0.39331301105E+03  0.00000000000E+00 0.  1.
         21   -1    0    0  501  502 -0.00000000000E+00 -0.00000000000E+00 -0.20555741861E+03  0.20555741861E+03  0.00000000000E+00 0.  1.
         25    1    1    2    0    0  0.66193882037E+02 -0.63189364672E+02 -0.49670612144E+02  0.16268587996E+03  0.12500000000E+03 0.  0.
         25    1    1    2    0    0 -0.12605805046E+02 -0.49995203352E+02 -0.58794005442E+01  0.13534398409E+03  0.12500000000E+03 0.  0.
         25    1    1    2    0    0 -0.53588076991E+02  0.11318456802E+03  0.24330560512E+03  0.30084056561E+03  0.12500000000E+03 0.  0.
</event>
<event>
 5    0  0.5660959E-005  0.2827426E+03  0.7546771E-02  0.1094200E+00
         21   -1    0    0  502  501  0.00000000000E+00  0.00000000000E+00  0.25041243648E+03  0.25041243648E+03  0.00000000000E+00 0. -1.
         21   -1    0    0  501  502 -0.00000000000E+00 -0.00000000000E+00 -0.31924675064E+03  0.31924675064E+03  0.00000000000E+00 0. -1.
         25    1    1    2    0    0 -0.68683867057E+02 -0.34479838420E+02 -0.20699106736E+03  0.25372551078E+03  0.12500000000E+03 0.  0.
         25    1    1    2    0    0  0.15384034438E+02  0.37182928835E+02  0.14379499545E+02  0.13210226614E+03  0.12500000000E+03 0.  0.
         25    1    1    2    0    0  0.53299832619E+02 -0.27030904152E+01  0.12377725365E+03  0.18383141020E+03  0.12500000000E+03 0.  0.
</event>
<event>
 5    0  0.5660959E-005  0.3295987E+03  0.7546771E-02  0.1071315E+00
         21   -1    0    0  502  501  0.00000000000E+00  0.00000000000E+00  0.51918257975E+03  0.51918257975E+03  0.00000000000E+00 0.  1.
         21   -1    0    0  501  502 -0.00000000000E+00 -0.00000000000E+00 -0.20924292535E+03  0.20924292535E+03  0.00000000000E+00 0.  1.
         25    1    1    2    0    0  0.89442357138E+02 -0.12396048279E+03  0.29573293692E+03  0.35559683143E+03  0.12500000000E+03 0.  0.
         25    1    1    2    0    0 -0.27258025263E+02  0.71919836032E+02 -0.10628381473E+03  0.18120902855E+03  0.12500000000E+03 0.  0.
         25    1    1    2    0    0 -0.62184331875E+02  0.52040646757E+02  0.12049053221E+03  0.19161964512E+03  0.12500000000E+03 0.  0.
</event>
<event>
 5    0  0.5660959E-005  0.2288940E+03  0.7546771E-02  0.1127421E+00
         21   -1    0    0  502  501  0.00000000000E+00  0.00000000000E+00  0.17873641120E+03  0.17873641120E+03  0.00000000000E+00 0.  1.
         21   -1    0    0  501  502 -0.00000000000E+00 -0.00000000000E+00 -0.29312696402E+03  0.29312696402E+03  0.00000000000E+00 0.  1.
         25    1    1    2    0    0 -0.10278701750E+02 -0.56243317718E+02 -0.93871427369E+02  0.16645061542E+03  0.12500000000E+03 0.  0.
         25    1    1    2    0    0 -0.48112396036E+02  0.54002055342E+02  0.46897643247E+02  0.15184009212E+03  0.12500000000E+03 0.  0.
         25    1    1    2    0    0  0.58391097786E+02  0.22412623752E+01 -0.67416768697E+02  0.15357266768E+03  0.12500000000E+03 0.  0.
</event>
<event>
 5    0  0.5660959E-005  0.3751491E+03  0.7546771E-02  0.1052741E+00
         21   -1    0    0  502  501  0.00000000000E+00  0.00000000000E+00  0.23887599739E+03  0.23887599739E+03  0.00000000000E+00 0. -1.
         21   -1    0    0  501  502 -0.00000000000E+00 -0.00000000000E+00 -0.58916270287E+03  0.58916270287E+03  0.00000000000E+00 0. -1.
         25    1    1    2    0    0 -0.74705255383E+02 -0.62179199956E+02 -0.24505990442E+03  0.29176443382E+03  0.12500000000E+03 0.  0.
         25    1    1    2    0    0  0.21141781057E+03  0.10156305343E+03 -0.19208272504E+03  0.32792273131E+03  0.12500000000E+03 0.  0.
         25    1    1    2    0    0 -0.13671255519E+03 -0.39383853475E+02  0.86855923981E+02  0.20835153513E+03  0.12500000000E+03 0.  0.
</event>
<event>
 5    0  0.5660959E-005  0.3400735E+03  0.7546771E-02  0.1066765E+00
         21   -1    0    0  502  501  0.00000000000E+00  0.00000000000E+00  0.54354320870E+03  0.54354320870E+03  0.00000000000E+00 0.  1.
         21   -1    0    0  501  502 -0.00000000000E+00 -0.00000000000E+00 -0.21277050980E+03  0.21277050980E+03  0.00000000000E+00 0.  1.
         25    1    1    2    0    0  0.49720097583E+02  0.61670131911E+02  0.40339072284E+03  0.42967937878E+03  0.12500000000E+03 0.  0.
         25    1    1    2    0    0  0.56298975337E+02 -0.65905715295E+02 -0.15022712224E+02  0.15285228103E+03  0.12500000000E+03 0.  0.
         25    1    1    2    0    0 -0.10601907292E+03  0.42355833846E+01 -0.57595311728E+02  0.17378205869E+03  0.12500000000E+03 0.  0.
</event>
<event>
 5    0  0.5660959E-005  0.2532526E+03  0.7546771E-02  0.1111266E+00
         21   -1    0    0  502  501  0.00000000000E+00  0.00000000000E+00  0.45216577655E+03  0.45216577655E+03  0.00000000000E+00 0.  1.
         21   -1    0    0  501  502 -0.00000000000E+00 -0.00000000000E+00 -0.14184376731E+03  0.14184376731E+03  0.00000000000E+00 0.  1.
         25    1    1    2    0    0  0.68214385661E+02 -0.74657138534E+02  0.12985936075E+02  0.16130878860E+03  0.12500000000E+03 0.  0.
         25    1    1    2    0    0 -0.83778900797E+02  0.44801377763E+02  0.71783656687E+02  0.17263823747E+03  0.12500000000E+03 0.  0.
         25    1    1    2    0    0  0.15564515136E+02  0.29855760771E+02  0.22555241647E+03  0.26006251779E+03  0.12500000000E+03 0.  0.
</event>
<event>
 5    0  0.5660959E-005  0.2653487E+03  0.7546771E-02  0.1103972E+00
         21   -1    0    0  502  501  0.00000000000E+00  0.00000000000E+00  0.16047954083E+03  0.16047954083E+03  0.00000000000E+00 0.  1.
         21   -1    0    0  501  502 -0.00000000000E+00 -0.00000000000E+00 -0.43874712410E+03  0.43874712410E+03  0.00000000000E+00 0.  1.
         25    1    1    2    0    0 -0.34759664549E+02  0.12206010987E+02 -0.52509760921E+02  0.14049731661E+03  0.12500000000E+03 0.  0.
         25    1    1    2    0    0 -0.40595896293E+02  0.71174547572E+02 -0.24760800598E+03  0.28922062106E+03  0.12500000000E+03 0.  0.
         25    1    1    2    0    0  0.75355560842E+02 -0.83380558559E+02  0.21850183629E+02  0.16950872727E+03  0.12500000000E+03 0.  0.
</event>
<event>
 5    0  0.5660959E-005  0.2435108E+03  0.7546771E-02  0.1117476E+00
         21   -1    0    0  502  501  0.00000000000E+00  0.00000000000E+00  0.30126323165E+03  0.30126323165E+03  0.00000000000E+00 0. -1.
         21   -1    0    0  501  502 -0.00000000000E+00 -0.00000000000E+00 -0.19682957630E+03  0.19682957630E+03  0.00000000000E+00 0. -1.
         25    1    1    2    0    0 -0.25127243078E+01 -0.25726944626E+01  0.32283574755E+02  0.12915170049E+03  0.12500000000E+03 0.  0.
         25    1    1    2    0    0 -0.11058533121E+03  0.16863390251E+02  0.10318741328E+03  0.19694195000E+03  0.12500000000E+03 0.  0.
         25    1    1    2    0    0  0.11309805552E+03 -0.14290695788E+02 -0.31037332691E+02  0.17199915746E+03  0.12500000000E+03 0.  0.
</event>
<event>
 5    0  0.5660959E-005  0.4713306E+03  0.7546771E-02  0.1021545E+00
         21   -1    0    0  502  501  0.00000000000E+00  0.00000000000E+00  0.21248871816E+04  0.21248871816E+04  0.00000000000E+00 0. -1.
         21   -1    0    0  501  502 -0.00000000000E+00 -0.00000000000E+00 -0.10454791257E+03  0.10454791257E+03  0.00000000000E+00 0. -1.
         25    1    1    2    0    0 -0.27291566346E+02  0.30769017648E+03  0.55334998522E+03  0.64594061681E+03  0.12500000000E+03 0.  0.
         25    1    1    2    0    0  0.18744757966E+02 -0.40192464427E+03  0.87589173129E+03  0.97195993259E+03  0.12500000000E+03 0.  0.
         25    1    1    2    0    0  0.85468083797E+01  0.94234467790E+02  0.59109755247E+03  0.61153454472E+03  0.12500000000E+03 0.  0.
</event>
<event>
 5    0  0.5660959E-005  0.3464472E+03  0.7546771E-02  0.1064083E+00
         21   -1    0    0  502  501  0.00000000000E+00  0.00000000000E+00  0.25879303761E+04  0.25879303761E+04  0.00000000000E+00 0.  1.
         21   -1    0    0  501  502 -0.00000000000E+00 -0.00000000000E+00 -0.46379005700E+02  0.46379005700E+02  0.00000000000E+00 0.  1.
         25    1    1    2    0    0  0.73539888541E+02  0.53077055410E+02  0.26718426337E+03  0.30860609133E+03  0.12500000000E+03 0.  0.
         25    1    1    2    0    0 -0.53145421240E+02  0.28382464624E+02  0.18673839677E+03  0.23265044364E+03  0.12500000000E+03 0.  0.
         25    1    1    2    0    0 -0.20394467301E+02 -0.81459520034E+02  0.20876287103E+04  0.20930528469E+04  0.12500000000E+03 0.  0.
</event>
<event>
 5    0  0.5660959E-005  0.2720228E+03  0.7546771E-02  0.1100127E+00
         21   -1    0    0  502  501  0.00000000000E+00  0.00000000000E+00  0.21708357966E+03  0.21708357966E+03  0.00000000000E+00 0. -1.
         21   -1    0    0  501  502 -0.00000000000E+00 -0.00000000000E+00 -0.34086602204E+03  0.34086602204E+03  0.00000000000E+00 0. -1.
         25    1    1    2    0    0 -0.39963498642E+02 -0.22006772371E+01 -0.17513326325E+03  0.21885745155E+03  0.12500000000E+03 0.  0.
         25    1    1    2    0    0  0.72804013473E+02 -0.53598677129E+02  0.10697470306E+03  0.18772807372E+03  0.12500000000E+03 0.  0.
         25    1    1    2    0    0 -0.32840514831E+02  0.55799354366E+02 -0.55623882189E+02  0.15136407642E+03  0.12500000000E+03 0.  0.
</event>
<event>
 5    0  0.5660959E-005  0.3416934E+03  0.7546771E-02  0.1066077E+00
         21   -1    0    0  502  501  0.00000000000E+00  0.00000000000E+00  0.51870185947E+03  0.51870185947E+03  0.00000000000E+00 0.  1.
         21   -1    0    0  501  502 -0.00000000000E+00 -0.00000000000E+00 -0.22508952957E+03  0.22508952957E+03  0.00000000000E+00 0.  1.
         25    1    1    2    0    0  0.11008588131E+02 -0.16967671347E+02 -0.15871298143E+03  0.20303669953E+03  0.12500000000E+03 0.  0.
         25    1    1    2    0    0  0.69726590335E+02 -0.15320636640E+02  0.21206672200E+03  0.25630804491E+03  0.12500000000E+03 0.  0.
         25    1    1    2    0    0 -0.80735178467E+02  0.32288307987E+02  0.24025858933E+03  0.28444664460E+03  0.12500000000E+03 0.  0.
</event>
<event>
 5    0  0.5660959E-005  0.4115122E+03  0.7546771E-02  0.1039865E+00
         21   -1    0    0  502  501  0.00000000000E+00  0.00000000000E+00  0.10444471034E+04  0.10444471034E+04  0.00000000000E+00 0.  1.
         21   -1    0    0  501  502 -0.00000000000E+00 -0.00000000000E+00 -0.16213579901E+03  0.16213579901E+03  0.00000000000E+00 0.  1.
         25    1    1    2    0    0  0.52294397810E+01  0.24892534166E+03  0.22014318640E+03  0.35507632318E+03  0.12500000000E+03 0.  0.
         25    1    1    2    0    0  0.14452785382E+03  0.15648957927E+02  0.34518557127E+03  0.39485601050E+03  0.12500000000E+03 0.  0.
         25    1    1    2    0    0 -0.14975729360E+03 -0.26457429959E+03  0.31698254668E+03  0.45665056869E+03  0.12500000000E+03 0.  0.
</event>
<event>
 5    0  0.5660959E-005  0.2005972E+03  0.7546771E-02  0.1149236E+00
         21   -1    0    0  502  501  0.00000000000E+00  0.00000000000E+00  0.18889245876E+03  0.18889245876E+03  0.00000000000E+00 0. -1.
         21   -1    0    0  501  502 -0.00000000000E+00 -0.00000000000E+00 -0.21302713918E+03  0.21302713918E+03  0.00000000000E+00 0. -1.
         25    1    1    2    0    0  0.49712440383E+02 -0.38481516523E+02 -0.22175471752E+02  0.14166476411E+03  0.12500000000E+03 0.  0.
         25    1    1    2    0    0 -0.27978060909E+02  0.33294352850E+02  0.99115472875E+01  0.13271972195E+03  0.12500000000E+03 0.  0.
         25    1    1    2    0    0 -0.21734379474E+02  0.51871636727E+01 -0.11870755957E+02  0.12753511189E+03  0.12500000000E+03 0.  0.
</event>
<event>
 5    0  0.5660959E-005  0.2694148E+03  0.7546771E-02  0.1101615E+00
         21   -1    0    0  502  501  0.00000000000E+00  0.00000000000E+00  0.29675097650E+03  0.29675097650E+03  0.00000000000E+00 0.  1.
         21   -1    0    0  501  502 -0.00000000000E+00 -0.00000000000E+00 -0.24459670194E+03  0.24459670194E+03  0.00000000000E+00 0.  1.
         25    1    1    2    0    0  0.47179637451E+02  0.78589961074E+02 -0.14498759678E+02  0.15568402039E+03  0.12500000000E+03 0.  0.
         25    1    1    2    0    0  0.91260373129E+02 -0.77608434040E+01  0.98501479771E+02  0.18361979172E+03  0.12500000000E+03 0.  0.
         25    1    1    2    0    0 -0.13844001058E+03 -0.70829117670E+02 -0.31848445527E+02  0.20204386633E+03  0.12500000000E+03 0.  0.
</event>
<event>
 5    0  0.5660959E-005  0.3126595E+03  0.7546771E-02  0.1079078E+00
         21   -1    0    0  502  501  0.00000000000E+00  0.00000000000E+00  0.21211211195E+03  0.21211211195E+03  0.00000000000E+00 0. -1.
         21   -1    0    0  501  502 -0.00000000000E+00 -0.00000000000E+00 -0.46086926103E+03  0.46086926103E+03  0.00000000000E+00 0. -1.
         25    1    1    2    0    0 -0.28030081330E+02  0.75219651559E+02 -0.29380627284E+03  0.32922759210E+03  0.12500000000E+03 0.  0.
         25    1    1    2    0    0 -0.31268191155E+02 -0.11784146010E+03 -0.35355678369E+02  0.17815536335E+03  0.12500000000E+03 0.  0.
         25    1    1    2    0    0  0.59298272485E+02  0.42621808540E+02  0.80404802136E+02  0.16559841753E+03  0.12500000000E+03 0.  0.
</event>
<event>
 5    0  0.5660959E-005  0.3060022E+03  0.7546771E-02  0.1082278E+00
         21   -1    0    0  502  501  0.00000000000E+00  0.00000000000E+00  0.44594437482E+03  0.44594437482E+03  0.00000000000E+00 0. -1.
         21   -1    0    0  501  502 -0.00000000000E+00 -0.00000000000E+00 -0.20997535397E+03  0.20997535397E+03  0.00000000000E+00 0. -1.
         25    1    1    2    0    0 -0.96886159767E+02 -0.18292193263E+03  0.95168219608E+01  0.24199779192E+03  0.12500000000E+03 0.  0.
         25    1    1    2    0    0  0.83018556065E+02  0.95682432687E+02  0.18196444115E+03  0.25452557125E+03  0.12500000000E+03 0.  0.
         25    1    1    2    0    0  0.13867603702E+02  0.87239499947E+02  0.44487757739E+02  0.15939636562E+03  0.12500000000E+03 0.  0.
</event>
<event>
 5    0  0.6331505E-005  0.3023280E+03  0.7546771E-02  0.1084083E+00
         21   -1    0    0  502  501  0.00000000000E+00  0.00000000000E+00  0.13900593560E+03  0.13900593560E+03  0.00000000000E+00 0.  1.
         21   -1    0    0  501  502 -0.00000000000E+00 -0.00000000000E+00 -0.65754169208E+03  0.65754169208E+03  0.00000000000E+00 0.  1.
         25    1    1    2    0    0  0.80120099033E+02 -0.72987413401E+02 -0.23484470159E+03  0.28726890999E+03  0.12500000000E+03 0.  0.
         25    1    1    2    0    0  0.11686714834E+03  0.79143991923E+02 -0.14448001249E+03  0.23753142071E+03  0.12500000000E+03 0.  0.
         25    1    1    2    0    0 -0.19698724737E+03 -0.61565785211E+01 -0.13921104241E+03  0.27174729698E+03  0.12500000000E+03 0.  0.
</event>
<event>
 5    0  0.5660959E-005  0.2205637E+03  0.7546771E-02  0.1133464E+00
         21   -1    0    0  502  501  0.00000000000E+00  0.00000000000E+00  0.83206960493E+03  0.83206960493E+03  0.00000000000E+00 0. -1.
         21   -1    0    0  501  502 -0.00000000000E+00 -0.00000000000E+00 -0.58466668442E+02  0.58466668442E+02  0.00000000000E+00 0. -1.
         25    1    1    2    0    0 -0.49517065756E+02  0.50010151913E+02  0.41676381087E+03  0.44076073912E+03  0.12500000000E+03 0.  0.
         25    1    1    2    0    0  0.21582138495E+02 -0.65991250233E+02  0.16221579275E+03  0.21623967542E+03  0.12500000000E+03 0.  0.
         25    1    1    2    0    0  0.27934927261E+02  0.15981098320E+02  0.19462333288E+03  0.23353585884E+03  0.12500000000E+03 0.  0.
</event>
<event>
 5    0  0.5660959E-005  0.3273190E+03  0.7546771E-02  0.1072329E+00
         21   -1    0    0  502  501  0.00000000000E+00  0.00000000000E+00  0.77107472680E+03  0.77107472680E+03  0.00000000000E+00 0. -1.
         21   -1    0    0  501  502 -0.00000000000E+00 -0.00000000000E+00 -0.13894598138E+03  0.13894598138E+03  0.00000000000E+00 0. -1.
         25    1    1    2    0    0  0.21453835759E+03  0.22343351865E+02  0.23533204762E+03  0.34282955661E+03  0.12500000000E+03 0.  0.
         25    1    1    2    0    0 -0.20310379140E+03 -0.98901703887E+02  0.25819482227E+03  0.36513321317E+03  0.12500000000E+03 0.  0.
         25    1    1    2    0    0 -0.11434566189E+02  0.76558352022E+02  0.13860187554E+03  0.20205793840E+03  0.12500000000E+03 0.  0.
</event>
<event>
 5    0  0.5660959E-005  0.4303968E+03  0.7546771E-02  0.1033735E+00
         21   -1    0    0  502  501  0.00000000000E+00  0.00000000000E+00  0.76480100755E+03  0.76480100755E+03  0.00000000000E+00 0. -1.
         21   -1    0    0  501  502 -0.00000000000E+00 -0.00000000000E+00 -0.24220863814E+03  0.24220863814E+03  0.00000000000E+00 0. -1.
         25    1    1    2    0    0  0.24699996275E+03  0.16735496234E+03  0.21745454404E+03  0.38977960919E+03  0.12500000000E+03 0.  0.
         25    1    1    2    0    0 -0.16995462390E+03  0.24232007299E+02  0.31004121861E+03  0.37579558486E+03  0.12500000000E+03 0.  0.
         25    1    1    2    0    0 -0.77045338844E+02 -0.19158696964E+03 -0.49033932363E+01  0.24143445164E+03  0.12500000000E+03 0.  0.
</event>
<event>
 5    0  0.5660959E-005  0.3015871E+03  0.7546771E-02  0.1084450E+00
         21   -1    0    0  502  501  0.00000000000E+00  0.00000000000E+00  0.17278729537E+03  0.17278729537E+03  0.00000000000E+00 0.  1.
         21   -1    0    0  501  502 -0.00000000000E+00 -0.00000000000E+00 -0.52639745586E+03  0.52639745586E+03  0.00000000000E+00 0.  1.
         25    1    1    2    0    0 -0.43294559666E+02 -0.99633781340E+02 -0.27809989140E+03  0.32367554569E+03  0.12500000000E+03 0.  0.
         25    1    1    2    0    0 -0.83991953857E+02 -0.14958770049E+02 -0.60370617655E+02  0.16293564555E+03  0.12500000000E+03 0.  0.
         25    1    1    2    0    0  0.12728651352E+03  0.11459255139E+03 -0.15139651434E+02  0.21257355998E+03  0.12500000000E+03 0.  0.
</event>
<event>
 5    0  0.5660959E-005  0.3419786E+03  0.7546771E-02  0.1065956E+00
         21   -1    0    0  502  501  0.00000000000E+00  0.00000000000E+00  0.24532134266E+03  0.24532134266E+03  0.00000000000E+00 0. -1.
         21   -1    0    0  501  502 -0.00000000000E+00 -0.00000000000E+00 -0.47671920793E+03  0.47671920793E+03  0.00000000000E+00 0. -1.
         25    1    1    2    0    0 -0.43390106914E+02 -0.72815408413E+02  0.31310733394E+02  0.15424054949E+03  0.12500000000E+03 0.  0.
         25    1    1    2    0    0  0.22735168673E+03 -0.73881454614E+01 -0.88899461469E+02  0.27435649875E+03  0.12500000000E+03 0.  0.
         25    1    1    2    0    0 -0.18396157982E+03  0.80203553874E+02 -0.17380913719E+03  0.29344350236E+03  0.12500000000E+03 0.  0.
</event>
<event>
 5    0  0.5660959E-005  0.2369108E+03  0.7546771E-02  0.1121868E+00
         21   -1    0    0  502  501  0.00000000000E+00  0.00000000000E+00  0.33368738940E+03  0.33368738940E+03  0.00000000000E+00 0.  1.
         21   -1    0    0  501  502 -0.00000000000E+00 -0.00000000000E+00 -0.16820147828E+03  0.16820147828E+03  0.00000000000E+00 0.  1.
         25    1    1    2    0    0  0.23781107701E+02 -0.27165159862E+02 -0.53877509207E+01  0.13022102309E+03  0.12500000000E+03 0.  0.
         25    1    1    2    0    0  0.12486187853E+02 -0.77501119369E+02  0.24579505756E+02  0.14963783109E+03  0.12500000000E+03 0.  0.
         25    1    1    2    0    0 -0.36267295554E+02  0.10466627923E+03  0.14629415628E+03  0.22203001351E+03  0.12500000000E+03 0.  0.
</event>
<event>
 5    0  0.5660959E-005  0.3182769E+03  0.7546771E-02  0.1076445E+00
         21   -1    0    0  502  501  0.00000000000E+00  0.00000000000E+00  0.62397736924E+03  0.62397736924E+03  0.00000000000E+00 0. -1.
         21   -1    0    0  501  502 -0.00000000000E+00 -0.00000000000E+00 -0.16234588535E+03  0.16234588535E+03  0.00000000000E+00 0. -1.
         25    1    1    2    0    0 -0.13399601939E+03  0.11295667176E+03  0.68390003493E+01  0.21537389543E+03  0.12500000000E+03 0.  0.
         25    1    1    2    0    0  0.79047180575E+02 -0.19478575773E+02  0.33485044066E+03  0.36657562559E+03  0.12500000000E+03 0.  0.
         25    1    1    2    0    0  0.54948838814E+02 -0.93478095990E+02  0.11994204289E+03  0.20437373356E+03  0.12500000000E+03 0.  0.
</event>
<event>
 5    0  0.5660959E-005  0.3053028E+03  0.7546771E-02  0.1082619E+00
         21   -1    0    0  502  501  0.00000000000E+00  0.00000000000E+00  0.92598827164E+03  0.92598827164E+03  0.00000000000E+00 0.  1.
         21   -1    0    0  501  502 -0.00000000000E+00 -0.00000000000E+00 -0.10065983117E+03  0.10065983117E+03  0.00000000000E+00 0.  1.
         25    1    1    2    0    0  0.94935460199E+02 -0.11731279057E+03  0.38851601813E+03  0.43513759753E+03  0.12500000000E+03 0.  0.
         25    1    1    2    0    0  0.69169907716E+02  0.76875732900E+02  0.88826753538E+02  0.18495822930E+03  0.12500000000E+03 0.  0.
         25    1    1    2    0    0 -0.16410536792E+03  0.40437057674E+02  0.34798566880E+03  0.40655227598E+03  0.12500000000E+03 0.  0.
</event>
<event>
 5    0  0.5660959E-005  0.2207554E+03  0.7546771E-02  0.1133321E+00
         21   -1    0    0  502  501  0.00000000000E+00  0.00000000000E+00  0.14832857012E+04  0.14832857012E+04  0.00000000000E+00 0.  1.
         21   -1    0    0  501  502 -0.00000000000E+00 -0.00000000000E+00 -0.32854722787E+02  0.32854722787E+02  0.00000000000E+00 0.  1.
         25    1    1    2    0    0  0.35135128008E+02 -0.24929662074E+02  0.42430792704E+03  0.44443017699E+03  0.12500000000E+03 0.  0.
         25    1    1    2    0    0 -0.77630167323E+02 -0.46806235566E+02  0.61174918382E+03  0.63093528232E+03  0.12500000000E+03 0.  0.
         25    1    1    2    0    0  0.42495039315E+02  0.71735897640E+02  0.41437386752E+03  0.44077496464E+03  0.12500000000E+03 0.  0.
</event>
<event>
 5    0  0.5660959E-005  0.3161546E+03  0.7546771E-02  0.1077433E+00
         21   -1    0    0  502  501  0.00000000000E+00  0.00000000000E+00  0.28303461529E+03  0.28303461529E+03  0.00000000000E+00 0. -1.
         21   -1    0    0  501  502 -0.00000000000E+00 -0.00000000000E+00 -0.35315017161E+03  0.35315017161E+03  0.00000000000E+00 0. -1.
         25    1    1    2    0    0  0.13806559104E+03  0.54569454261E+02 -0.22166028148E+03  0.29461536476E+03  0.12500000000E+03 0.  0.
         25    1    1    2    0    0 -0.10229821025E+03 -0.63114870630E+02  0.65244585653E+02  0.18528428609E+03  0.12500000000E+03 0.  0.
         25    1    1    2    0    0 -0.35767380784E+02  0.85454163691E+01  0.86300139505E+02  0.15628513604E+03  0.12500000000E+03 0.  0.
</event>
<event>
 5    0  0.5660959E-005  0.2268804E+03  0.7546771E-02  0.1128855E+00
         21   -1    0    0  502  501  0.00000000000E+00  0.00000000000E+00  0.13739831433E+03  0.13739831433E+03  0.00000000000E+00 0.  1.
         21   -1    0    0  501  502 -0.00000000000E+00 -0.00000000000E+00 -0.37463858596E+03  0.37463858596E+03  0.00000000000E+00 0.  1.
         25    1    1    2    0    0  0.50883988573E+02 -0.57744921153E+00 -0.10365301918E+03  0.17017186056E+03  0.12500000000E+03 0.  0.
         25    1    1    2    0    0 -0.62372428510E+02  0.43495050432E+02 -0.14837790467E+03  0.20838220136E+03  0.12500000000E+03 0.  0.
         25    1    1    2    0    0  0.11488439936E+02 -0.42917601220E+02  0.14790652225E+02  0.13348283837E+03  0.12500000000E+03 0.  0.
</event>
<event>
 5    0  0.5660959E-005  0.2207497E+03  0.7546771E-02  0.1133325E+00
         21   -1    0    0  502  501  0.00000000000E+00  0.00000000000E+00  0.20488030036E+03  0.20488030036E+03  0.00000000000E+00 0. -1.
         21   -1    0    0  501  502 -0.00000000000E+00 -0.00000000000E+00 -0.23784822285E+03  0.23784822285E+03  0.00000000000E+00 0. -1.
         25    1    1    2    0    0  0.26012305079E+02 -0.91687204043E+01  0.52215322091E+02  0.13824668282E+03  0.12500000000E+03 0.  0.
         25    1    1    2    0    0 -0.13510651934E+02  0.34384682637E+02 -0.11398602389E+03  0.17315501078E+03  0.12500000000E+03 0.  0.
         25    1    1    2    0    0 -0.12501653145E+02 -0.25215962233E+02  0.28802779308E+02  0.13132682962E+03  0.12500000000E+03 0.  0.
</event>
<event>
 5    0  0.5660959E-005  0.2391862E+03  0.7546771E-02  0.1120336E+00
         21   -1    0    0  502  501  0.00000000000E+00  0.00000000000E+00  0.22798865471E+03  0.22798865471E+03  0.00000000000E+00 0. -1.
         21   -1    0    0  501  502 -0.00000000000E+00 -0.00000000000E+00 -0.25093380922E+03  0.25093380922E+03  0.00000000000E+00 0. -1.
         25    1    1    2    0    0 -0.18151366668E+01  0.31665028188E+02 -0.69896728629E+02  0.14668510969E+03  0.12500000000E+03 0.  0.
         25    1    1    2    0    0  0.93467360342E+02  0.74850336426E+01  0.69073296387E+02  0.17084581778E+03  0.12500000000E+03 0.  0.
         25    1    1    2    0    0 -0.91652223675E+02 -0.39150061831E+02 -0.22121722274E+02  0.16139153646E+03  0.12500000000E+03 0.  0.
</event>
<event>
 5    0  0.5660959E-005  0.2679022E+03  0.7546771E-02  0.1102486E+00
         21   -1    0    0  502  501  0.00000000000E+00  0.00000000000E+00  0.11866534168E+03  0.11866534168E+03  0.00000000000E+00 0. -1.
         21   -1    0    0  501  502 -0.00000000000E+00 -0.00000000000E+00 -0.60482348424E+03  0.60482348424E+03  0.00000000000E+00 0. -1.
         25    1    1    2    0    0  0.10825194200E+02  0.19550459431E+02  0.18869209351E+02  0.12837621413E+03  0.12500000000E+03 0.  0.
         25    1    1    2    0    0 -0.37170472497E+02  0.76656959892E+02 -0.20068352154E+03  0.25131018552E+03  0.12500000000E+03 0.  0.
         25    1    1    2    0    0  0.26345278297E+02 -0.96207419323E+02 -0.30434383037E+03  0.34380242627E+03  0.12500000000E+03 0.  0.
</event>
<event>
 5    0  0.5660959E-005  0.4833486E+03  0.7546771E-02  0.1018219E+00
         21   -1    0    0  502  501  0.00000000000E+00  0.00000000000E+00  0.79948924223E+03  0.79948924223E+03  0.00000000000E+00 0.  1.
         21   -1    0    0  501  502 -0.00000000000E+00 -0.00000000000E+00 -0.29221895850E+03  0.29221895850E+03  0.00000000000E+00 0.  1.
         25    1    1    2    0    0 -0.22494325514E+03  0.40307150932E+02  0.40010654094E+03  0.47742473601E+03  0.12500000000E+03 0.  0.
         25    1    1    2    0    0 -0.80641978423E+02  0.39892130980E+01  0.21735169946E+03  0.26341185198E+03  0.12500000000E+03 0.  0.
         25    1    1    2    0    0  0.30558523356E+03 -0.44296364030E+02 -0.11018795667E+03  0.35087161275E+03  0.12500000000E+03 0.  0.
</event>
<event>
 5    0  0.6252348E-005  0.2998324E+03  0.7546771E-02  0.1085324E+00
         21   -1    0    0  502  501  0.00000000000E+00  0.00000000000E+00  0.14340281975E+03  0.14340281975E+03  0.00000000000E+00 0. -1.
         21   -1    0    0  501  502 -0.00000000000E+00 -0.00000000000E+00 -0.62690185635E+03  0.62690185635E+03  0.00000000000E+00 0. -1.
         25    1    1    2    0    0 -0.18107479895E+03  0.94924176488E+02 -0.12367695874E+03  0.26966585290E+03  0.12500000000E+03 0.  0.
         25    1    1    2    0    0  0.78243721342E+02 -0.44747626507E+02 -0.80335487398E+02  0.17379073779E+03  0.12500000000E+03 0.  0.
         25    1    1    2    0    0  0.10283107760E+03 -0.50176549981E+02 -0.27948659046E+03  0.32684808541E+03  0.12500000000E+03 0.  0.
</event>
<event>
 5    0  0.5660959E-005  0.4773356E+03  0.7546771E-02  0.1019870E+00
         21   -1    0    0  502  501  0.00000000000E+00  0.00000000000E+00  0.12522939537E+04  0.12522939537E+04  0.00000000000E+00 0.  1.
         21   -1    0    0  501  502 -0.00000000000E+00 -0.00000000000E+00 -0.18194548527E+03  0.18194548527E+03  0.00000000000E+00 0.  1.
         25    1    1    2    0    0 -0.14360666872E+03 -0.14772032495E+03  0.22447677797E+03  0.32933113055E+03  0.12500000000E+03 0.  0.
         25    1    1    2    0    0  0.38292229972E+03  0.12945413985E+03  0.39365900328E+03  0.57791026363E+03  0.12500000000E+03 0.  0.
         25    1    1    2    0    0 -0.23931563100E+03  0.18266185101E+02  0.45221268723E+03  0.52699804483E+03  0.12500000000E+03 0.  0.
</event>
<event>
 5    0  0.5660959E-005  0.3134595E+03  0.7546771E-02  0.1078699E+00
         21   -1    0    0  502  501  0.00000000000E+00  0.00000000000E+00  0.13131833532E+04  0.13131833532E+04  0.00000000000E+00 0.  1.
         21   -1    0    0  501  502 -0.00000000000E+00 -0.00000000000E+00 -0.74823405457E+02  0.74823405457E+02  0.00000000000E+00 0.  1.
         25    1    1    2    0    0 -0.47810681092E+02  0.13068357638E+03  0.40583104216E+03  0.44686451318E+03  0.12500000000E+03 0.  0.
         25    1    1    2    0    0  0.42708358835E+02 -0.23804406338E+03  0.55917526874E+03  0.62192520546E+03  0.12500000000E+03 0.  0.
         25    1    1    2    0    0  0.51023222568E+01  0.10736048700E+03  0.27335363689E+03  0.31921704005E+03  0.12500000000E+03 0.  0.
</event>
<event>
 5    0  0.5660959E-005  0.2988786E+03  0.7546771E-02  0.1085803E+00
         21   -1    0    0  502  501  0.00000000000E+00  0.00000000000E+00  0.49165815222E+03  0.49165815222E+03  0.00000000000E+00 0.  1.
         21   -1    0    0  501  502 -0.00000000000E+00 -0.00000000000E+00 -0.18168801403E+03  0.18168801403E+03  0.00000000000E+00 0.  1.
         25    1    1    2    0    0 -0.10989561554E+01 -0.46169908037E+02 -0.12546349920E+02  0.13384796976E+03  0.12500000000E+03 0.  0.
         25    1    1    2    0    0 -0.64784437458E+02 -0.10026046079E+03  0.28390417001E+03  0.33237894200E+03  0.12500000000E+03 0.  0.
         25    1    1    2    0    0  0.65883393613E+02  0.14643036883E+03  0.38612318099E+02  0.20711925449E+03  0.12500000000E+03 0.  0.
</event>
<event>
 5    0  0.5660959E-005  0.2576555E+03  0.7546771E-02  0.1108560E+00
         21   -1    0    0  502  501  0.00000000000E+00  0.00000000000E+00  0.81843795243E+03  0.81843795243E+03  0.00000000000E+00 0. -1.
         21   -1    0    0  501  502 -0.00000000000E+00 -0.00000000000E+00 -0.81113493197E+02  0.81113493197E+02  0.00000000000E+00 0. -1.
         25    1    1    2    0    0 -0.16218506756E+02 -0.68665775299E+02  0.30871633447E+03  0.34045382041E+03  0.12500000000E+03 0.  0.
         25    1    1    2    0    0  0.12099505415E+03  0.17340831286E+02  0.14144740052E+03  0.22488413611E+03  0.12500000000E+03 0.  0.
         25    1    1    2    0    0 -0.10477654739E+03  0.51324944013E+02  0.28716072424E+03  0.33421348912E+03  0.12500000000E+03 0.  0.
</event>
<event>
 5    0  0.5660959E-005  0.4178833E+03  0.7546771E-02  0.1037757E+00
         21   -1    0    0  502  501  0.00000000000E+00  0.00000000000E+00  0.89467963257E+03  0.89467963257E+03  0.00000000000E+00 0. -1.
         21   -1    0    0  501  502 -0.00000000000E+00 -0.00000000000E+00 -0.19518322015E+03  0.19518322015E+03  0.00000000000E+00 0. -1.
         25    1    1    2    0    0 -0.93108386427E+02 -0.82570333709E+02  0.20887142020E+03  0.27338489682E+03  0.12500000000E+03 0.  0.
         25    1    1    2    0    0 -0.21068217484E+03 -0.11283755375E+02  0.38933700438E+03  0.46013324690E+03  0.12500000000E+03 0.  0.
         25    1    1    2    0    0  0.30379056126E+03  0.93854089084E+02  0.10128798784E+03  0.35634470900E+03  0.12500000000E+03 0.  0.
</event>
<event>
 5    0  0.5660959E-005  0.3929222E+03  0.7546771E-02  0.1046258E+00
         21   -1    0    0  502  501  0.00000000000E+00  0.00000000000E+00  0.16502147764E+03  0.16502147764E+03  0.00000000000E+00 0. -1.
         21   -1    0    0  501  502 -0.00000000000E+00 -0.00000000000E+00 -0.93556200946E+03  0.93556200946E+03  0.00000000000E+00 0. -1.
         25    1    1    2    0    0 -0.26608793605E+02  0.14998905674E+03 -0.15102287658E+03  0.24826931806E+03  0.12500000000E+03 0.  0.
         25    1    1    2    0    0 -0.14564086182E+03 -0.15672732146E+03 -0.58668302305E+03  0.63686472932E+03  0.12500000000E+03 0.  0.
         25    1    1    2    0    0  0.17224965543E+03  0.67382647161E+01 -0.32834632189E+02  0.21544943972E+03  0.12500000000E+03 0.  0.
</event>
<event>
 5    0  0.6177595E-005  0.3099465E+03  0.7546771E-02  0.1080372E+00
         21   -1    0    0  502  501  0.00000000000E+00  0.00000000000E+00  0.24554607095E+03  0.24554607095E+03  0.00000000000E+00 0. -1.
         21   -1    0    0  501  502 -0.00000000000E+00 -0.00000000000E+00 -0.39123753163E+03  0.39123753163E+03  0.00000000000E+00 0. -1.
         25    1    1    2    0    0  0.36826307893E+02 -0.14436413063E+03 -0.32360916385E+02  0.19715326037E+03  0.12500000000E+03 0.  0.
         25    1    1    2    0    0  0.31897134282E+02  0.20037709682E+03 -0.15060427560E+03  0.28191320639E+03  0.12500000000E+03 0.  0.
         25    1    1    2    0    0 -0.68723442174E+02 -0.56012966192E+02  0.37273731313E+02  0.15771713582E+03  0.12500000000E+03 0.  0.
</event>
<event>
 5    0  0.5660959E-005  0.3089627E+03  0.7546771E-02  0.1080844E+00
         21   -1    0    0  502  501  0.00000000000E+00  0.00000000000E+00  0.22225763705E+03  0.22225763705E+03  0.00000000000E+00 0.  1.
         21   -1    0    0  501  502 -0.00000000000E+00 -0.00000000000E+00 -0.42949225341E+03  0.42949225341E+03  0.00000000000E+00 0.  1.
         25    1    1    2    0    0  0.12890323518E+03  0.49935669288E+02 -0.91258168883E+02  0.20751546568E+03  0.12500000000E+03 0.  0.
         25    1    1    2    0    0 -0.14781934593E+02 -0.17698237923E+03 -0.60590377108E+02  0.22547164333E+03  0.12500000000E+03 0.  0.
         25    1    1    2    0    0 -0.11412130059E+03  0.12704670995E+03 -0.55386070370E+02  0.21876278145E+03  0.12500000000E+03 0.  0.
</event>
<event>
 5    0  0.5660959E-005  0.2486107E+03  0.7546771E-02  0.1114186E+00
         21   -1    0    0  502  501  0.00000000000E+00  0.00000000000E+00  0.33317864793E+03  0.33317864793E+03  0.00000000000E+00 0.  1.
         21   -1    0    0  501  502 -0.00000000000E+00 -0.00000000000E+00 -0.18550790460E+03  0.18550790460E+03  0.00000000000E+00 0.  1.
         25    1    1    2    0    0  0.78165472477E+02 -0.61432200504E+02  0.10754016824E+03  0.19254517426E+03  0.12500000000E+03 0.  0.
         25    1    1    2    0    0 -0.12128588080E+03 -0.78338679988E+01  0.24318380757E+02  0.17603413877E+03  0.12500000000E+03 0.  0.
         25    1    1    2    0    0  0.43120408323E+02  0.69266068503E+02  0.15812194338E+02  0.15010723950E+03  0.12500000000E+03 0.  0.
</event>
<event>
 5    0  0.6287882E-005  0.3150763E+03  0.7546771E-02  0.1077938E+00
         21   -1    0    0  502  501  0.00000000000E+00  0.00000000000E+00  0.11010382590E+04  0.11010382590E+04  0.00000000000E+00 0.  1.
         21   -1    0    0  501  502 -0.00000000000E+00 -0.00000000000E+00 -0.90163153501E+02  0.90163153501E+02  0.00000000000E+00 0.  1.
         25    1    1    2    0    0 -0.38547224668E+02  0.87524678623E+02  0.60335503139E+03  0.62354530854E+03  0.12500000000E+03 0.  0.
         25    1    1    2    0    0 -0.11362412672E+03  0.17060898397E+02  0.14548534386E+03  0.22359003042E+03  0.12500000000E+03 0.  0.
         25    1    1    2    0    0  0.15217135139E+03 -0.10458557702E+03  0.26203473024E+03  0.34406607353E+03  0.12500000000E+03 0.  0.
</event>
<event>
 5    0  0.5660959E-005  0.3118358E+03  0.7546771E-02  0.1079469E+00
         21   -1    0    0  502  501  0.00000000000E+00  0.00000000000E+00  0.23276395322E+04  0.23276395322E+04  0.00000000000E+00 0. -1.
         21   -1    0    0  501  502 -0.00000000000E+00 -0.00000000000E+00 -0.41776899210E+02  0.41776899210E+02  0.00000000000E+00 0. -1.
         25    1    1    2    0    0  0.67259918288E+02  0.15382413636E+02  0.27538676715E+03  0.31019894710E+03  0.12500000000E+03 0.  0.
         25    1    1    2    0    0 -0.13853954454E+03 -0.39772018368E+02  0.17522105415E+04  0.17625668216E+04  0.12500000000E+03 0.  0.
         25    1    1    2    0    0  0.71279626257E+02  0.24389604732E+02  0.25826532438E+03  0.29665066276E+03  0.12500000000E+03 0.  0.
</event>
<event>
 5    0  0.5660959E-005  0.2848167E+03  0.7546771E-02  0.1093087E+00
         21   -1    0    0  502  501  0.00000000000E+00  0.00000000000E+00  0.19246027523E+03  0.19246027523E+03  0.00000000000E+00 0. -1.
         21   -1    0    0  501  502 -0.00000000000E+00 -0.00000000000E+00 -0.42149233887E+03  0.42149233887E+03  0.00000000000E+00 0. -1.
         25    1    1    2    0    0  0.14013149287E+03  0.19920882913E+02 -0.98548939350E+02  0.21300368616E+03  0.12500000000E+03 0.  0.
         25    1    1    2    0    0 -0.70051855908E+02  0.61301318662E+02  0.43046294980E+02  0.16168827322E+03  0.12500000000E+03 0.  0.
         25    1    1    2    0    0 -0.70079636964E+02 -0.81222201575E+02 -0.17352941927E+03  0.23926065472E+03  0.12500000000E+03 0.  0.
</event>
<event>
 5    0  0.5660959E-005  0.5790975E+03  0.7546771E-02  0.9949747E-01
         21   -1    0    0  502  501  0.00000000000E+00  0.00000000000E+00  0.95306764736E+03  0.95306764736E+03  0.00000000000E+00 0.  1.
         21   -1    0    0  501  502 -0.00000000000E+00 -0.00000000000E+00 -0.35186789528E+03  0.35186789528E+03  0.00000000000E+00 0.  1.
         25    1    1    2    0    0  0.19907428531E+03  0.15335031529E+03 -0.28514510231E+01  0.28067778866E+03  0.12500000000E+03 0.  0.
         25    1    1    2    0    0  0.25799363861E+03 -0.12955731370E+03  0.95542687341E+02  0.32878445858E+03  0.12500000000E+03 0.  0.
         25    1    1    2    0    0 -0.45706792393E+03 -0.23793001593E+02  0.50850851577E+03  0.69547329540E+03  0.12500000000E+03 0.  0.
</event>
<event>
 5    0  0.5660959E-005  0.3627320E+03  0.7546771E-02  0.1057507E+00
         21   -1    0    0  502  501  0.00000000000E+00  0.00000000000E+00  0.59654451401E+03  0.59654451401E+03  0.00000000000E+00 0. -1.
         21   -1    0    0  501  502 -0.00000000000E+00 -0.00000000000E+00 -0.22056114057E+03  0.22056114057E+03  0.00000000000E+00 0. -1.
         25    1    1    2    0    0  0.80263555599E+01 -0.86119261790E+02  0.70530439370E+02  0.16757235008E+03  0.12500000000E+03 0.  0.
         25    1    1    2    0    0  0.15057373811E+03 -0.15271135244E+03  0.20222821693E+03  0.32017879302E+03  0.12500000000E+03 0.  0.
         25    1    1    2    0    0 -0.15860009367E+03  0.23883061423E+03  0.10322471714E+03  0.32935451149E+03  0.12500000000E+03 0.  0.
</event>
<event>
 5    0  0.5660959E-005  0.2414041E+03  0.7546771E-02  0.1118861E+00
         21   -1    0    0  502  501  0.00000000000E+00  0.00000000000E+00  0.78181043009E+02  0.78181043009E+02  0.00000000000E+00 0. -1.
         21   -1    0    0  501  502 -0.00000000000E+00 -0.00000000000E+00 -0.74539717512E+03  0.74539717512E+03  0.00000000000E+00 0. -1.
         25    1    1    2    0    0  0.12252270947E+02  0.10631694914E+03 -0.21101973101E+03  0.26759622324E+03  0.12500000000E+03 0.  0.
         25    1    1    2    0    0 -0.44998717393E+02  0.87169199856E+01 -0.12650231194E+03  0.18365376170E+03  0.12500000000E+03 0.  0.
         25    1    1    2    0    0  0.32746446447E+02 -0.11503386912E+03 -0.32969408916E+03  0.37232823318E+03  0.12500000000E+03 0.  0.
</event>
<event>
 5    0  0.5660959E-005  0.3154567E+03  0.7546771E-02  0.1077759E+00
         21   -1    0    0  502  501  0.00000000000E+00  0.00000000000E+00  0.38097635834E+03  0.38097635834E+03  0.00000000000E+00 0. -1.
         21   -1    0    0  501  502 -0.00000000000E+00 -0.00000000000E+00 -0.26120503453E+03  0.26120503453E+03  0.00000000000E+00 0. -1.
         25    1    1    2    0    0 -0.25184818346E+02  0.13057849296E+01 -0.16939282433E+02  0.12863871672E+03  0.12500000000E+03 0.  0.
         25    1    1    2    0    0 -0.12724667659E+03  0.48963037922E+02 -0.92718431033E+02  0.20690771672E+03  0.12500000000E+03 0.  0.
         25    1    1    2    0    0  0.15243149494E+03 -0.50268822851E+02  0.22942903728E+03  0.30663495943E+03  0.12500000000E+03 0.  0.
</event>
<event>
 5    0  0.5660959E-005  0.5067306E+03  0.7546771E-02  0.1012037E+00
         21   -1    0    0  502  501  0.00000000000E+00  0.00000000000E+00  0.91020487410E+03  0.91020487410E+03  0.00000000000E+00 0. -1.
         21   -1    0    0  501  502 -0.00000000000E+00 -0.00000000000E+00 -0.28210775266E+03  0.28210775266E+03  0.00000000000E+00 0. -1.
         25    1    1    2    0    0 -0.74695162055E+02 -0.19172681960E+03 -0.21313737543E+02  0.24169777822E+03  0.12500000000E+03 0.  0.
         25    1    1    2    0    0  0.16292743507E+03  0.11404861175E+03  0.72574284686E+03  0.76281066767E+03  0.12500000000E+03 0.  0.
         25    1    1    2    0    0 -0.88232273013E+02  0.77678207853E+02 -0.76331987889E+02  0.18780418087E+03  0.12500000000E+03 0.  0.
</event>
<event>
 5    0  0.5660959E-005  0.3551116E+03  0.7546771E-02  0.1060536E+00
         21   -1    0    0  502  501  0.00000000000E+00  0.00000000000E+00  0.10171736579E+04  0.10171736579E+04  0.00000000000E+00 0. -1.
         21   -1    0    0  501  502 -0.00000000000E+00 -0.00000000000E+00 -0.12397516118E+03  0.12397516118E+03  0.00000000000E+00 0. -1.
         25    1    1    2    0    0  0.14309033747E+03  0.21072033201E+03  0.43989547733E+03  0.52346053717E+03  0.12500000000E+03 0.  0.
         25    1    1    2    0    0  0.25373956146E+02 -0.14032270452E+03  0.14756609468E+03  0.24028119226E+03  0.12500000000E+03 0.  0.
         25    1    1    2    0    0 -0.16846429362E+03 -0.70397627499E+02  0.30573692473E+03  0.37740708966E+03  0.12500000000E+03 0.  0.
</event>
<event>
 5    0  0.5660959E-005  0.2866950E+03  0.7546771E-02  0.1092087E+00
         21   -1    0    0  502  501  0.00000000000E+00  0.00000000000E+00  0.10142604837E+04  0.10142604837E+04  0.00000000000E+00 0. -1.
         21   -1    0    0  501  502 -0.00000000000E+00 -0.00000000000E+00 -0.81038398439E+02  0.81038398439E+02  0.00000000000E+00 0. -1.
         25    1    1    2    0    0 -0.33833139123E+02 -0.47147579966E+02  0.16842890763E+03  0.21762553280E+03  0.12500000000E+03 0.  0.
         25    1    1    2    0    0  0.91254489261E+02 -0.12465180974E+03  0.26213769445E+03  0.32894775624E+03  0.12500000000E+03 0.  0.
         25    1    1    2    0    0 -0.57421350138E+02  0.17179938971E+03  0.50265548316E+03  0.54872559308E+03  0.12500000000E+03 0.  0.
</event>
<event>
 5    0  0.6094017E-005  0.2973786E+03  0.7546771E-02  0.1086558E+00
         21   -1    0    0  502  501  0.00000000000E+00  0.00000000000E+00  0.24153100243E+03  0.24153100243E+03  0.00000000000E+00 0. -1.
         21   -1    0    0  501  502 -0.00000000000E+00 -0.00000000000E+00 -0.36613939441E+03  0.36613939441E+03  0.00000000000E+00 0. -1.
         25    1    1    2    0    0  0.10339964268E+03  0.40207501713E+02  0.55434271151E+02  0.17608545573E+03  0.12500000000E+03 0.  0.
         25    1    1    2    0    0  0.34957845690E+02 -0.63050098422E+01  0.44864052919E+02  0.13747577012E+03  0.12500000000E+03 0.  0.
         25    1    1    2    0    0 -0.13835748837E+03 -0.33902491870E+02 -0.22490671604E+03  0.29410917100E+03  0.12500000000E+03 0.  0.
</event>
<event>
 5    0  0.5660959E-005  0.3226226E+03  0.7546771E-02  0.1074449E+00
         21   -1    0    0  502  501  0.00000000000E+00  0.00000000000E+00  0.18511159901E+03  0.18511159901E+03  0.00000000000E+00 0.  1.
         21   -1    0    0  501  502 -0.00000000000E+00 -0.00000000000E+00 -0.56228424903E+03  0.56228424903E+03  0.00000000000E+00 0.  1.
         25    1    1    2    0    0 -0.44998215141E+02  0.14071117989E+03 -0.54197827010E+02  0.20096487247E+03  0.12500000000E+03 0.  0.
         25    1    1    2    0    0 -0.42922841281E+02 -0.83754422891E+02 -0.34787968793E+03  0.38144783514E+03  0.12500000000E+03 0.  0.
         25    1    1    2    0    0  0.87921056422E+02 -0.56956757003E+02  0.24904864916E+02  0.16498314043E+03  0.12500000000E+03 0.  0.
</event>
<event>
 5    0  0.5660959E-005  0.2478736E+03  0.7546771E-02  0.1114656E+00
         21   -1    0    0  502  501  0.00000000000E+00  0.00000000000E+00  0.30438110594E+02  0.30438110594E+02  0.00000000000E+00 0.  1.
         21   -1    0    0  501  502 -0.00000000000E+00 -0.00000000000E+00 -0.20185653426E+04  0.20185653426E+04  0.00000000000E+00 0.  1.
         25    1    1    2    0    0  0.45110872394E+02 -0.67077672103E+01 -0.42726337942E+03  0.44750305065E+03  0.12500000000E+03 0.  0.
         25    1    1    2    0    0  0.83727553266E+02  0.72857502956E+02 -0.72373376406E+03  0.74278804524E+03  0.12500000000E+03 0.  0.
         25    1    1    2    0    0 -0.12883842566E+03 -0.66149735745E+02 -0.83713008851E+03  0.85871235729E+03  0.12500000000E+03 0.  0.
</event>
<event>
 5    0  0.5841787E-005  0.2761726E+03  0.7546771E-02  0.1097798E+00
         21   -1    0    0  502  501  0.00000000000E+00  0.00000000000E+00  0.38313798306E+03  0.38313798306E+03  0.00000000000E+00 0. -1.
         21   -1    0    0  501  502 -0.00000000000E+00 -0.00000000000E+00 -0.19907009497E+03  0.19907009497E+03  0.00000000000E+00 0. -1.
         25    1    1    2    0    0 -0.82068730753E+02 -0.11807585482E+03  0.30097133800E+02  0.19289380892E+03  0.12500000000E+03 0.  0.
         25    1    1    2    0    0 -0.29541749738E+02 -0.20035420931E+02  0.10401133693E+03  0.16648570894E+03  0.12500000000E+03 0.  0.
         25    1    1    2    0    0  0.11161048049E+03  0.13811127575E+03  0.49959417351E+02  0.22282856017E+03  0.12500000000E+03 0.  0.
</event>
<event>
 5    0  0.5898731E-005  0.2842156E+03  0.7546771E-02  0.1093409E+00
         21   -1    0    0  502  501  0.00000000000E+00  0.00000000000E+00  0.80938731386E+02  0.80938731386E+02  0.00000000000E+00 0.  1.
         21   -1    0    0  501  502 -0.00000000000E+00 -0.00000000000E+00 -0.99802017875E+03  0.99802017875E+03  0.00000000000E+00 0.  1.
         25    1    1    2    0    0 -0.15848978804E+02 -0.11041690220E+03 -0.27332789496E+03  0.32058730572E+03  0.12500000000E+03 0.  0.
         25    1    1    2    0    0  0.75419977187E+02 -0.77244632843E+02 -0.30925373501E+03  0.35059631898E+03  0.12500000000E+03 0.  0.
         25    1    1    2    0    0 -0.59570998383E+02  0.18766153505E+03 -0.33449981739E+03  0.40777528544E+03  0.12500000000E+03 0.  0.
</event>
<event>
 5    0  0.5660959E-005  0.2527465E+03  0.7546771E-02  0.1111581E+00
         21   -1    0    0  502  501  0.00000000000E+00  0.00000000000E+00  0.39126228345E+03  0.39126228345E+03  0.00000000000E+00 0.  1.
         21   -1    0    0  501  502 -0.00000000000E+00 -0.00000000000E+00 -0.16326840933E+03  0.16326840933E+03  0.00000000000E+00 0.  1.
         25    1    1    2    0    0 -0.80195609114E+01  0.12485660616E+03  0.12783055449E+03  0.21821809302E+03  0.12500000000E+03 0.  0.
         25    1    1    2    0    0 -0.27811962786E+02 -0.89214733330E+02 -0.17905440118E+02  0.15709353489E+03  0.12500000000E+03 0.  0.
         25    1    1    2    0    0  0.35831523697E+02 -0.35641872831E+02  0.11806875974E+03  0.17921906488E+03  0.12500000000E+03 0.  0.
</event>
<event>
 5    0  0.5660959E-005  0.6148639E+03  0.7546771E-02  0.9875039E-01
         21   -1    0    0  502  501  0.00000000000E+00  0.00000000000E+00  0.53489725664E+03  0.53489725664E+03  0.00000000000E+00 0.  1.
         21   -1    0    0  501  502 -0.00000000000E+00 -0.00000000000E+00 -0.70678554654E+03  0.70678554654E+03  0.00000000000E+00 0.  1.
         25    1    1    2    0    0  0.23104676181E+03 -0.12580262357E+03 -0.37701770101E+03  0.47642024843E+03  0.12500000000E+03 0.  0.
         25    1    1    2    0    0  0.88015429090E+02 -0.53348806683E+02 -0.16415449948E+03  0.23057430609E+03  0.12500000000E+03 0.  0.
         25    1    1    2    0    0 -0.31906219090E+03  0.17915143025E+03  0.36928391060E+03  0.53468824865E+03  0.12500000000E+03 0.  0.
</event>
<event>
 5    0  0.5660959E-005  0.3438264E+03  0.7546771E-02  0.1065178E+00
         21   -1    0    0  502  501  0.00000000000E+00  0.00000000000E+00  0.12817024934E+03  0.12817024934E+03  0.00000000000E+00 0. -1.
         21   -1    0    0  501  502 -0.00000000000E+00 -0.00000000000E+00 -0.92234030427E+03  0.92234030427E+03  0.00000000000E+00 0. -1.
         25    1    1    2    0    0 -0.94607612244E+02 -0.22086828124E+03 -0.45415869892E+03  0.52878967630E+03  0.12500000000E+03 0.  0.
         25    1    1    2    0    0  0.52690044637E+02  0.83090610909E+02 -0.27959964756E+03  0.32168502194E+03  0.12500000000E+03 0.  0.
         25    1    1    2    0    0  0.41917567607E+02  0.13777767033E+03 -0.60411708449E+02  0.20003585537E+03  0.12500000000E+03 0.  0.
</event>
<event>
 5    0  0.5660959E-005  0.2915269E+03  0.7546771E-02  0.1089555E+00
         21   -1    0    0  502  501  0.00000000000E+00  0.00000000000E+00  0.14560577787E+03  0.14560577787E+03  0.00000000000E+00 0.  1.
         21   -1    0    0  501  502 -0.00000000000E+00 -0.00000000000E+00 -0.58368513516E+03  0.58368513516E+03  0.00000000000E+00 0.  1.
         25    1    1    2    0    0 -0.85888909690E+02 -0.69958825415E+02 -0.26560210067E+02  0.16912003672E+03  0.12500000000E+03 0.  0.
         25    1    1    2    0    0 -0.40932898449E+02  0.64983683763E+01 -0.32810233893E+03  0.35354472953E+03  0.12500000000E+03 0.  0.
         25    1    1    2    0    0  0.12682180814E+03  0.63460457039E+02 -0.83416808282E+02  0.20662614678E+03  0.12500000000E+03 0.  0.
</event>
<event>
 5    0  0.5660959E-005  0.2713494E+03  0.7546771E-02  0.1100510E+00
         21   -1    0    0  502  501  0.00000000000E+00  0.00000000000E+00  0.11928409076E+03  0.11928409076E+03  0.00000000000E+00 0. -1.
         21   -1    0    0  501  502 -0.00000000000E+00 -0.00000000000E+00 -0.61727022231E+03  0.61727022231E+03  0.00000000000E+00 0. -1.
         25    1    1    2    0    0 -0.10025555095E+03 -0.48381847155E+02 -0.13397598673E+03  0.21439809619E+03  0.12500000000E+03 0.  0.
         25    1    1    2    0    0  0.76657912966E+02 -0.38107297487E+02 -0.33214238420E+03  0.36506460404E+03  0.12500000000E+03 0.  0.
         25    1    1    2    0    0  0.23597637984E+02  0.86489144642E+02 -0.31867760619E+02  0.15709161284E+03  0.12500000000E+03 0.  0.
</event>
<event>
 5    0  0.5660959E-005  0.2438063E+03  0.7546771E-02  0.1117283E+00
         21   -1    0    0  502  501  0.00000000000E+00  0.00000000000E+00  0.71137819307E+03  0.71137819307E+03  0.00000000000E+00 0.  1.
         21   -1    0    0  501  502 -0.00000000000E+00 -0.00000000000E+00 -0.83558270160E+02  0.83558270160E+02  0.00000000000E+00 0.  1.
         25    1    1    2    0    0  0.72770254919E+02  0.47570045982E+02  0.20825862929E+03  0.25798270475E+03  0.12500000000E+03 0.  0.
         25    1    1    2    0    0 -0.74878178706E+02 -0.25804951922E+02  0.67358822832E+02  0.16258797066E+03  0.12500000000E+03 0.  0.
         25    1    1    2    0    0  0.21079237875E+01 -0.21765094060E+02  0.35220247079E+03  0.37436578782E+03  0.12500000000E+03 0.  0.
</event>
<event>
 5    0  0.5851739E-005  0.3200201E+03  0.7546771E-02  0.1075640E+00
         21   -1    0    0  502  501  0.00000000000E+00  0.00000000000E+00  0.38904286042E+03  0.38904286042E+03  0.00000000000E+00 0. -1.
         21   -1    0    0  501  502 -0.00000000000E+00 -0.00000000000E+00 -0.26324318997E+03  0.26324318997E+03  0.00000000000E+00 0. -1.
         25    1    1    2    0    0  0.83832456653E+01  0.16213374209E+02  0.21565945344E+03  0.24993429570E+03  0.12500000000E+03 0.  0.
         25    1    1    2    0    0 -0.19560824684E+02  0.18489616769E+02  0.10672715859E+03  0.16655382965E+03  0.12500000000E+03 0.  0.
         25    1    1    2    0    0  0.11177579019E+02 -0.34702990978E+02 -0.19658694157E+03  0.23579792504E+03  0.12500000000E+03 0.  0.
</event>
<event>
 5    0  0.6527091E-005  0.4511061E+03  0.7546771E-02  0.1027393E+00
         21   -1    0    0  502  501  0.00000000000E+00  0.00000000000E+00  0.19146835449E+03  0.19146835449E+03  0.00000000000E+00 0. -1.
         21   -1    0    0  501  502 -0.00000000000E+00 -0.00000000000E+00 -0.10628218121E+04  0.10628218121E+04  0.00000000000E+00 0. -1.
         25    1    1    2    0    0  0.67666087787E+02 -0.12349040904E+03 -0.66656337833E+03  0.69264732577E+03  0.12500000000E+03 0.  0.
         25    1    1    2    0    0  0.10844612919E+03 -0.54638011646E+02  0.51890234899E+02  0.18183363751E+03  0.12500000000E+03 0.  0.
         25    1    1    2    0    0 -0.17611221697E+03  0.17812842069E+03 -0.25668031415E+03  0.37980920328E+03  0.12500000000E+03 0.  0.
</event>
<event>
 5    0  0.5660959E-005  0.3778566E+03  0.7546771E-02  0.1051729E+00
         21   -1    0    0  502  501  0.00000000000E+00  0.00000000000E+00  0.13651080492E+03  0.13651080492E+03  0.00000000000E+00 0. -1.
         21   -1    0    0  501  502 -0.00000000000E+00 -0.00000000000E+00 -0.10458926205E+04  0.10458926205E+04  0.00000000000E+00 0. -1.
         25    1    1    2    0    0  0.76462544201E+02 -0.12888654212E+03 -0.65212414453E+03  0.68069755492E+03  0.12500000000E+03 0.  0.
         25    1    1    2    0    0 -0.46290015842E+02  0.22518166281E+03 -0.11027648025E+03  0.28396381623E+03  0.12500000000E+03 0.  0.
         25    1    1    2    0    0 -0.30172528359E+02 -0.96295120695E+02 -0.14698119077E+03  0.21774205422E+03  0.12500000000E+03 0.  0.
</event>
<event>
 5    0  0.5660959E-005  0.2290137E+03  0.7546771E-02  0.1127336E+00
         21   -1    0    0  502  501  0.00000000000E+00  0.00000000000E+00  0.35765316852E+03  0.35765316852E+03  0.00000000000E+00 0. -1.
         21   -1    0    0  501  502 -0.00000000000E+00 -0.00000000000E+00 -0.14664282305E+03  0.14664282305E+03  0.00000000000E+00 0. -1.
         25    1    1    2    0    0 -0.93230866882E+02  0.35949510706E+01  0.78470280106E+02  0.17460670970E+03  0.12500000000E+03 0.  0.
         25    1    1    2    0    0 -0.21311981527E+02  0.25476237008E+02  0.66478811074E+02  0.14542239006E+03  0.12500000000E+03 0.  0.
         25    1    1    2    0    0  0.11454284841E+03 -0.29071188078E+02  0.66061254298E+02  0.18426689181E+03  0.12500000000E+03 0.  0.
</event>
<event>
 5    0  0.5660959E-005  0.2530676E+03  0.7546771E-02  0.1111381E+00
         21   -1    0    0  502  501  0.00000000000E+00  0.00000000000E+00  0.13424643633E+03  0.13424643633E+03  0.00000000000E+00 0.  1.
         21   -1    0    0  501  502 -0.00000000000E+00 -0.00000000000E+00 -0.47705700377E+03  0.47705700377E+03  0.00000000000E+00 0.  1.
         25    1    1    2    0    0  0.62994377289E+02 -0.79880078782E+02 -0.22269472399E+03  0.27489463191E+03  0.12500000000E+03 0.  0.
         25    1    1    2    0    0 -0.17337717009E+02  0.51444045407E+02  0.23801480845E+02  0.13834231720E+03  0.12500000000E+03 0.  0.
         25    1    1    2    0    0 -0.45656660280E+02  0.28436033375E+02 -0.14391732429E+03  0.19806649099E+03  0.12500000000E+03 0.  0.
</event>
<event>
 5    0  0.5660959E-005  0.6624016E+03  0.7546771E-02  0.9783783E-01
         21   -1    0    0  502  501  0.00000000000E+00  0.00000000000E+00  0.36445708286E+03  0.36445708286E+03  0.00000000000E+00 0.  1.
         21   -1    0    0  501  502 -0.00000000000E+00 -0.00000000000E+00 -0.12039163372E+04  0.12039163372E+04  0.00000000000E+00 0.  1.
         25    1    1    2    0    0  0.17084670442E+03  0.43359158090E+01  0.12028319957E+03  0.24351682627E+03  0.12500000000E+03 0.  0.
         25    1    1    2    0    0 -0.37262130721E+03 -0.24117153163E+02 -0.10076955874E+04  0.10818981803E+04  0.12500000000E+03 0.  0.
         25    1    1    2    0    0  0.20177460279E+03  0.19781237354E+02  0.47953133466E+02  0.24295841350E+03  0.12500000000E+03 0.  0.
</event>
<event>
 5    0  0.5660959E-005  0.3040422E+03  0.7546771E-02  0.1083237E+00
         21   -1    0    0  502  501  0.00000000000E+00  0.00000000000E+00  0.24147029385E+03  0.24147029385E+03  0.00000000000E+00 0. -1.
         21   -1    0    0  501  502 -0.00000000000E+00 -0.00000000000E+00 -0.38282823402E+03  0.38282823402E+03  0.00000000000E+00 0. -1.
         25    1    1    2    0    0  0.36993097354E+02 -0.11717993145E+02 -0.14274079190E+03  0.19366397261E+03  0.12500000000E+03 0.  0.
         25    1    1    2    0    0 -0.18099765439E+03 -0.55519956440E+02  0.19078848355E+02  0.22766558570E+03  0.12500000000E+03 0.  0.
         25    1    1    2    0    0  0.14400455703E+03  0.67237949585E+02 -0.17695996620E+02  0.20296896957E+03  0.12500000000E+03 0.  0.
</event>
<event>
 5    0  0.5660959E-005  0.2332997E+03  0.7546771E-02  0.1124339E+00
         21   -1    0    0  502  501  0.00000000000E+00  0.00000000000E+00  0.17063978895E+03  0.17063978895E+03  0.00000000000E+00 0.  1.
         21   -1    0    0  501  502 -0.00000000000E+00 -0.00000000000E+00 -0.31896870445E+03  0.31896870445E+03  0.00000000000E+00 0.  1.
         25    1    1    2    0    0 -0.30935192990E+02 -0.78215682893E+02 -0.77055178211E+02  0.16922523365E+03  0.12500000000E+03 0.  0.
         25    1    1    2    0    0 -0.41734947863E+02 -0.22345794374E+02 -0.51147892676E+02  0.14311620217E+03  0.12500000000E+03 0.  0.
         25    1    1    2    0    0  0.72670140852E+02  0.10056147727E+03 -0.20125844611E+02  0.17726705758E+03  0.12500000000E+03 0.  0.
</event>
<event>
 5    0  0.6198127E-005  0.3332375E+03  0.7546771E-02  0.1069713E+00
         21   -1    0    0  502  501  0.00000000000E+00  0.00000000000E+00  0.16272279709E+03  0.16272279709E+03  0.00000000000E+00 0. -1.
         21   -1    0    0  501  502 -0.00000000000E+00 -0.00000000000E+00 -0.68243184088E+03  0.68243184088E+03  0.00000000000E+00 0. -1.
         25    1    1    2    0    0  0.51582295438E+02  0.64457898750E+02  0.44959707502E+02  0.15640309847E+03  0.12500000000E+03 0.  0.
         25    1    1    2    0    0 -0.16368255264E+03 -0.53149473128E+00 -0.22874125978E+03  0.30779835030E+03  0.12500000000E+03 0.  0.
         25    1    1    2    0    0  0.11210025720E+03 -0.63926404018E+02 -0.33592749151E+03  0.38095318919E+03  0.12500000000E+03 0.  0.
</event>
<event>
 5    0  0.5660959E-005  0.2820304E+03  0.7546771E-02  0.1094585E+00
         21   -1    0    0  502  501  0.00000000000E+00  0.00000000000E+00  0.54939680689E+03  0.54939680689E+03  0.00000000000E+00 0.  1.
         21   -1    0    0  501  502 -0.00000000000E+00 -0.00000000000E+00 -0.14477905395E+03  0.14477905395E+03  0.00000000000E+00 0.  1.
         25    1    1    2    0    0 -0.97179973639E+02  0.11654902866E+03  0.14173976843E+03  0.24236910965E+03  0.12500000000E+03 0.  0.
         25    1    1    2    0    0  0.63015034573E+02 -0.10096813399E+03  0.27071197698E+03  0.32105362970E+03  0.12500000000E+03 0.  0.
         25    1    1    2    0    0  0.34164939066E+02 -0.15580894673E+02 -0.78339924675E+01  0.13075312149E+03  0.12500000000E+03 0.  0.
</event>
<event>
 5    0  0.5660959E-005  0.3428845E+03  0.7546771E-02  0.1065574E+00
         21   -1    0    0  502  501  0.00000000000E+00  0.00000000000E+00  0.35405152985E+03  0.35405152985E+03  0.00000000000E+00 0. -1.
         21   -1    0    0  501  502 -0.00000000000E+00 -0.00000000000E+00 -0.33206960885E+03  0.33206960885E+03  0.00000000000E+00 0. -1.
         25    1    1    2    0    0  0.63595367967E+02 -0.10145570301E+03 -0.22302349193E+03  0.28231561851E+03  0.12500000000E+03 0.  0.
         25    1    1    2    0    0 -0.86656497943E+02  0.73665207542E+02  0.63616456073E+02  0.18057675632E+03  0.12500000000E+03 0.  0.
         25    1    1    2    0    0  0.23061129976E+02  0.27790495464E+02  0.18138895685E+03  0.22322876388E+03  0.12500000000E+03 0.  0.
</event>
<event>
 5    0  0.5660959E-005  0.3093970E+03  0.7546771E-02  0.1080635E+00
         21   -1    0    0  502  501  0.00000000000E+00  0.00000000000E+00  0.80984139902E+02  0.80984139902E+02  0.00000000000E+00 0. -1.
         21   -1    0    0  501  502 -0.00000000000E+00 -0.00000000000E+00 -0.11820401969E+04  0.11820401969E+04  0.00000000000E+00 0. -1.
         25    1    1    2    0    0  0.11034188504E+03 -0.27384465579E+02 -0.34836090683E+03  0.38717639643E+03  0.12500000000E+03 0.  0.
         25    1    1    2    0    0  0.86664257093E+02  0.94943568749E+02 -0.47051776854E+03  0.50352452296E+03  0.12500000000E+03 0.  0.
         25    1    1    2    0    0 -0.19700614213E+03 -0.67559103170E+02 -0.28217738166E+03  0.37232341745E+03  0.12500000000E+03 0.  0.
</event>
<event>
 5    0  0.5660959E-005  0.2596582E+03  0.7546771E-02  0.1107349E+00
         21   -1    0    0  502  501  0.00000000000E+00  0.00000000000E+00  0.24265907725E+04  0.24265907725E+04  0.00000000000E+00 0. -1.
         21   -1    0    0  501  502 -0.00000000000E+00 -0.00000000000E+00 -0.27784818017E+02  0.27784818017E+02  0.00000000000E+00 0. -1.
         25    1    1    2    0    0 -0.60406425251E+02  0.83219166552E+02  0.60227189141E+03  0.62364316486E+03  0.12500000000E+03 0.  0.
         25    1    1    2    0    0  0.14209577991E+03 -0.59414894157E+02  0.11283134964E+04  0.11456167276E+04  0.12500000000E+03 0.  0.
         25    1    1    2    0    0 -0.81689354663E+02 -0.23804272395E+02  0.66822056667E+03  0.68511569809E+03  0.12500000000E+03 0.  0.
</event>
<event>
 5    0  0.5660959E-005  0.2723037E+03  0.7546771E-02  0.1099968E+00
         21   -1    0    0  502  501  0.00000000000E+00  0.00000000000E+00  0.90346724522E+02  0.90346724522E+02  0.00000000000E+00 0. -1.
         21   -1    0    0  501  502 -0.00000000000E+00 -0.00000000000E+00 -0.82071930276E+03  0.82071930276E+03  0.00000000000E+00 0. -1.
         25    1    1    2    0    0 -0.12081321075E+03 -0.80817486596E+02 -0.12711934110E+03  0.23002527016E+03  0.12500000000E+03 0.  0.
         25    1    1    2    0    0  0.36751910599E+02  0.49158782771E+02 -0.41572833532E+03  0.43843167956E+03  0.12500000000E+03 0.  0.
         25    1    1    2    0    0  0.84061300153E+02  0.31658703825E+02 -0.18752490182E+03  0.24260907756E+03  0.12500000000E+03 0.  0.
</event>
<event>
 5    0  0.5660959E-005  0.2848678E+03  0.7546771E-02  0.1093060E+00
         21   -1    0    0  502  501  0.00000000000E+00  0.00000000000E+00  0.35506066128E+03  0.35506066128E+03  0.00000000000E+00 0.  1.
         21   -1    0    0  501  502 -0.00000000000E+00 -0.00000000000E+00 -0.22855147005E+03  0.22855147005E+03  0.00000000000E+00 0.  1.
         25    1    1    2    0    0  0.18862118560E+01  0.69084260672E+02 -0.56712764106E+02  0.15367996122E+03  0.12500000000E+03 0.  0.
         25    1    1    2    0    0 -0.11183853452E+02 -0.18032998761E+03  0.84277587488E+02  0.23531190952E+03  0.12500000000E+03 0.  0.
         25    1    1    2    0    0  0.92976415962E+01  0.11124572694E+03  0.98944367849E+02  0.19462026058E+03  0.12500000000E+03 0.  0.
</event>
<event>
 5    0  0.5660959E-005  0.7659020E+03  0.7546771E-02  0.9610728E-01
         21   -1    0    0  502  501  0.00000000000E+00  0.00000000000E+00  0.25603626481E+04  0.25603626481E+04  0.00000000000E+00 0. -1.
         21   -1    0    0  501  502 -0.00000000000E+00 -0.00000000000E+00 -0.22911046304E+03  0.22911046304E+03  0.00000000000E+00 0. -1.
         25    1    1    2    0    0  0.17985433509E+02 -0.30695389044E+03  0.15358838398E+04  0.15713396628E+04  0.12500000000E+03 0.  0.
         25    1    1    2    0    0 -0.31074860896E+03  0.35053629404E+03  0.16772030243E+03  0.51302581929E+03  0.12500000000E+03 0.  0.
         25    1    1    2    0    0  0.29276317545E+03 -0.43582403601E+02  0.62764804278E+03  0.70510762896E+03  0.12500000000E+03 0.  0.
</event>
<event>
 5    0  0.5660959E-005  0.3644437E+03  0.7546771E-02  0.1056838E+00
         21   -1    0    0  502  501  0.00000000000E+00  0.00000000000E+00  0.86443799446E+03  0.86443799446E+03  0.00000000000E+00 0.  1.
         21   -1    0    0  501  502 -0.00000000000E+00 -0.00000000000E+00 -0.15364800713E+03  0.15364800713E+03  0.00000000000E+00 0.  1.
         25    1    1    2    0    0  0.98638228871E+02  0.54526213007E+02  0.11270432414E+03  0.20255831945E+03  0.12500000000E+03 0.  0.
         25    1    1    2    0    0 -0.88201361492E+02  0.40142623603E+02  0.63474894049E+03  0.65415757112E+03  0.12500000000E+03 0.  0.
         25    1    1    2    0    0 -0.10436867379E+02 -0.94668836610E+02 -0.36663277298E+02  0.16137011101E+03  0.12500000000E+03 0.  0.
</event>
<event>
 5    0  0.5660959E-005  0.4032044E+03  0.7546771E-02  0.1042676E+00
         21   -1    0    0  502  501  0.00000000000E+00  0.00000000000E+00  0.28345304510E+03  0.28345304510E+03  0.00000000000E+00 0. -1.
         21   -1    0    0  501  502 -0.00000000000E+00 -0.00000000000E+00 -0.57354739443E+03  0.57354739443E+03  0.00000000000E+00 0. -1.
         25    1    1    2    0    0  0.24218136174E+02  0.29060196717E+03 -0.29021339617E+03  0.42998236796E+03  0.12500000000E+03 0.  0.
         25    1    1    2    0    0 -0.64271128053E+02 -0.21687576404E+03 -0.59321535486E+02  0.26516017706E+03  0.12500000000E+03 0.  0.
         25    1    1    2    0    0  0.40052991879E+02 -0.73726203132E+02  0.59440582323E+02  0.16185789450E+03  0.12500000000E+03 0.  0.
</event>
<event>
 5    0  0.5660959E-005  0.4002167E+03  0.7546771E-02  0.1043705E+00
         21   -1    0    0  502  501  0.00000000000E+00  0.00000000000E+00  0.19873034039E+04  0.19873034039E+04  0.00000000000E+00 0. -1.
         21   -1    0    0  501  502 -0.00000000000E+00 -0.00000000000E+00 -0.80598360593E+02  0.80598360593E+02  0.00000000000E+00 0. -1.
         25    1    1    2    0    0 -0.23065367880E+03  0.16973119555E+02  0.45091998398E+03  0.52196076316E+03  0.12500000000E+03 0.  0.
         25    1    1    2    0    0  0.53293977705E+02  0.13547003520E+03  0.10032417467E+04  0.10214261504E+04  0.12500000000E+03 0.  0.
         25    1    1    2    0    0  0.17735970109E+03 -0.15244315475E+03  0.45254331271E+03  0.52451485096E+03  0.12500000000E+03 0.  0.
</event>
<event>
 5    0  0.5660959E-005  0.5006384E+03  0.7546771E-02  0.1013612E+00
         21   -1    0    0  502  501  0.00000000000E+00  0.00000000000E+00  0.20872120335E+03  0.20872120335E+03  0.00000000000E+00 0.  1.
         21   -1    0    0  501  502 -0.00000000000E+00 -0.00000000000E+00 -0.12008307962E+04  0.12008307962E+04  0.00000000000E+00 0.  1.
         25    1    1    2    0    0 -0.28115247450E+02  0.34169370522E+03 -0.60232514511E+03  0.70424827707E+03  0.12500000000E+03 0.  0.
         25    1    1    2    0    0 -0.24284330416E+02 -0.41297586920E+03 -0.25836146383E+03  0.50350217799E+03  0.12500000000E+03 0.  0.
         25    1    1    2    0    0  0.52399577866E+02  0.71282163982E+02 -0.13142298393E+03  0.20180154452E+03  0.12500000000E+03 0.  0.
</event>
<event>
 5    0  0.5660959E-005  0.2855292E+03  0.7546771E-02  0.1092707E+00
         21   -1    0    0  502  501  0.00000000000E+00  0.00000000000E+00  0.24829900377E+03  0.24829900377E+03  0.00000000000E+00 0. -1.
         21   -1    0    0  501  502 -0.00000000000E+00 -0.00000000000E+00 -0.32834173533E+03  0.32834173533E+03  0.00000000000E+00 0. -1.
         25    1    1    2    0    0 -0.19655803135E+02  0.93578626397E+02 -0.64759786248E+02  0.17018266607E+03  0.12500000000E+03 0.  0.
         25    1    1    2    0    0  0.38021678661E+01  0.29920750879E+02  0.12630087847E+03  0.18024044972E+03  0.12500000000E+03 0.  0.
         25    1    1    2    0    0  0.15853635269E+02 -0.12349937728E+03 -0.14158382379E+03  0.22621762331E+03  0.12500000000E+03 0.  0.
</event>
<event>
 5    0  0.5660959E-005  0.3811759E+03  0.7546771E-02  0.1050500E+00
         21   -1    0    0  502  501  0.00000000000E+00  0.00000000000E+00  0.19702090122E+03  0.19702090122E+03  0.00000000000E+00 0. -1.
         21   -1    0    0  501  502 -0.00000000000E+00 -0.00000000000E+00 -0.73746034036E+03  0.73746034036E+03  0.00000000000E+00 0. -1.
         25    1    1    2    0    0  0.22283093187E+02  0.31585374538E+03 -0.30129915776E+03  0.45460566119E+03  0.12500000000E+03 0.  0.
         25    1    1    2    0    0  0.88410357809E+01 -0.14242980239E+03 -0.16515433832E+03  0.25152607815E+03  0.12500000000E+03 0.  0.
         25    1    1    2    0    0 -0.31124128967E+02 -0.17342394299E+03 -0.73985943058E+02  0.22834950225E+03  0.12500000000E+03 0.  0.
</event>
<event>
 5    0  0.5660959E-005  0.2984254E+03  0.7546771E-02  0.1086030E+00
         21   -1    0    0  502  501  0.00000000000E+00  0.00000000000E+00  0.60786956405E+02  0.60786956405E+02  0.00000000000E+00 0. -1.
         21   -1    0    0  501  502 -0.00000000000E+00 -0.00000000000E+00 -0.14650799051E+04  0.14650799051E+04  0.00000000000E+00 0. -1.
         25    1    1    2    0    0  0.15401327789E+03  0.12416926824E+02 -0.31499910899E+03  0.37245631757E+03  0.12500000000E+03 0.  0.
         25    1    1    2    0    0 -0.11797706515E+02 -0.74641143377E+02 -0.71076169054E+03  0.72561537119E+03  0.12500000000E+03 0.  0.
         25    1    1    2    0    0 -0.14221557137E+03  0.62224216554E+02 -0.37853214912E+03  0.42779517270E+03  0.12500000000E+03 0.  0.
</event>
<event>
 5    0  0.5660959E-005  0.2569641E+03  0.7546771E-02  0.1108981E+00
         21   -1    0    0  502  501  0.00000000000E+00  0.00000000000E+00  0.24555077691E+03  0.24555077691E+03  0.00000000000E+00 0. -1.
         21   -1    0    0  501  502 -0.00000000000E+00 -0.00000000000E+00 -0.26890794594E+03  0.26890794594E+03  0.00000000000E+00 0. -1.
         25    1    1    2    0    0 -0.10035696437E+03 -0.43679408484E+02 -0.48269015946E+02  0.17301534303E+03  0.12500000000E+03 0.  0.
         25    1    1    2    0    0  0.61314676468E+02  0.12438952259E+03  0.12917845454E+02  0.18714730458E+03  0.12500000000E+03 0.  0.
         25    1    1    2    0    0  0.39042287898E+02 -0.80710114104E+02  0.11994001458E+02  0.15429607524E+03  0.12500000000E+03 0.  0.
</event>
<event>
 5    0  0.5660959E-005  0.3010363E+03  0.7546771E-02  0.1084724E+00
         21   -1    0    0  502  501  0.00000000000E+00  0.00000000000E+00  0.22589599005E+04  0.22589599005E+04  0.00000000000E+00 0. -1.
         21   -1    0    0  501  502 -0.00000000000E+00 -0.00000000000E+00 -0.40117073713E+02  0.40117073713E+02  0.00000000000E+00 0. -1.
         25    1    1    2    0    0 -0.15019939737E+03 -0.74907159470E+02  0.13250316076E+04  0.13414561874E+04  0.12500000000E+03 0.  0.
         25    1    1    2    0    0  0.72814058156E+02  0.43946191129E+02  0.21790536535E+03  0.26521859481E+03  0.12500000000E+03 0.  0.
         25    1    1    2    0    0  0.77385339214E+02  0.30960968340E+02  0.67590585384E+03  0.69240219204E+03  0.12500000000E+03 0.  0.
</event>
<event>
 5    0  0.5660959E-005  0.2466797E+03  0.7546771E-02  0.1115421E+00
         21   -1    0    0  502  501  0.00000000000E+00  0.00000000000E+00  0.46688308285E+03  0.46688308285E+03  0.00000000000E+00 0. -1.
         21   -1    0    0  501  502 -0.00000000000E+00 -0.00000000000E+00 -0.13033432149E+03  0.13033432149E+03  0.00000000000E+00 0. -1.
         25    1    1    2    0    0 -0.13589755334E+02 -0.10883600754E+03  0.16118054550E+02  0.16707707703E+03  0.12500000000E+03 0.  0.
         25    1    1    2    0    0 -0.77766285230E+01  0.81045604734E+02  0.22090716298E+03  0.26655926293E+03  0.12500000000E+03 0.  0.
         25    1    1    2    0    0  0.21366383857E+02  0.27790402805E+02  0.99523543830E+02  0.16358106438E+03  0.12500000000E+03 0.  0.
</event>
<event>
 5    0  0.5660959E-005  0.2603078E+03  0.7546771E-02  0.1106958E+00
         21   -1    0    0  502  501  0.00000000000E+00  0.00000000000E+00  0.45861652805E+03  0.45861652805E+03  0.00000000000E+00 0.  1.
         21   -1    0    0  501  502 -0.00000000000E+00 -0.00000000000E+00 -0.14774898634E+03  0.14774898634E+03  0.00000000000E+00 0.  1.
         25    1    1    2    0    0 -0.32982873249E+01  0.15488086525E+02  0.10418138654E+03  0.16349165368E+03  0.12500000000E+03 0.  0.
         25    1    1    2    0    0  0.64652410291E+02 -0.12059059607E+03  0.18482740597E+02  0.18624885964E+03  0.12500000000E+03 0.  0.
         25    1    1    2    0    0 -0.61354122966E+02  0.10510250955E+03  0.18820341457E+03  0.25662500107E+03  0.12500000000E+03 0.  0.
</event>
<event>
 5    0  0.5815198E-005  0.2566274E+03  0.7546771E-02  0.1109187E+00
         21   -1    0    0  502  501  0.00000000000E+00  0.00000000000E+00  0.26126030044E+03  0.26126030044E+03  0.00000000000E+00 0.  1.
         21   -1    0    0  501  502 -0.00000000000E+00 -0.00000000000E+00 -0.25207658677E+03  0.25207658677E+03  0.00000000000E+00 0.  1.
         25    1    1    2    0    0  0.17176817689E+02 -0.25913481226E+02 -0.15208600560E+03  0.19930304733E+03  0.12500000000E+03 0.  0.
         25    1    1    2    0    0 -0.29192376869E+02  0.56388937052E+02  0.86515530441E+02  0.16474781970E+03  0.12500000000E+03 0.  0.
         25    1    1    2    0    0  0.12015559180E+02 -0.30475455826E+02  0.74754188834E+02  0.14928602017E+03  0.12500000000E+03 0.  0.
</event>
<event>
 5    0  0.5660959E-005  0.4759608E+03  0.7546771E-02  0.1020251E+00
         21   -1    0    0  502  501  0.00000000000E+00  0.00000000000E+00  0.21463589894E+03  0.21463589894E+03  0.00000000000E+00 0.  1.
         21   -1    0    0  501  502 -0.00000000000E+00 -0.00000000000E+00 -0.10554557952E+04  0.10554557952E+04  0.00000000000E+00 0. -1.
         25    1    1    2    0    0  0.66711856317E+02  0.10076931865E+03 -0.22932294668E+03  0.28778280217E+03  0.12500000000E+03 0.  0.
         25    1    1    2    0    0 -0.23584515281E+03  0.10902893925E+03 -0.62144865542E+03  0.68507932170E+03  0.12500000000E+03 0.  0.
         25    1    1    2    0    0  0.16913329649E+03 -0.20979825790E+03  0.99517058294E+01  0.29722957028E+03  0.12500000000E+03 0.  0.
</event>
<event>
 5    0  0.5660959E-005  0.2630739E+03  0.7546771E-02  0.1105310E+00
         21   -1    0    0  502  501  0.00000000000E+00  0.00000000000E+00  0.13985573420E+03  0.13985573420E+03  0.00000000000E+00 0.  1.
         21   -1    0    0  501  502 -0.00000000000E+00 -0.00000000000E+00 -0.49485172133E+03  0.49485172133E+03  0.00000000000E+00 0.  1.
         25    1    1    2    0    0 -0.75351503041E+02 -0.85439443571E+02 -0.13553428726E+03  0.21673091738E+03  0.12500000000E+03 0.  0.
         25    1    1    2    0    0  0.14078023652E+02  0.41444258845E+02  0.23513003088E+02  0.13451274533E+03  0.12500000000E+03 0.  0.
         25    1    1    2    0    0  0.61273479389E+02  0.43995184727E+02 -0.24297470297E+03  0.28346379282E+03  0.12500000000E+03 0.  0.
</event>
<event>
 5    0  0.5660959E-005  0.2980922E+03  0.7546771E-02  0.1086198E+00
         21   -1    0    0  502  501  0.00000000000E+00  0.00000000000E+00  0.13766053622E+03  0.13766053622E+03  0.00000000000E+00 0.  1.
         21   -1    0    0  501  502 -0.00000000000E+00 -0.00000000000E+00 -0.64549316240E+03  0.64549316240E+03  0.00000000000E+00 0.  1.
         25    1    1    2    0    0 -0.73236299487E+02 -0.16075742855E+03 -0.75142048432E+02  0.22908040911E+03  0.12500000000E+03 0.  0.
         25    1    1    2    0    0 -0.24711468999E+02  0.84107896098E+02 -0.11653808317E+03  0.19207009063E+03  0.12500000000E+03 0.  0.
         25    1    1    2    0    0  0.97947768486E+02  0.76649532451E+02 -0.31615249457E+03  0.36200319888E+03  0.12500000000E+03 0.  0.
</event>
<event>
 5    0  0.5660959E-005  0.3774199E+03  0.7546771E-02  0.1051892E+00
         21   -1    0    0  502  501  0.00000000000E+00  0.00000000000E+00  0.13752824666E+03  0.13752824666E+03  0.00000000000E+00 0. -1.
         21   -1    0    0  501  502 -0.00000000000E+00 -0.00000000000E+00 -0.10357566917E+04  0.10357566917E+04  0.00000000000E+00 0. -1.
         25    1    1    2    0    0  0.12424966502E+03  0.24367916427E+03 -0.46597872181E+03  0.55459776734E+03  0.12500000000E+03 0.  0.
         25    1    1    2    0    0 -0.97978910419E+02 -0.23138635808E+03 -0.17372629572E+03  0.33006868894E+03  0.12500000000E+03 0.  0.
         25    1    1    2    0    0 -0.26270754602E+02 -0.12292806191E+02 -0.25852342753E+03  0.28861848210E+03  0.12500000000E+03 0.  0.
</event>
<event>
 5    0  0.5660959E-005  0.3202413E+03  0.7546771E-02  0.1075538E+00
         21   -1    0    0  502  501  0.00000000000E+00  0.00000000000E+00  0.10075209834E+04  0.10075209834E+04  0.00000000000E+00 0. -1.
         21   -1    0    0  501  502 -0.00000000000E+00 -0.00000000000E+00 -0.10178895334E+03  0.10178895334E+03  0.00000000000E+00 0. -1.
         25    1    1    2    0    0 -0.74700458842E+02  0.50904558070E+02  0.57521920964E+03  0.59554476886E+03  0.12500000000E+03 0.  0.
         25    1    1    2    0    0 -0.49884266630E+02  0.94671058068E+02  0.13605246209E+03  0.21350953546E+03  0.12500000000E+03 0.  0.
         25    1    1    2    0    0  0.12458472547E+03 -0.14557561614E+03  0.19446035833E+03  0.30025563242E+03  0.12500000000E+03 0.  0.
</event>
<event>
 5    0  0.5660959E-005  0.2443902E+03  0.7546771E-02  0.1116902E+00
         21   -1    0    0  502  501  0.00000000000E+00  0.00000000000E+00  0.90596933151E+02  0.90596933151E+02  0.00000000000E+00 0. -1.
         21   -1    0    0  501  502 -0.00000000000E+00 -0.00000000000E+00 -0.65925574913E+03  0.65925574913E+03  0.00000000000E+00 0. -1.
         25    1    1    2    0    0  0.46174765764E+02  0.85590948548E+01 -0.11871574125E+03  0.17867230988E+03  0.12500000000E+03 0.  0.
         25    1    1    2    0    0 -0.33237045576E+02 -0.35117070928E+02 -0.41780759297E+03  0.43877795594E+03  0.12500000000E+03 0.  0.
         25    1    1    2    0    0 -0.12937720188E+02  0.26557976074E+02 -0.32135481753E+02  0.13240241646E+03  0.12500000000E+03 0.  0.
</event>
<event>
 5    0  0.5660959E-005  0.2400824E+03  0.7546771E-02  0.1119738E+00
         21   -1    0    0  502  501  0.00000000000E+00  0.00000000000E+00  0.22873048840E+03  0.22873048840E+03  0.00000000000E+00 0.  1.
         21   -1    0    0  501  502 -0.00000000000E+00 -0.00000000000E+00 -0.25199778784E+03  0.25199778784E+03  0.00000000000E+00 0.  1.
         25    1    1    2    0    0 -0.27639219830E+02 -0.13000761290E+02  0.49202423732E+02  0.13776365547E+03  0.12500000000E+03 0.  0.
         25    1    1    2    0    0 -0.93066051275E+02  0.30207916506E+02 -0.16494711242E+02  0.15959600126E+03  0.12500000000E+03 0.  0.
         25    1    1    2    0    0  0.12070527111E+03 -0.17207155217E+02 -0.55975011926E+02  0.18336861952E+03  0.12500000000E+03 0.  0.
</event>
<event>
 5    0  0.5660959E-005  0.5380276E+03  0.7546771E-02  0.1004304E+00
         21   -1    0    0  502  501  0.00000000000E+00  0.00000000000E+00  0.21324803696E+03  0.21324803696E+03  0.00000000000E+00 0.  1.
         21   -1    0    0  501  502 -0.00000000000E+00 -0.00000000000E+00 -0.13574506533E+04  0.13574506533E+04  0.00000000000E+00 0.  1.
         25    1    1    2    0    0  0.87074868011E+02 -0.41105774460E+03 -0.93759747689E+03  0.10350190968E+04  0.12500000000E+03 0.  0.
         25    1    1    2    0    0 -0.69507753335E+01  0.19243636627E+03 -0.85513199767E+02  0.24498484785E+03  0.12500000000E+03 0.  0.
         25    1    1    2    0    0 -0.80124092677E+02  0.21862137833E+03 -0.12109193971E+03  0.29069474565E+03  0.12500000000E+03 0.  0.
</event>
<event>
 5    0  0.5660959E-005  0.4537969E+03  0.7546771E-02  0.1026596E+00
         21   -1    0    0  502  501  0.00000000000E+00  0.00000000000E+00  0.11050609586E+04  0.11050609586E+04  0.00000000000E+00 0. -1.
         21   -1    0    0  501  502 -0.00000000000E+00 -0.00000000000E+00 -0.18635315461E+03  0.18635315461E+03  0.00000000000E+00 0. -1.
         25    1    1    2    0    0 -0.15179415816E+03 -0.20909454662E+03  0.77606998404E+03  0.82744886005E+03  0.12500000000E+03 0.  0.
         25    1    1    2    0    0  0.16256394802E+02  0.16860194338E+03 -0.24371078723E+02  0.21191940723E+03  0.12500000000E+03 0.  0.
         25    1    1    2    0    0  0.13553776336E+03  0.40492603239E+02  0.16700889869E+03  0.25204584594E+03  0.12500000000E+03 0.  0.
</event>
<event>
 5    0  0.5660959E-005  0.3011569E+03  0.7546771E-02  0.1084664E+00
         21   -1    0    0  502  501  0.00000000000E+00  0.00000000000E+00  0.43422932403E+02  0.43422932403E+02  0.00000000000E+00 0.  1.
         21   -1    0    0  501  502 -0.00000000000E+00 -0.00000000000E+00 -0.20886544674E+04  0.20886544674E+04  0.00000000000E+00 0.  1.
         25    1    1    2    0    0  0.53585036245E+02  0.14932908804E+03 -0.81265133560E+03  0.83737549874E+03  0.12500000000E+03 0.  0.
         25    1    1    2    0    0  0.94217597287E+01 -0.49265232792E+02 -0.97919639595E+03  0.98841611407E+03  0.12500000000E+03 0.  0.
         25    1    1    2    0    0 -0.63006795974E+02 -0.10006385525E+03 -0.25338380350E+03  0.30628578704E+03  0.12500000000E+03 0.  0.
</event>
<event>
 5    0  0.5660959E-005  0.4322858E+03  0.7546771E-02  0.1033140E+00
         21   -1    0    0  502  501  0.00000000000E+00  0.00000000000E+00  0.84070370968E+03  0.84070370968E+03  0.00000000000E+00 0.  1.
         21   -1    0    0  501  502 -0.00000000000E+00 -0.00000000000E+00 -0.22227924509E+03  0.22227924509E+03  0.00000000000E+00 0. -1.
         25    1    1    2    0    0 -0.93040457524E+02  0.17523543983E+02  0.57326384063E+02  0.16695782593E+03  0.12500000000E+03 0.  0.
         25    1    1    2    0    0  0.20861410568E+03 -0.25989128802E+03  0.46303800484E+03  0.58403126681E+03  0.12500000000E+03 0.  0.
         25    1    1    2    0    0 -0.11557364816E+03  0.24236774404E+03  0.98060075680E+02  0.31199386203E+03  0.12500000000E+03 0.  0.
</event>
<event>
 5    0  0.6320098E-005  0.2711650E+03  0.7546771E-02  0.1100615E+00
         21   -1    0    0  502  501  0.00000000000E+00  0.00000000000E+00  0.43608956146E+03  0.43608956146E+03  0.00000000000E+00 0.  1.
         21   -1    0    0  501  502 -0.00000000000E+00 -0.00000000000E+00 -0.16861315312E+03  0.16861315312E+03  0.00000000000E+00 0.  1.
         25    1    1    2    0    0  0.78567257876E+02  0.81285178601E+02 -0.41396135962E+02  0.17354749881E+03  0.12500000000E+03 0.  0.
         25    1    1    2    0    0 -0.56228387552E+02  0.21196533524E+01  0.20687172160E+03  0.24816735018E+03  0.12500000000E+03 0.  0.
         25    1    1    2    0    0 -0.22338870324E+02 -0.83404831954E+02  0.10200082271E+03  0.18298786559E+03  0.12500000000E+03 0.  0.
</event>
<event>
 5    0  0.5660959E-005  0.2659886E+03  0.7546771E-02  0.1103598E+00
         21   -1    0    0  502  501  0.00000000000E+00  0.00000000000E+00  0.14672405186E+03  0.14672405186E+03  0.00000000000E+00 0.  1.
         21   -1    0    0  501  502 -0.00000000000E+00 -0.00000000000E+00 -0.48219728066E+03  0.48219728066E+03  0.00000000000E+00 0.  1.
         25    1    1    2    0    0  0.89068588983E+02  0.10582220661E+03 -0.14892807119E+02  0.18702499474E+03  0.12500000000E+03 0.  0.
         25    1    1    2    0    0 -0.62750858620E+02 -0.36851541870E+01 -0.13323712921E+03  0.19320554656E+03  0.12500000000E+03 0.  0.
         25    1    1    2    0    0 -0.26317730363E+02 -0.10213705242E+03 -0.18734329246E+03  0.24869079122E+03  0.12500000000E+03 0.  0.
</event>
<event>
 5    0  0.5660959E-005  0.2766234E+03  0.7546771E-02  0.1097548E+00
         21   -1    0    0  502  501  0.00000000000E+00  0.00000000000E+00  0.10127926776E+03  0.10127926776E+03  0.00000000000E+00 0.  1.
         21   -1    0    0  501  502 -0.00000000000E+00 -0.00000000000E+00 -0.75553985321E+03  0.75553985321E+03  0.00000000000E+00 0.  1.
         25    1    1    2    0    0 -0.15723461152E+03 -0.11509432031E+02 -0.14213031042E+03  0.24633557442E+03  0.12500000000E+03 0.  0.
         25    1    1    2    0    0  0.14180609574E+03  0.31672479759E+02 -0.22038155181E+03  0.29207044209E+03  0.12500000000E+03 0.  0.
         25    1    1    2    0    0  0.15428515779E+02 -0.20163047728E+02 -0.29174872322E+03  0.31841310446E+03  0.12500000000E+03 0.  0.
</event>
<event>
 5    0  0.5660959E-005  0.2843712E+03  0.7546771E-02  0.1093325E+00
         21   -1    0    0  502  501  0.00000000000E+00  0.00000000000E+00  0.17030631674E+03  0.17030631674E+03  0.00000000000E+00 0.  1.
         21   -1    0    0  501  502 -0.00000000000E+00 -0.00000000000E+00 -0.47483265717E+03  0.47483265717E+03  0.00000000000E+00 0.  1.
         25    1    1    2    0    0 -0.51916262760E+02  0.77512104985E+02 -0.35573892542E+02  0.15998101946E+03  0.12500000000E+03 0.  0.
         25    1    1    2    0    0 -0.99246963587E+02  0.24375149948E+02 -0.38801075030E+02  0.16605610841E+03  0.12500000000E+03 0.  0.
         25    1    1    2    0    0  0.15116322635E+03 -0.10188725493E+03 -0.23015137286E+03  0.31910184604E+03  0.12500000000E+03 0.  0.
</event>
<event>
 5    0  0.5660959E-005  0.2346705E+03  0.7546771E-02  0.1123395E+00
         21   -1    0    0  502  501  0.00000000000E+00  0.00000000000E+00  0.58692767346E+03  0.58692767346E+03  0.00000000000E+00 0.  1.
         21   -1    0    0  501  502 -0.00000000000E+00 -0.00000000000E+00 -0.93827994865E+02  0.93827994865E+02  0.00000000000E+00 0.  1.
         25    1    1    2    0    0  0.47882923597E+02 -0.35269318184E+02  0.28619971346E+03  0.31791818942E+03  0.12500000000E+03 0.  0.
         25    1    1    2    0    0 -0.17891649416E+02  0.21280054239E+02  0.11557328563E+02  0.12857497296E+03  0.12500000000E+03 0.  0.
         25    1    1    2    0    0 -0.29991274181E+02  0.13989263944E+02  0.19534263658E+03  0.23426250596E+03  0.12500000000E+03 0.  0.
</event>
<event>
 5    0  0.5660959E-005  0.5036424E+03  0.7546771E-02  0.1012833E+00
         21   -1    0    0  502  501  0.00000000000E+00  0.00000000000E+00  0.63727808677E+03  0.63727808677E+03  0.00000000000E+00 0.  1.
         21   -1    0    0  501  502 -0.00000000000E+00 -0.00000000000E+00 -0.39802985720E+03  0.39802985720E+03  0.00000000000E+00 0.  1.
         25    1    1    2    0    0 -0.25581163640E+03 -0.20374340450E+03  0.54768474129E+02  0.35436641200E+03  0.12500000000E+03 0.  0.
         25    1    1    2    0    0  0.30931009377E+03  0.18659890111E+03  0.31224941169E+03  0.49357530237E+03  0.12500000000E+03 0.  0.
         25    1    1    2    0    0 -0.53498457376E+02  0.17144503395E+02 -0.12776965625E+03  0.18736622961E+03  0.12500000000E+03 0.  0.
</event>
<event>
 5    0  0.5660959E-005  0.4848183E+03  0.7546771E-02  0.1017819E+00
         21   -1    0    0  502  501  0.00000000000E+00  0.00000000000E+00  0.54573262688E+03  0.54573262688E+03  0.00000000000E+00 0.  1.
         21   -1    0    0  501  502 -0.00000000000E+00 -0.00000000000E+00 -0.43070326604E+03  0.43070326604E+03  0.00000000000E+00 0.  1.
         25    1    1    2    0    0 -0.30929557010E+03  0.25015642050E+03  0.11642495141E+02  0.41713610740E+03  0.12500000000E+03 0.  0.
         25    1    1    2    0    0  0.29996214545E+03 -0.26359762744E+03  0.11130873994E+03  0.43298456494E+03  0.12500000000E+03 0.  0.
         25    1    1    2    0    0  0.93334246549E+01  0.13441206938E+02 -0.79218742375E+01  0.12631522058E+03  0.12500000000E+03 0.  0.
</event>
<event>
 5    0  0.5660959E-005  0.3163724E+03  0.7546771E-02  0.1077331E+00
         21   -1    0    0  502  501  0.00000000000E+00  0.00000000000E+00  0.10143741955E+04  0.10143741955E+04  0.00000000000E+00 0. -1.
         21   -1    0    0  501  502 -0.00000000000E+00 -0.00000000000E+00 -0.98673152856E+02  0.98673152856E+02  0.00000000000E+00 0. -1.
         25    1    1    2    0    0  0.96143215416E+02 -0.16315372351E+02  0.20747614816E+03  0.26111503461E+03  0.12500000000E+03 0.  0.
         25    1    1    2    0    0 -0.14539838903E+03  0.17329581709E+03  0.31265271148E+03  0.40564621254E+03  0.12500000000E+03 0.  0.
         25    1    1    2    0    0  0.49255173619E+02 -0.15698044474E+03  0.39557218300E+03  0.44628610120E+03  0.12500000000E+03 0.  0.
</event>
<event>
 5    0  0.5660959E-005  0.2091103E+03  0.7546771E-02  0.1142272E+00
         21   -1    0    0  502  501  0.00000000000E+00  0.00000000000E+00  0.12501486001E+04  0.12501486001E+04  0.00000000000E+00 0. -1.
         21   -1    0    0  501  502 -0.00000000000E+00 -0.00000000000E+00 -0.34977545028E+02  0.34977545028E+02  0.00000000000E+00 0. -1.
         25    1    1    2    0    0  0.70278081546E+01 -0.29179000326E+02  0.39575057683E+03  0.41610614416E+03  0.12500000000E+03 0.  0.
         25    1    1    2    0    0 -0.71368936426E+02  0.61386204025E+01  0.47285527588E+03  0.49431601195E+03  0.12500000000E+03 0.  0.
         25    1    1    2    0    0  0.64341128272E+02  0.23040379923E+02  0.34656520239E+03  0.37470398904E+03  0.12500000000E+03 0.  0.
</event>
<event>
 5    0  0.5660959E-005  0.2280586E+03  0.7546771E-02  0.1128014E+00
         21   -1    0    0  502  501  0.00000000000E+00  0.00000000000E+00  0.22663829843E+04  0.22663829843E+04  0.00000000000E+00 0.  1.
         21   -1    0    0  501  502 -0.00000000000E+00 -0.00000000000E+00 -0.22948784735E+02  0.22948784735E+02  0.00000000000E+00 0.  1.
         25    1    1    2    0    0  0.52241974432E+02 -0.46189129992E+02  0.13108513206E+04  0.13186428039E+04  0.12500000000E+03 0.  0.
         25    1    1    2    0    0 -0.10944600235E+02  0.17713510544E+02  0.56950551512E+03  0.58343387328E+03  0.12500000000E+03 0.  0.
         25    1    1    2    0    0 -0.41297374197E+02  0.28475619447E+02  0.36307736385E+03  0.38725509184E+03  0.12500000000E+03 0.  0.
</event>
<event>
 5    0  0.5660959E-005  0.2853881E+03  0.7546771E-02  0.1092782E+00
         21   -1    0    0  502  501  0.00000000000E+00  0.00000000000E+00  0.16629938428E+03  0.16629938428E+03  0.00000000000E+00 0.  1.
         21   -1    0    0  501  502 -0.00000000000E+00 -0.00000000000E+00 -0.48975736621E+03  0.48975736621E+03  0.00000000000E+00 0.  1.
         25    1    1    2    0    0 -0.67919685459E+02  0.18014123245E+03 -0.10458611047E+03  0.25224432958E+03  0.12500000000E+03 0.  0.
         25    1    1    2    0    0  0.61109982006E+01 -0.14859729191E+03 -0.14807558429E+03  0.24427418636E+03  0.12500000000E+03 0.  0.
         25    1    1    2    0    0  0.61808687258E+02 -0.31543940542E+02 -0.70796287165E+02  0.15953823455E+03  0.12500000000E+03 0.  0.
</event>
<event>
 5    0  0.5660959E-005  0.4120042E+03  0.7546771E-02  0.1039701E+00
         21   -1    0    0  502  501  0.00000000000E+00  0.00000000000E+00  0.72545722748E+03  0.72545722748E+03  0.00000000000E+00 0.  1.
         21   -1    0    0  501  502 -0.00000000000E+00 -0.00000000000E+00 -0.23398688892E+03  0.23398688892E+03  0.00000000000E+00 0.  1.
         25    1    1    2    0    0  0.28696109775E+03 -0.10281937950E+03  0.32640635706E+03  0.46377214918E+03  0.12500000000E+03 0.  0.
         25    1    1    2    0    0 -0.30214751485E+03  0.73378795429E+02  0.93683479760E+02  0.34796431244E+03  0.12500000000E+03 0.  0.
         25    1    1    2    0    0  0.15186417099E+02  0.29440584072E+02  0.71380501737E+02  0.14770765479E+03  0.12500000000E+03 0.  0.
</event>
<event>
 5    0  0.5660959E-005  0.3284321E+03  0.7546771E-02  0.1071833E+00
         21   -1    0    0  502  501  0.00000000000E+00  0.00000000000E+00  0.11917831270E+04  0.11917831270E+04  0.00000000000E+00 0. -1.
         21   -1    0    0  501  502 -0.00000000000E+00 -0.00000000000E+00 -0.90509435171E+02  0.90509435171E+02  0.00000000000E+00 0. -1.
         25    1    1    2    0    0  0.99475644593E+02 -0.36163871691E+02  0.37262027961E+02  0.16797823731E+03  0.12500000000E+03 0.  0.
         25    1    1    2    0    0  0.14159662658E+02  0.83616974679E+02  0.40201191868E+03  0.42945416200E+03  0.12500000000E+03 0.  0.
         25    1    1    2    0    0 -0.11363530725E+03 -0.47453102988E+02  0.66199974516E+03  0.68486016283E+03  0.12500000000E+03 0.  0.
</event>
<event>
 5    0  0.5660959E-005  0.2635196E+03  0.7546771E-02  0.1105047E+00
         21   -1    0    0  502  501  0.00000000000E+00  0.00000000000E+00  0.55398691764E+03  0.55398691764E+03  0.00000000000E+00 0.  1.
         21   -1    0    0  501  502 -0.00000000000E+00 -0.00000000000E+00 -0.12535056698E+03  0.12535056698E+03  0.00000000000E+00 0.  1.
         25    1    1    2    0    0  0.15618763167E+02  0.80904195998E+02  0.17334095110E+03  0.22904479916E+03  0.12500000000E+03 0.  0.
         25    1    1    2    0    0  0.52124354515E+02  0.50349588824E+01 -0.11486768453E+02  0.13601192960E+03  0.12500000000E+03 0.  0.
         25    1    1    2    0    0 -0.67743117683E+02 -0.85939154881E+02  0.26678216801E+03  0.31428075586E+03  0.12500000000E+03 0.  0.
</event>
<event>
 5    0  0.5971123E-005  0.2568140E+03  0.7546771E-02  0.1109073E+00
         21   -1    0    0  502  501  0.00000000000E+00  0.00000000000E+00  0.19004104417E+03  0.19004104417E+03  0.00000000000E+00 0. -1.
         21   -1    0    0  501  502 -0.00000000000E+00 -0.00000000000E+00 -0.34704843042E+03  0.34704843042E+03  0.00000000000E+00 0. -1.
         25    1    1    2    0    0 -0.63675936816E+02  0.20975093122E+01 -0.10862712821E+03  0.17743696756E+03  0.12500000000E+03 0.  0.
         25    1    1    2    0    0  0.44412234396E+02 -0.41438629874E+02  0.91984090370E+02  0.16666037169E+03  0.12500000000E+03 0.  0.
         25    1    1    2    0    0  0.19263702419E+02  0.39341120561E+02 -0.14036434841E+03  0.19299213534E+03  0.12500000000E+03 0.  0.
</event>
<event>
 5    0  0.5660959E-005  0.2926432E+03  0.7546771E-02  0.1088977E+00
         21   -1    0    0  502  501  0.00000000000E+00  0.00000000000E+00  0.16433218002E+04  0.16433218002E+04  0.00000000000E+00 0.  1.
         21   -1    0    0  501  502 -0.00000000000E+00 -0.00000000000E+00 -0.52113971940E+02  0.52113971940E+02  0.00000000000E+00 0.  1.
         25    1    1    2    0    0  0.16984011291E+02 -0.26109573522E+02  0.48887697216E+03  0.50556489235E+03  0.12500000000E+03 0.  0.
         25    1    1    2    0    0 -0.86781323138E+02  0.15749235704E+03  0.35013928184E+03  0.41298590443E+03  0.12500000000E+03 0.  0.
         25    1    1    2    0    0  0.69797311847E+02 -0.13138278352E+03  0.75219157426E+03  0.77688497535E+03  0.12500000000E+03 0.  0.
</event>
<event>
 5    0  0.5660959E-005  0.2286853E+03  0.7546771E-02  0.1127569E+00
         21   -1    0    0  502  501  0.00000000000E+00  0.00000000000E+00  0.13948246100E+03  0.13948246100E+03  0.00000000000E+00 0.  1.
         21   -1    0    0  501  502 -0.00000000000E+00 -0.00000000000E+00 -0.37493593896E+03  0.37493593896E+03  0.00000000000E+00 0.  1.
         25    1    1    2    0    0 -0.95497619243E+02 -0.23812983021E+02 -0.46448374250E+02  0.16573866451E+03  0.12500000000E+03 0.  0.
         25    1    1    2    0    0  0.98369245047E+02  0.17802404313E+02 -0.65843133905E+02  0.17307152352E+03  0.12500000000E+03 0.  0.
         25    1    1    2    0    0 -0.28716258032E+01  0.60105787078E+01 -0.12316196981E+03  0.17560821193E+03  0.12500000000E+03 0.  0.
</event>
<event>
 5    0  0.5660959E-005  0.2702654E+03  0.7546771E-02  0.1101128E+00
         21   -1    0    0  502  501  0.00000000000E+00  0.00000000000E+00  0.12619176230E+03  0.12619176230E+03  0.00000000000E+00 0.  1.
         21   -1    0    0  501  502 -0.00000000000E+00 -0.00000000000E+00 -0.57882829599E+03  0.57882829599E+03  0.00000000000E+00 0.  1.
         25    1    1    2    0    0  0.81207148688E+02  0.45449457280E+02 -0.32745388106E+03  0.36264486538E+03  0.12500000000E+03 0.  0.
         25    1    1    2    0    0 -0.79249684751E+02  0.55025544453E+02 -0.70451624259E+02  0.17290677961E+03  0.12500000000E+03 0.  0.
         25    1    1    2    0    0 -0.19574639367E+01 -0.10047500173E+03 -0.54731028368E+02  0.16946841329E+03  0.12500000000E+03 0.  0.
</event>
<event>
 5    0  0.5660959E-005  0.2854405E+03  0.7546771E-02  0.1092754E+00
         21   -1    0    0  502  501  0.00000000000E+00  0.00000000000E+00  0.10371501299E+03  0.10371501299E+03  0.00000000000E+00 0.  1.
         21   -1    0    0  501  502 -0.00000000000E+00 -0.00000000000E+00 -0.78557825499E+03  0.78557825499E+03  0.00000000000E+00 0.  1.
         25    1    1    2    0    0 -0.18021156954E+02  0.48273387758E+01 -0.18614654996E+03  0.22499689634E+03  0.12500000000E+03 0.  0.
         25    1    1    2    0    0 -0.11568213326E+03  0.82986403179E+02 -0.88133163082E+02  0.20895347210E+03  0.12500000000E+03 0.  0.
         25    1    1    2    0    0  0.13370329021E+03 -0.87813741955E+02 -0.40758352895E+03  0.45534289954E+03  0.12500000000E+03 0.  0.
</event>
<event>
 5    0  0.5660959E-005  0.3242605E+03  0.7546771E-02  0.1073705E+00
         21   -1    0    0  502  501  0.00000000000E+00  0.00000000000E+00  0.39948594005E+03  0.39948594005E+03  0.00000000000E+00 0.  1.
         21   -1    0    0  501  502 -0.00000000000E+00 -0.00000000000E+00 -0.26320046650E+03  0.26320046650E+03  0.00000000000E+00 0.  1.
         25    1    1    2    0    0 -0.19884903229E+03 -0.13983206180E+03  0.47465636669E+02  0.27743815494E+03  0.12500000000E+03 0.  0.
         25    1    1    2    0    0  0.53362624131E+02  0.10257172921E+03  0.83821551668E+02  0.18978825520E+03  0.12500000000E+03 0.  0.
         25    1    1    2    0    0  0.14548640816E+03  0.37260332591E+02  0.49982852181E+01  0.19545999641E+03  0.12500000000E+03 0.  0.
</event>
<event>
 5    0  0.5660959E-005  0.3089689E+03  0.7546771E-02  0.1080841E+00
         21   -1    0    0  502  501  0.00000000000E+00  0.00000000000E+00  0.84609574329E+03  0.84609574329E+03  0.00000000000E+00 0. -1.
         21   -1    0    0  501  502 -0.00000000000E+00 -0.00000000000E+00 -0.11282624732E+03  0.11282624732E+03  0.00000000000E+00 0. -1.
         25    1    1    2    0    0 -0.73121846494E+02  0.11596037209E+03  0.28595138432E+03  0.34086185842E+03  0.12500000000E+03 0.  0.
         25    1    1    2    0    0 -0.41277956502E+02 -0.11673405056E+03  0.45136914915E+02  0.18163988918E+03  0.12500000000E+03 0.  0.
         25    1    1    2    0    0  0.11439980300E+03  0.77367846621E+00  0.40218119673E+03  0.43642024301E+03  0.12500000000E+03 0.  0.
</event>
<event>
 5    0  0.5851490E-005  0.3192223E+03  0.7546771E-02  0.1076008E+00
         21   -1    0    0  502  501  0.00000000000E+00  0.00000000000E+00  0.30790026316E+03  0.30790026316E+03  0.00000000000E+00 0. -1.
         21   -1    0    0  501  502 -0.00000000000E+00 -0.00000000000E+00 -0.33096068385E+03  0.33096068385E+03  0.00000000000E+00 0. -1.
         25    1    1    2    0    0  0.21292952495E+02  0.12433621289E+01  0.63049315489E+02  0.14161621362E+03  0.12500000000E+03 0.  0.
         25    1    1    2    0    0 -0.79956513555E+02 -0.10393466182E+03 -0.21580189733E+03  0.28176393821E+03  0.12500000000E+03 0.  0.
         25    1    1    2    0    0  0.58663561059E+02  0.10269129969E+03  0.12969216115E+03  0.21548079518E+03  0.12500000000E+03 0.  0.
</event>
<event>
 5    0  0.5660959E-005  0.3423424E+03  0.7546771E-02  0.1065803E+00
         21   -1    0    0  502  501  0.00000000000E+00  0.00000000000E+00  0.95592778595E+03  0.95592778595E+03  0.00000000000E+00 0.  1.
         21   -1    0    0  501  502 -0.00000000000E+00 -0.00000000000E+00 -0.12260163566E+03  0.12260163566E+03  0.00000000000E+00 0.  1.
         25    1    1    2    0    0  0.43985064934E+02  0.75040184781E+02  0.37015552223E+03  0.40025719969E+03  0.12500000000E+03 0.  0.
         25    1    1    2    0    0 -0.14498942958E+02 -0.24758971934E+03  0.22580410633E+03  0.35794326772E+03  0.12500000000E+03 0.  0.
         25    1    1    2    0    0 -0.29486121976E+02  0.17254953455E+03  0.23736652173E+03  0.32032895421E+03  0.12500000000E+03 0.  0.
</event>
<event>
 5    0  0.5922626E-005  0.3549077E+03  0.7546771E-02  0.1060619E+00
         21   -1    0    0  502  501  0.00000000000E+00  0.00000000000E+00  0.46371827055E+03  0.46371827055E+03  0.00000000000E+00 0. -1.
         21   -1    0    0  501  502 -0.00000000000E+00 -0.00000000000E+00 -0.27162926472E+03  0.27162926472E+03  0.00000000000E+00 0. -1.
         25    1    1    2    0    0  0.15586255783E+02  0.15338640782E+03  0.11589565536E+03  0.22984152019E+03  0.12500000000E+03 0.  0.
         25    1    1    2    0    0 -0.10854603206E+03 -0.19111417292E+03  0.18367867877E+03  0.31252155958E+03  0.12500000000E+03 0.  0.
         25    1    1    2    0    0  0.92959776275E+02  0.37727765105E+02 -0.10748532830E+03  0.19298445550E+03  0.12500000000E+03 0.  0.
</event>
<event>
 5    0  0.5660959E-005  0.3047231E+03  0.7546771E-02  0.1082903E+00
         21   -1    0    0  502  501  0.00000000000E+00  0.00000000000E+00  0.13312116204E+04  0.13312116204E+04  0.00000000000E+00 0. -1.
         21   -1    0    0  501  502 -0.00000000000E+00 -0.00000000000E+00 -0.69753143385E+02  0.69753143385E+02  0.00000000000E+00 0. -1.
         25    1    1    2    0    0 -0.41012615810E+00  0.18914624408E+03  0.40351180677E+03  0.46284257373E+03  0.12500000000E+03 0.  0.
         25    1    1    2    0    0  0.89173817364E+02 -0.33196088804E+02  0.42442083624E+03  0.45256159388E+03  0.12500000000E+03 0.  0.
         25    1    1    2    0    0 -0.88763691206E+02 -0.15595015528E+03  0.43352583397E+03  0.48556059614E+03  0.12500000000E+03 0.  0.
</event>
<event>
 5    0  0.5660959E-005  0.3179402E+03  0.7546771E-02  0.1076601E+00
         21   -1    0    0  502  501  0.00000000000E+00  0.00000000000E+00  0.38783384616E+03  0.38783384616E+03  0.00000000000E+00 0. -1.
         21   -1    0    0  501  502 -0.00000000000E+00 -0.00000000000E+00 -0.26064247884E+03  0.26064247884E+03  0.00000000000E+00 0. -1.
         25    1    1    2    0    0  0.12884028340E+03  0.89966428543E+02 -0.67334053124E+02  0.21178444608E+03  0.12500000000E+03 0.  0.
         25    1    1    2    0    0 -0.13613998182E+03 -0.13011222969E+03  0.20451841306E+03  0.30482137104E+03  0.12500000000E+03 0.  0.
         25    1    1    2    0    0  0.72996984170E+01  0.40145801152E+02 -0.99929926154E+01  0.13187050788E+03  0.12500000000E+03 0.  0.
</event>
<event>
 5    0  0.5660959E-005  0.3994016E+03  0.7546771E-02  0.1043987E+00
         21   -1    0    0  502  501  0.00000000000E+00  0.00000000000E+00  0.34832807471E+03  0.34832807471E+03  0.00000000000E+00 0.  1.
         21   -1    0    0  501  502 -0.00000000000E+00 -0.00000000000E+00 -0.45796366245E+03  0.45796366245E+03  0.00000000000E+00 0.  1.
         25    1    1    2    0    0  0.45707833149E+02  0.15050175418E+03 -0.24900996452E+02  0.20244763186E+03  0.12500000000E+03 0.  0.
         25    1    1    2    0    0 -0.16713017451E+03 -0.24322211063E+03  0.97702715189E+02  0.33505269867E+03  0.12500000000E+03 0.  0.
         25    1    1    2    0    0  0.12142234136E+03  0.92720356457E+02 -0.18243730647E+03  0.26879140663E+03  0.12500000000E+03 0.  0.
</event>
<event>
 5    0  0.5660959E-005  0.2229826E+03  0.7546771E-02  0.1131679E+00
         21   -1    0    0  502  501  0.00000000000E+00  0.00000000000E+00  0.14913297322E+03  0.14913297322E+03  0.00000000000E+00 0.  1.
         21   -1    0    0  501  502 -0.00000000000E+00 -0.00000000000E+00 -0.33340202046E+03  0.33340202046E+03  0.00000000000E+00 0.  1.
         25    1    1    2    0    0 -0.36398487865E+02  0.32845632452E+01  0.38009429877E+02  0.13566633714E+03  0.12500000000E+03 0.  0.
         25    1    1    2    0    0 -0.24010596039E+02 -0.23019686085E+01 -0.10054635428E+03  0.16222323243E+03  0.12500000000E+03 0.  0.
         25    1    1    2    0    0  0.60409083904E+02 -0.98259463667E+00 -0.12173212284E+03  0.18464542410E+03  0.12500000000E+03 0.  0.
</event>
<event>
 5    0  0.5660959E-005  0.2127742E+03  0.7546771E-02  0.1139388E+00
         21   -1    0    0  502  501  0.00000000000E+00  0.00000000000E+00  0.98083835005E+03  0.98083835005E+03  0.00000000000E+00 0.  1.
         21   -1    0    0  501  502 -0.00000000000E+00 -0.00000000000E+00 -0.46157319937E+02  0.46157319937E+02  0.00000000000E+00 0.  1.
         25    1    1    2    0    0 -0.83530764401E+02  0.17053452285E+02  0.35330858806E+03  0.38434381383E+03  0.12500000000E+03 0.  0.
         25    1    1    2    0    0  0.50888614861E+02 -0.11937344072E+02  0.21495174518E+03  0.25408936236E+03  0.12500000000E+03 0.  0.
         25    1    1    2    0    0  0.32642149540E+02 -0.51161082133E+01  0.36642069688E+03  0.38856249380E+03  0.12500000000E+03 0.  0.
</event>
<event>
 5    0  0.5660959E-005  0.2879693E+03  0.7546771E-02  0.1091414E+00
         21   -1    0    0  502  501  0.00000000000E+00  0.00000000000E+00  0.42153892380E+03  0.42153892380E+03  0.00000000000E+00 0. -1.
         21   -1    0    0  501  502 -0.00000000000E+00 -0.00000000000E+00 -0.19672273394E+03  0.19672273394E+03  0.00000000000E+00 0. -1.
         25    1    1    2    0    0  0.89848609746E+02  0.77195185782E+02 -0.78337408420E+01  0.17238978182E+03  0.12500000000E+03 0.  0.
         25    1    1    2    0    0 -0.99240245246E+02 -0.16006598555E+03  0.10744691895E+03  0.25027901710E+03  0.12500000000E+03 0.  0.
         25    1    1    2    0    0  0.93916355001E+01  0.82870799772E+02  0.12520301174E+03  0.19559285882E+03  0.12500000000E+03 0.  0.
</event>
<event>
 5    0  0.5660959E-005  0.4321631E+03  0.7546771E-02  0.1033179E+00
         21   -1    0    0  502  501  0.00000000000E+00  0.00000000000E+00  0.21717240624E+04  0.21717240624E+04  0.00000000000E+00 0.  1.
         21   -1    0    0  501  502 -0.00000000000E+00 -0.00000000000E+00 -0.85998466564E+02  0.85998466564E+02  0.00000000000E+00 0.  1.
         25    1    1    2    0    0 -0.18237763974E+03 -0.14191787345E+03  0.25527525099E+03  0.36632327260E+03  0.12500000000E+03 0.  0.
         25    1    1    2    0    0  0.31601819757E+02  0.18961034105E+03  0.13657276960E+04  0.13848421917E+04  0.12500000000E+03 0.  0.
         25    1    1    2    0    0  0.15077581998E+03 -0.47692467601E+02  0.46472264890E+03  0.50655706466E+03  0.12500000000E+03 0.  0.
</event>
<event>
 5    0  0.5660959E-005  0.2688800E+03  0.7546771E-02  0.1101922E+00
         21   -1    0    0  502  501  0.00000000000E+00  0.00000000000E+00  0.19700353153E+04  0.19700353153E+04  0.00000000000E+00 0. -1.
         21   -1    0    0  501  502 -0.00000000000E+00 -0.00000000000E+00 -0.36698062339E+02  0.36698062339E+02  0.00000000000E+00 0. -1.
         25    1    1    2    0    0  0.21629604983E+02 -0.72170498985E+02  0.22357831888E+03  0.26699941087E+03  0.12500000000E+03 0.  0.
         25    1    1    2    0    0  0.54569124996E+02  0.94801172165E+02  0.71729226281E+03  0.73627321147E+03  0.12500000000E+03 0.  0.
         25    1    1    2    0    0 -0.76198729980E+02 -0.22630673180E+02  0.99246667129E+03  0.10034607553E+04  0.12500000000E+03 0.  0.
</event>
<event>
 5    0  0.5660959E-005  0.2282364E+03  0.7546771E-02  0.1127887E+00
         21   -1    0    0  502  501  0.00000000000E+00  0.00000000000E+00  0.73851679516E+02  0.73851679516E+02  0.00000000000E+00 0.  1.
         21   -1    0    0  501  502 -0.00000000000E+00 -0.00000000000E+00 -0.70535766003E+03  0.70535766003E+03  0.00000000000E+00 0.  1.
         25    1    1    2    0    0  0.78955756663E+02 -0.19914815371E+02 -0.40510794510E+03  0.43170366986E+03  0.12500000000E+03 0.  0.
         25    1    1    2    0    0 -0.34661834724E+02  0.17998588389E+02 -0.11576926155E+03  0.17479391835E+03  0.12500000000E+03 0.  0.
         25    1    1    2    0    0 -0.44293921938E+02  0.19162269823E+01 -0.11062877386E+03  0.17271175134E+03  0.12500000000E+03 0.  0.
</event>
<event>
 5    0  0.5660959E-005  0.2720291E+03  0.7546771E-02  0.1100124E+00
         21   -1    0    0  502  501  0.00000000000E+00  0.00000000000E+00  0.51524532731E+03  0.51524532731E+03  0.00000000000E+00 0.  1.
         21   -1    0    0  501  502 -0.00000000000E+00 -0.00000000000E+00 -0.14362053230E+03  0.14362053230E+03  0.00000000000E+00 0.  1.
         25    1    1    2    0    0 -0.50004801278E+02  0.49478351918E+02  0.63130164853E+00  0.14343634826E+03  0.12500000000E+03 0.  0.
         25    1    1    2    0    0 -0.85219082440E+02 -0.46079271815E+02  0.97782465478E+02  0.18593547767E+03  0.12500000000E+03 0.  0.
         25    1    1    2    0    0  0.13522388372E+03 -0.33990801040E+01  0.27321102789E+03  0.32949403368E+03  0.12500000000E+03 0.  0.
</event>
<event>
 5    0  0.5660959E-005  0.3795597E+03  0.7546771E-02  0.1051097E+00
         21   -1    0    0  502  501  0.00000000000E+00  0.00000000000E+00  0.10481216216E+04  0.10481216216E+04  0.00000000000E+00 0.  1.
         21   -1    0    0  501  502 -0.00000000000E+00 -0.00000000000E+00 -0.13745121347E+03  0.13745121347E+03  0.00000000000E+00 0.  1.
         25    1    1    2    0    0  0.10720111904E+03  0.34040919487E+02  0.13305321939E+03  0.21442719817E+03  0.12500000000E+03 0.  0.
         25    1    1    2    0    0  0.11524180442E+02  0.14111070352E+03  0.68161782873E+03  0.70729972559E+03  0.12500000000E+03 0.  0.
         25    1    1    2    0    0 -0.11872529949E+03 -0.17515162300E+03  0.95999359972E+02  0.26384591127E+03  0.12500000000E+03 0.  0.
</event>
<event>
 5    0  0.5660959E-005  0.2784888E+03  0.7546771E-02  0.1096517E+00
         21   -1    0    0  502  501  0.00000000000E+00  0.00000000000E+00  0.91317076457E+03  0.91317076457E+03  0.00000000000E+00 0.  1.
         21   -1    0    0  501  502 -0.00000000000E+00 -0.00000000000E+00 -0.84930437370E+02  0.84930437370E+02  0.00000000000E+00 0.  1.
         25    1    1    2    0    0 -0.13745954442E+03  0.90605416322E+01  0.14101795981E+03  0.23342725795E+03  0.12500000000E+03 0.  0.
         25    1    1    2    0    0  0.81852584705E+02 -0.44109171532E+02  0.53414148511E+03  0.55639697227E+03  0.12500000000E+03 0.  0.
         25    1    1    2    0    0  0.55606959719E+02  0.35048629900E+02  0.15308088229E+03  0.20827697172E+03  0.12500000000E+03 0.  0.
</event>
<event>
 5    0  0.5660959E-005  0.3466954E+03  0.7546771E-02  0.1063980E+00
         21   -1    0    0  502  501  0.00000000000E+00  0.00000000000E+00  0.13339803718E+04  0.13339803718E+04  0.00000000000E+00 0. -1.
         21   -1    0    0  501  502 -0.00000000000E+00 -0.00000000000E+00 -0.90104550433E+02  0.90104550433E+02  0.00000000000E+00 0. -1.
         25    1    1    2    0    0 -0.25351097951E+02  0.78375398368E+02  0.25662503614E+03  0.29709727432E+03  0.12500000000E+03 0.  0.
         25    1    1    2    0    0  0.72453553647E+02 -0.16635328117E+03  0.93211404526E+03  0.95780192366E+03  0.12500000000E+03 0.  0.
         25    1    1    2    0    0 -0.47102455696E+02  0.87977882801E+02  0.55136739959E+02  0.16918572424E+03  0.12500000000E+03 0.  0.
</event>
<event>
 5    0  0.5660959E-005  0.3451022E+03  0.7546771E-02  0.1064643E+00
         21   -1    0    0  502  501  0.00000000000E+00  0.00000000000E+00  0.47167488347E+03  0.47167488347E+03  0.00000000000E+00 0. -1.
         21   -1    0    0  501  502 -0.00000000000E+00 -0.00000000000E+00 -0.25249501463E+03  0.25249501463E+03  0.00000000000E+00 0. -1.
         25    1    1    2    0    0 -0.14342046980E+03  0.16699738852E+03  0.41789874600E+02  0.25657153496E+03  0.12500000000E+03 0.  0.
         25    1    1    2    0    0  0.50295010202E+02 -0.22543843896E+03  0.79155537468E+02  0.27430398634E+03  0.12500000000E+03 0.  0.
         25    1    1    2    0    0  0.93125459598E+02  0.58441050436E+02  0.98234456772E+02  0.19329437679E+03  0.12500000000E+03 0.  0.
</event>
<event>
 5    0  0.5660959E-005  0.3013154E+03  0.7546771E-02  0.1084585E+00
         21   -1    0    0  502  501  0.00000000000E+00  0.00000000000E+00  0.55753637316E+03  0.55753637316E+03  0.00000000000E+00 0. -1.
         21   -1    0    0  501  502 -0.00000000000E+00 -0.00000000000E+00 -0.16284318018E+03  0.16284318018E+03  0.00000000000E+00 0. -1.
         25    1    1    2    0    0  0.11791420853E+03  0.11469317051E+03  0.12876936794E+03  0.24344369792E+03  0.12500000000E+03 0.  0.
         25    1    1    2    0    0 -0.15639572065E+03 -0.16095894966E+03  0.18144995554E+03  0.31450992238E+03  0.12500000000E+03 0.  0.
         25    1    1    2    0    0  0.38481512120E+02  0.46265779142E+02  0.84473869509E+02  0.16242593304E+03  0.12500000000E+03 0.  0.
</event>
<event>
 5    0  0.5696063E-005  0.3301627E+03  0.7546771E-02  0.1071065E+00
         21   -1    0    0  502  501  0.00000000000E+00  0.00000000000E+00  0.39388103287E+03  0.39388103287E+03  0.00000000000E+00 0.  1.
         21   -1    0    0  501  502 -0.00000000000E+00 -0.00000000000E+00 -0.27675204512E+03  0.27675204512E+03  0.00000000000E+00 0.  1.
         25    1    1    2    0    0 -0.39097331663E+02  0.85915250377E+02 -0.94353596074E+02  0.18285959828E+03  0.12500000000E+03 0.  0.
         25    1    1    2    0    0 -0.12694436650E+03 -0.10137672387E+03  0.22094973080E+02  0.20616813566E+03  0.12500000000E+03 0.  0.
         25    1    1    2    0    0  0.16604169816E+03  0.15461473490E+02  0.18938761074E+03  0.28160534404E+03  0.12500000000E+03 0.  0.
</event>
<event>
 5    0  0.5660959E-005  0.4416634E+03  0.7546771E-02  0.1030238E+00
         21   -1    0    0  502  501  0.00000000000E+00  0.00000000000E+00  0.67551578855E+03  0.67551578855E+03  0.00000000000E+00 0. -1.
         21   -1    0    0  501  502 -0.00000000000E+00 -0.00000000000E+00 -0.28876688090E+03  0.28876688090E+03  0.00000000000E+00 0. -1.
         25    1    1    2    0    0 -0.62749950108E+02  0.25786178254E+03  0.48110686579E+03  0.56348830639E+03  0.12500000000E+03 0.  0.
         25    1    1    2    0    0  0.53626639090E+02 -0.12591877914E+03  0.19108935700E+02  0.18633707839E+03  0.12500000000E+03 0.  0.
         25    1    1    2    0    0  0.91233110183E+01 -0.13194300340E+03 -0.11346689384E+03  0.21445728467E+03  0.12500000000E+03 0.  0.
</event>
<event>
 5    0  0.5660959E-005  0.2420741E+03  0.7546771E-02  0.1118419E+00
         21   -1    0    0  502  501  0.00000000000E+00  0.00000000000E+00  0.15501846717E+03  0.15501846717E+03  0.00000000000E+00 0. -1.
         21   -1    0    0  501  502 -0.00000000000E+00 -0.00000000000E+00 -0.37801868921E+03  0.37801868921E+03  0.00000000000E+00 0. -1.
         25    1    1    2    0    0 -0.13045774377E+03  0.33171922025E+02 -0.69440105086E+02  0.19638362333E+03  0.12500000000E+03 0.  0.
         25    1    1    2    0    0  0.92978980652E+02  0.23022119404E+02 -0.78418022891E+02  0.17592468599E+03  0.12500000000E+03 0.  0.
         25    1    1    2    0    0  0.37478763113E+02 -0.56194041429E+02 -0.75142094062E+02  0.16072884706E+03  0.12500000000E+03 0.  0.
</event>
<event>
 5    0  0.5660959E-005  0.3862032E+03  0.7546771E-02  0.1048665E+00
         21   -1    0    0  502  501  0.00000000000E+00  0.00000000000E+00  0.60050137080E+03  0.60050137080E+03  0.00000000000E+00 0.  1.
         21   -1    0    0  501  502 -0.00000000000E+00 -0.00000000000E+00 -0.24838063514E+03  0.24838063514E+03  0.00000000000E+00 0.  1.
         25    1    1    2    0    0  0.91765891748E+02  0.30423939724E+03  0.17900800034E+03  0.38555343846E+03  0.12500000000E+03 0.  0.
         25    1    1    2    0    0 -0.12091614306E+03 -0.16963267511E+03  0.11233122532E+03  0.26765511820E+03  0.12500000000E+03 0.  0.
         25    1    1    2    0    0  0.29150251308E+02 -0.13460672213E+03  0.60781509995E+02  0.19567344928E+03  0.12500000000E+03 0.  0.
</event>
<event>
 5    0  0.5660959E-005  0.3390888E+03  0.7546771E-02  0.1067185E+00
         21   -1    0    0  502  501  0.00000000000E+00  0.00000000000E+00  0.34672900769E+03  0.34672900769E+03  0.00000000000E+00 0. -1.
         21   -1    0    0  501  502 -0.00000000000E+00 -0.00000000000E+00 -0.33161696469E+03  0.33161696469E+03  0.00000000000E+00 0. -1.
         25    1    1    2    0    0  0.32574371996E+02  0.48883868894E+02  0.18680366482E+03  0.23231730788E+03  0.12500000000E+03 0.  0.
         25    1    1    2    0    0  0.24238644273E+01  0.15649687425E+02 -0.25095522172E+03  0.28081009801E+03  0.12500000000E+03 0.  0.
         25    1    1    2    0    0 -0.34998236423E+02 -0.64533556319E+02  0.79263599902E+02  0.16521856649E+03  0.12500000000E+03 0.  0.
</event>
<event>
 5    0  0.6284553E-005  0.2858233E+03  0.7546771E-02  0.1092550E+00
         21   -1    0    0  502  501  0.00000000000E+00  0.00000000000E+00  0.30059517793E+03  0.30059517793E+03  0.00000000000E+00 0. -1.
         21   -1    0    0  501  502 -0.00000000000E+00 -0.00000000000E+00 -0.27177743351E+03  0.27177743351E+03  0.00000000000E+00 0. -1.
         25    1    1    2    0    0 -0.11493384920E+03 -0.27139132221E+02 -0.31682681111E+02  0.17485741183E+03  0.12500000000E+03 0.  0.
         25    1    1    2    0    0  0.20123808281E+03  0.34576946506E+02  0.53251371652E+02  0.24526116648E+03  0.12500000000E+03 0.  0.
         25    1    1    2    0    0 -0.86304233605E+02 -0.74378142844E+01  0.72490538806E+01  0.15225403312E+03  0.12500000000E+03 0.  0.
</event>
<event>
 5    0  0.5660959E-005  0.3383544E+03  0.7546771E-02  0.1067499E+00
         21   -1    0    0  502  501  0.00000000000E+00  0.00000000000E+00  0.78433982484E+03  0.78433982484E+03  0.00000000000E+00 0. -1.
         21   -1    0    0  501  502 -0.00000000000E+00 -0.00000000000E+00 -0.14596185076E+03  0.14596185076E+03  0.00000000000E+00 0. -1.
         25    1    1    2    0    0 -0.30387580114E+02  0.22945858158E+03  0.40528131987E+03  0.48316932220E+03  0.12500000000E+03 0.  0.
         25    1    1    2    0    0 -0.34009720454E+02 -0.16459995693E+03  0.19825805073E+03  0.28841127160E+03  0.12500000000E+03 0.  0.
         25    1    1    2    0    0  0.64397300568E+02 -0.64858624651E+02  0.34838603486E+02  0.15872108179E+03  0.12500000000E+03 0.  0.
</event>
<event>
 5    0  0.5660959E-005  0.2972195E+03  0.7546771E-02  0.1086639E+00
         21   -1    0    0  502  501  0.00000000000E+00  0.00000000000E+00  0.18805709735E+03  0.18805709735E+03  0.00000000000E+00 0. -1.
         21   -1    0    0  501  502 -0.00000000000E+00 -0.00000000000E+00 -0.46974794628E+03  0.46974794628E+03  0.00000000000E+00 0. -1.
         25    1    1    2    0    0 -0.27361085997E+02 -0.19529279462E+02 -0.51917788297E+02  0.13946497239E+03  0.12500000000E+03 0.  0.
         25    1    1    2    0    0 -0.74764219378E+02  0.14628890999E+03  0.50133160900E+01  0.20649519855E+03  0.12500000000E+03 0.  0.
         25    1    1    2    0    0  0.10212530537E+03 -0.12675963053E+03 -0.23478637672E+03  0.31184487269E+03  0.12500000000E+03 0.  0.
</event>
<event>
 5    0  0.5660959E-005  0.2309743E+03  0.7546771E-02  0.1125956E+00
         21   -1    0    0  502  501  0.00000000000E+00  0.00000000000E+00  0.51296341689E+03  0.51296341689E+03  0.00000000000E+00 0. -1.
         21   -1    0    0  501  502 -0.00000000000E+00 -0.00000000000E+00 -0.10400180955E+03  0.10400180955E+03  0.00000000000E+00 0. -1.
         25    1    1    2    0    0 -0.61551416319E+02  0.32883063921E+02  0.40794214090E+02  0.14885913021E+03  0.12500000000E+03 0.  0.
         25    1    1    2    0    0 -0.12670993945E+02 -0.15333417000E+01  0.24366199578E+03  0.27415155191E+03  0.12500000000E+03 0.  0.
         25    1    1    2    0    0  0.74222410264E+02 -0.31349722221E+02  0.12450539747E+03  0.19395454433E+03  0.12500000000E+03 0.  0.
</event>
<event>
 5    0  0.5660959E-005  0.2109665E+03  0.7546771E-02  0.1140803E+00
         21   -1    0    0  502  501  0.00000000000E+00  0.00000000000E+00  0.82752258013E+03  0.82752258013E+03  0.00000000000E+00 0. -1.
         21   -1    0    0  501  502 -0.00000000000E+00 -0.00000000000E+00 -0.53783244639E+02  0.53783244639E+02  0.00000000000E+00 0. -1.
         25    1    1    2    0    0  0.14257342891E+01  0.11238872345E+02  0.17036908742E+03  0.21161042252E+03  0.12500000000E+03 0.  0.
         25    1    1    2    0    0 -0.65094326475E+02 -0.34019099148E+02  0.25296027957E+03  0.29156212629E+03  0.12500000000E+03 0.  0.
         25    1    1    2    0    0  0.63668592186E+02  0.22780226803E+02  0.35040996851E+03  0.37813327597E+03  0.12500000000E+03 0.  0.
</event>
<event>
 5    0  0.5660959E-005  0.3976988E+03  0.7546771E-02  0.1044579E+00
         21   -1    0    0  502  501  0.00000000000E+00  0.00000000000E+00  0.21541515456E+03  0.21541515456E+03  0.00000000000E+00 0.  1.
         21   -1    0    0  501  502 -0.00000000000E+00 -0.00000000000E+00 -0.73423024854E+03  0.73423024854E+03  0.00000000000E+00 0.  1.
         25    1    1    2    0    0  0.14448093276E+03  0.68176379947E+02 -0.28498424242E+03  0.34980534179E+03  0.12500000000E+03 0.  0.
         25    1    1    2    0    0 -0.14646767058E+03 -0.25231821758E+03 -0.74236949562E+02  0.32596531430E+03  0.12500000000E+03 0.  0.
         25    1    1    2    0    0  0.19867378237E+01  0.18414183763E+03 -0.15959390200E+03  0.27387474701E+03  0.12500000000E+03 0.  0.
</event>
<event>
 5    0  0.5660959E-005  0.4683694E+03  0.7546771E-02  0.1022381E+00
         21   -1    0    0  502  501  0.00000000000E+00  0.00000000000E+00  0.80844466699E+03  0.80844466699E+03  0.00000000000E+00 0.  1.
         21   -1    0    0  501  502 -0.00000000000E+00 -0.00000000000E+00 -0.27134806872E+03  0.27134806872E+03  0.00000000000E+00 0.  1.
         25    1    1    2    0    0 -0.15674448355E+03  0.13004070174E+03  0.18322975120E+03  0.30112714749E+03  0.12500000000E+03 0.  0.
         25    1    1    2    0    0  0.19632887309E+03 -0.24279987176E+03  0.46441671942E+03  0.57341494000E+03  0.12500000000E+03 0.  0.
         25    1    1    2    0    0 -0.39584389537E+02  0.11275917003E+03 -0.11054987234E+03  0.20525064822E+03  0.12500000000E+03 0.  0.
</event>
<event>
 5    0  0.5660959E-005  0.2856405E+03  0.7546771E-02  0.1092647E+00
         21   -1    0    0  502  501  0.00000000000E+00  0.00000000000E+00  0.10529933007E+03  0.10529933007E+03  0.00000000000E+00 0.  1.
         21   -1    0    0  501  502 -0.00000000000E+00 -0.00000000000E+00 -0.77484365273E+03  0.77484365273E+03  0.00000000000E+00 0.  1.
         25    1    1    2    0    0  0.29847253590E+02 -0.60512584213E+02 -0.14212603468E+03  0.20094138730E+03  0.12500000000E+03 0.  0.
         25    1    1    2    0    0 -0.51009935212E+02 -0.10761931053E+03 -0.92224640785E+02  0.19574042469E+03  0.12500000000E+03 0.  0.
         25    1    1    2    0    0  0.21162681622E+02  0.16813189474E+03 -0.43519364720E+03  0.48346117082E+03  0.12500000000E+03 0.  0.
</event>
<event>
 5    0  0.5660959E-005  0.2832088E+03  0.7546771E-02  0.1093949E+00
         21   -1    0    0  502  501  0.00000000000E+00  0.00000000000E+00  0.18705790224E+03  0.18705790224E+03  0.00000000000E+00 0.  1.
         21   -1    0    0  501  502 -0.00000000000E+00 -0.00000000000E+00 -0.42878281233E+03  0.42878281233E+03  0.00000000000E+00 0.  1.
         25    1    1    2    0    0 -0.55853324499E+02  0.23670559071E+02 -0.30365805076E+03  0.33393577378E+03  0.12500000000E+03 0.  0.
         25    1    1    2    0    0  0.11351972585E+02 -0.18094554823E+01 -0.15899797462E+02  0.12653041125E+03  0.12500000000E+03 0.  0.
         25    1    1    2    0    0  0.44501351914E+02 -0.21861103589E+02  0.77832938123E+02  0.15537452954E+03  0.12500000000E+03 0.  0.
</event>
<event>
 5    0  0.5660959E-005  0.2591167E+03  0.7546771E-02  0.1107675E+00
         21   -1    0    0  502  501  0.00000000000E+00  0.00000000000E+00  0.11292961845E+03  0.11292961845E+03  0.00000000000E+00 0. -1.
         21   -1    0    0  501  502 -0.00000000000E+00 -0.00000000000E+00 -0.59454261507E+03  0.59454261507E+03  0.00000000000E+00 0. -1.
         25    1    1    2    0    0  0.91103802513E+02  0.94248249343E+02 -0.20907855352E+03  0.27662515590E+03  0.12500000000E+03 0.  0.
         25    1    1    2    0    0  0.33228038233E+02 -0.51863671638E+02 -0.17890458342E+03  0.22677255771E+03  0.12500000000E+03 0.  0.
         25    1    1    2    0    0 -0.12433184075E+03 -0.42384577705E+02 -0.93629859688E+02  0.20407451991E+03  0.12500000000E+03 0.  0.
</event>
<event>
 5    0  0.7174796E-005  0.2834862E+03  0.7546771E-02  0.1093800E+00
         21   -1    0    0  502  501  0.00000000000E+00  0.00000000000E+00  0.24536967899E+03  0.24536967899E+03  0.00000000000E+00 0.  1.
         21   -1    0    0  501  502 -0.00000000000E+00 -0.00000000000E+00 -0.32752393061E+03  0.32752393061E+03  0.00000000000E+00 0.  1.
         25    1    1    2    0    0 -0.50788514572E+02  0.62975160047E+02  0.84745100540E+02  0.17132447595E+03  0.12500000000E+03 0.  0.
         25    1    1    2    0    0 -0.13181198383E+02 -0.14512291201E+03 -0.13775803051E+03  0.23629785981E+03  0.12500000000E+03 0.  0.
         25    1    1    2    0    0  0.63969712955E+02  0.82147751964E+02 -0.29141321651E+02  0.16527127384E+03  0.12500000000E+03 0.  0.
</event>
<event>
 5    0  0.6608015E-005  0.5976924E+03  0.7546771E-02  0.9910205E-01
         21   -1    0    0  502  501  0.00000000000E+00  0.00000000000E+00  0.83789809764E+03  0.83789809764E+03  0.00000000000E+00 0. -1.
         21   -1    0    0  501  502 -0.00000000000E+00 -0.00000000000E+00 -0.42634803334E+03  0.42634803334E+03  0.00000000000E+00 0. -1.
         25    1    1    2    0    0  0.39066446389E+03 -0.47992305857E+02  0.11391072781E+02  0.41313041683E+03  0.12500000000E+03 0.  0.
         25    1    1    2    0    0 -0.83953461008E+02  0.95039363520E+02 -0.13261752099E+03  0.22202042948E+03  0.12500000000E+03 0.  0.
         25    1    1    2    0    0 -0.30671100288E+03 -0.47047057662E+02  0.53277651250E+03  0.62909528467E+03  0.12500000000E+03 0.  0.
</event>
<event>
 5    0  0.5660959E-005  0.2809514E+03  0.7546771E-02  0.1095170E+00
         21   -1    0    0  502  501  0.00000000000E+00  0.00000000000E+00  0.65222983897E+03  0.65222983897E+03  0.00000000000E+00 0.  1.
         21   -1    0    0  501  502 -0.00000000000E+00 -0.00000000000E+00 -0.12102129100E+03  0.12102129100E+03  0.00000000000E+00 0.  1.
         25    1    1    2    0    0 -0.74387706005E+02 -0.15079589130E+02  0.17369373518E+03  0.22705822701E+03  0.12500000000E+03 0.  0.
         25    1    1    2    0    0 -0.10987961002E+03  0.39050656457E+02  0.77660150740E+02  0.18776203418E+03  0.12500000000E+03 0.  0.
         25    1    1    2    0    0  0.18426731603E+03 -0.23971067327E+02  0.27985466204E+03  0.35843086877E+03  0.12500000000E+03 0.  0.
</event>
<event>
 5    0  0.5660959E-005  0.5508593E+03  0.7546771E-02  0.1001295E+00
         21   -1    0    0  502  501  0.00000000000E+00  0.00000000000E+00  0.26831666510E+03  0.26831666510E+03  0.00000000000E+00 0. -1.
         21   -1    0    0  501  502 -0.00000000000E+00 -0.00000000000E+00 -0.11309248929E+04  0.11309248929E+04  0.00000000000E+00 0. -1.
         25    1    1    2    0    0  0.53098750497E+02  0.43503192435E+02 -0.50315729840E+02  0.15122393238E+03  0.12500000000E+03 0.  0.
         25    1    1    2    0    0 -0.17039618414E+03 -0.34730384702E+03 -0.49878771086E+02  0.40959457214E+03  0.12500000000E+03 0.  0.
         25    1    1    2    0    0  0.11729743364E+03  0.30380065459E+03 -0.76241372692E+03  0.83842305351E+03  0.12500000000E+03 0.  0.
</event>
<event>
 5    0  0.5660959E-005  0.2864483E+03  0.7546771E-02  0.1092218E+00
         21   -1    0    0  502  501  0.00000000000E+00  0.00000000000E+00  0.22428909810E+03  0.22428909810E+03  0.00000000000E+00 0.  1.
         21   -1    0    0  501  502 -0.00000000000E+00 -0.00000000000E+00 -0.36583424273E+03  0.36583424273E+03  0.00000000000E+00 0.  1.
         25    1    1    2    0    0 -0.13932555265E+03  0.12904996148E+03 -0.55462694144E+02  0.23402267545E+03  0.12500000000E+03 0.  0.
         25    1    1    2    0    0  0.61404801697E+01 -0.65715905859E+02  0.70118200868E+01  0.14152897725E+03  0.12500000000E+03 0.  0.
         25    1    1    2    0    0  0.13318507249E+03 -0.63334055626E+02 -0.93094270573E+02  0.21457168813E+03  0.12500000000E+03 0.  0.
</event>
<event>
 5    0  0.5660959E-005  0.3568048E+03  0.7546771E-02  0.1059856E+00
         21   -1    0    0  502  501  0.00000000000E+00  0.00000000000E+00  0.28953140781E+03  0.28953140781E+03  0.00000000000E+00 0.  1.
         21   -1    0    0  501  502 -0.00000000000E+00 -0.00000000000E+00 -0.43970943206E+03  0.43970943206E+03  0.00000000000E+00 0.  1.
         25    1    1    2    0    0 -0.11677306250E+03  0.23070073208E+02 -0.23624286262E+02  0.17421619702E+03  0.12500000000E+03 0.  0.
         25    1    1    2    0    0 -0.12209211444E+03  0.13524757496E+03 -0.94265088340E+01  0.22116114037E+03  0.12500000000E+03 0.  0.
         25    1    1    2    0    0  0.23886517694E+03 -0.15831764817E+03 -0.11712722916E+03  0.33386350248E+03  0.12500000000E+03 0.  0.
</event>
<event>
 5    0  0.7247499E-005  0.3071525E+03  0.7546771E-02  0.1081719E+00
         21   -1    0    0  502  501  0.00000000000E+00  0.00000000000E+00  0.62999179667E+03  0.62999179667E+03  0.00000000000E+00 0.  1.
         21   -1    0    0  501  502 -0.00000000000E+00 -0.00000000000E+00 -0.14975224096E+03  0.14975224096E+03  0.00000000000E+00 0.  1.
         25    1    1    2    0    0 -0.11734821879E+03  0.10374776895E+03  0.95815495318E+02  0.22212566974E+03  0.12500000000E+03 0.  0.
         25    1    1    2    0    0  0.15561688907E+03  0.41120770419E+01  0.31822930073E+03  0.37567061794E+03  0.12500000000E+03 0.  0.
         25    1    1    2    0    0 -0.38268670274E+02 -0.10785984599E+03  0.66194759662E+02  0.18194774994E+03  0.12500000000E+03 0.  0.
</event>
<event>
 5    0  0.5660959E-005  0.3209598E+03  0.7546771E-02  0.1075208E+00
         21   -1    0    0  502  501  0.00000000000E+00  0.00000000000E+00  0.17008893459E+03  0.17008893459E+03  0.00000000000E+00 0.  1.
         21   -1    0    0  501  502 -0.00000000000E+00 -0.00000000000E+00 -0.60565506749E+03  0.60565506749E+03  0.00000000000E+00 0.  1.
         25    1    1    2    0    0  0.48513615550E+01 -0.56031101131E+02 -0.39473869153E+02  0.14264012882E+03  0.12500000000E+03 0.  0.
         25    1    1    2    0    0 -0.15083847251E+03 -0.12131044404E+03 -0.21377805462E+03  0.31431596405E+03  0.12500000000E+03 0.  0.
         25    1    1    2    0    0  0.14598711095E+03  0.17734154517E+03 -0.18231420913E+03  0.31878790921E+03  0.12500000000E+03 0.  0.
</event>
<event>
 5    0  0.5768296E-005  0.2961763E+03  0.7546771E-02  0.1087168E+00
         21   -1    0    0  502  501  0.00000000000E+00  0.00000000000E+00  0.21414270092E+03  0.21414270092E+03  0.00000000000E+00 0. -1.
         21   -1    0    0  501  502 -0.00000000000E+00 -0.00000000000E+00 -0.40963528264E+03  0.40963528264E+03  0.00000000000E+00 0. -1.
         25    1    1    2    0    0  0.27317723358E+02  0.81231880180E+02 -0.89998315504E+01  0.15182514065E+03  0.12500000000E+03 0.  0.
         25    1    1    2    0    0 -0.10987064341E+03 -0.15497993753E+03 -0.20212550270E+03  0.30425327963E+03  0.12500000000E+03 0.  0.
         25    1    1    2    0    0  0.82552920054E+02  0.73748057352E+02  0.15632752529E+02  0.16769956328E+03  0.12500000000E+03 0.  0.
</event>
