<event>
 5    0  0.5539899E-005  0.3564059E+03  0.7546771E-02  0.1060016E+00
         21   -1    0    0  502  501  0.00000000000E+00  0.00000000000E+00  0.42656277550E+03  0.42656277550E+03  0.00000000000E+00 0. -1.
         21   -1    0    0  501  502 -0.00000000000E+00 -0.00000000000E+00 -0.29778775203E+03  0.29778775203E+03  0.00000000000E+00 0. -1.
         25    1    1    2    0    0  0.24353980345E+03 -0.15329137510E+03  0.24208526703E+02  0.31467591949E+03  0.12500000000E+03 0.  0.
         25    1    1    2    0    0 -0.93711904893E+02  0.10339622091E+03  0.11186659728E+02  0.18767749192E+03  0.12500000000E+03 0.  0.
         25    1    1    2    0    0 -0.14982789855E+03  0.49895154195E+02  0.93379837043E+02  0.22199711612E+03  0.12500000000E+03 0.  0.
</event>
<event>
 5    0  0.6295647E-005  0.2757027E+03  0.7546771E-02  0.1098059E+00
         21   -1    0    0  502  501  0.00000000000E+00  0.00000000000E+00  0.22884037329E+03  0.22884037329E+03  0.00000000000E+00 0.  1.
         21   -1    0    0  501  502 -0.00000000000E+00 -0.00000000000E+00 -0.33216146685E+03  0.33216146685E+03  0.00000000000E+00 0.  1.
         25    1    1    2    0    0  0.26540346633E+02  0.51327487290E+02  0.10253514980E+03  0.17168971401E+03  0.12500000000E+03 0.  0.
         25    1    1    2    0    0  0.23435017873E+02  0.71024175825E+02 -0.66354847266E+02  0.16006748380E+03  0.12500000000E+03 0.  0.
         25    1    1    2    0    0 -0.49975364506E+02 -0.12235166311E+03 -0.13950139610E+03  0.22924464233E+03  0.12500000000E+03 0.  0.
</event>
<event>
 5    0  0.5539899E-005  0.3855657E+03  0.7546771E-02  0.1048896E+00
         21   -1    0    0  502  501  0.00000000000E+00  0.00000000000E+00  0.18412109824E+04  0.18412109824E+04  0.00000000000E+00 0. -1.
         21   -1    0    0  501  502 -0.00000000000E+00 -0.00000000000E+00 -0.80740836414E+02  0.80740836414E+02  0.00000000000E+00 0. -1.
         25    1    1    2    0    0 -0.12666821430E+03  0.24661691943E+03  0.61996584205E+03  0.69054137224E+03  0.12500000000E+03 0.  0.
         25    1    1    2    0    0  0.10464324171E+03 -0.18283515596E+03  0.34379134173E+03  0.42213314124E+03  0.12500000000E+03 0.  0.
         25    1    1    2    0    0  0.22024972593E+02 -0.63781763470E+02  0.79671296217E+03  0.80927730529E+03  0.12500000000E+03 0.  0.
</event>
<event>
 5    0  0.5539899E-005  0.3673206E+03  0.7546771E-02  0.1055722E+00
         21   -1    0    0  502  501  0.00000000000E+00  0.00000000000E+00  0.13858073916E+03  0.13858073916E+03  0.00000000000E+00 0.  1.
         21   -1    0    0  501  502 -0.00000000000E+00 -0.00000000000E+00 -0.97361614204E+03  0.97361614204E+03  0.00000000000E+00 0.  1.
         25    1    1    2    0    0 -0.20353863218E+03  0.56998372679E+02 -0.38801477204E+03  0.45919195615E+03  0.12500000000E+03 0.  0.
         25    1    1    2    0    0  0.23516927380E+03  0.75444544046E+02 -0.34349328853E+03  0.44114522080E+03  0.12500000000E+03 0.  0.
         25    1    1    2    0    0 -0.31630641620E+02 -0.13244291673E+03 -0.10352734230E+03  0.21185970425E+03  0.12500000000E+03 0.  0.
</event>
<event>
 5    0  0.5539899E-005  0.4359194E+03  0.7546771E-02  0.1032006E+00
         21   -1    0    0  502  501  0.00000000000E+00  0.00000000000E+00  0.14947271801E+03  0.14947271801E+03  0.00000000000E+00 0. -1.
         21   -1    0    0  501  502 -0.00000000000E+00 -0.00000000000E+00 -0.12713068362E+04  0.12713068362E+04  0.00000000000E+00 0. -1.
         25    1    1    2    0    0  0.28794240370E+03  0.19281661962E+03 -0.29593305692E+03  0.47253618997E+03  0.12500000000E+03 0.  0.
         25    1    1    2    0    0 -0.12762091320E+03 -0.59361654976E+02 -0.19014805864E+03  0.26756716498E+03  0.12500000000E+03 0.  0.
         25    1    1    2    0    0 -0.16032149050E+03 -0.13345496464E+03 -0.63575300258E+03  0.68067619922E+03  0.12500000000E+03 0.  0.
</event>
<event>
 5    0  0.5539899E-005  0.3600003E+03  0.7546771E-02  0.1058584E+00
         21   -1    0    0  502  501  0.00000000000E+00  0.00000000000E+00  0.42258208168E+03  0.42258208168E+03  0.00000000000E+00 0. -1.
         21   -1    0    0  501  502 -0.00000000000E+00 -0.00000000000E+00 -0.30668647254E+03  0.30668647254E+03  0.00000000000E+00 0. -1.
         25    1    1    2    0    0  0.18826593066E+02 -0.16517681166E+03 -0.10918444238E+03  0.23491288210E+03  0.12500000000E+03 0.  0.
         25    1    1    2    0    0 -0.84788626888E+02  0.67062885738E+01  0.23762223524E+03  0.28164412339E+03  0.12500000000E+03 0.  0.
         25    1    1    2    0    0  0.65962033822E+02  0.15847052309E+03 -0.12542183717E+02  0.21271154874E+03  0.12500000000E+03 0.  0.
</event>
<event>
 5    0  0.5539899E-005  0.2597100E+03  0.7546771E-02  0.1107318E+00
         21   -1    0    0  502  501  0.00000000000E+00  0.00000000000E+00  0.31573374570E+03  0.31573374570E+03  0.00000000000E+00 0. -1.
         21   -1    0    0  501  502 -0.00000000000E+00 -0.00000000000E+00 -0.21362706173E+03  0.21362706173E+03  0.00000000000E+00 0. -1.
         25    1    1    2    0    0 -0.21071640676E+02  0.36488840872E+02  0.17222343476E+02  0.13303029228E+03  0.12500000000E+03 0.  0.
         25    1    1    2    0    0  0.70971407704E+01 -0.15517244747E+03 -0.89404430480E+01  0.19958404090E+03  0.12500000000E+03 0.  0.
         25    1    1    2    0    0  0.13974499906E+02  0.11868360660E+03  0.93824783544E+02  0.19674647425E+03  0.12500000000E+03 0.  0.
</event>
<event>
 5    0  0.5539899E-005  0.3731482E+03  0.7546771E-02  0.1053496E+00
         21   -1    0    0  502  501  0.00000000000E+00  0.00000000000E+00  0.53126775874E+03  0.53126775874E+03  0.00000000000E+00 0. -1.
         21   -1    0    0  501  502 -0.00000000000E+00 -0.00000000000E+00 -0.26208921296E+03  0.26208921296E+03  0.00000000000E+00 0. -1.
         25    1    1    2    0    0 -0.13340013855E+03  0.36800419379E+02  0.69427304893E+02  0.19898497053E+03  0.12500000000E+03 0.  0.
         25    1    1    2    0    0 -0.67857782553E+02 -0.59368869091E+02  0.29910275690E+03  0.33647704298E+03  0.12500000000E+03 0.  0.
         25    1    1    2    0    0  0.20125792110E+03  0.22568449712E+02 -0.99351516002E+02  0.25789495819E+03  0.12500000000E+03 0.  0.
</event>
<event>
 5    0  0.5539899E-005  0.3221864E+03  0.7546771E-02  0.1074647E+00
         21   -1    0    0  502  501  0.00000000000E+00  0.00000000000E+00  0.13117094475E+03  0.13117094475E+03  0.00000000000E+00 0. -1.
         21   -1    0    0  501  502 -0.00000000000E+00 -0.00000000000E+00 -0.79136491582E+03  0.79136491582E+03  0.00000000000E+00 0. -1.
         25    1    1    2    0    0  0.12043683332E+03 -0.76335981680E+02 -0.10498249578E+02  0.18991426003E+03  0.12500000000E+03 0.  0.
         25    1    1    2    0    0  0.13738325524E+02  0.89753202016E+02 -0.28402724878E+03  0.32332778555E+03  0.12500000000E+03 0.  0.
         25    1    1    2    0    0 -0.13417515885E+03 -0.13417220335E+02 -0.36566847271E+03  0.40929381499E+03  0.12500000000E+03 0.  0.
</event>
<event>
 5    0  0.5539899E-005  0.4728662E+03  0.7546771E-02  0.1021114E+00
         21   -1    0    0  502  501  0.00000000000E+00  0.00000000000E+00  0.32736439521E+03  0.32736439521E+03  0.00000000000E+00 0.  1.
         21   -1    0    0  501  502 -0.00000000000E+00 -0.00000000000E+00 -0.68303845084E+03  0.68303845084E+03  0.00000000000E+00 0.  1.
         25    1    1    2    0    0  0.17002033723E+03 -0.25914747385E+03 -0.24681207151E+02  0.33510966901E+03  0.12500000000E+03 0.  0.
         25    1    1    2    0    0 -0.17916403503E+03  0.11212592765E+03 -0.40066086507E+03  0.46992138055E+03  0.12500000000E+03 0.  0.
         25    1    1    2    0    0  0.91436977942E+01  0.14702154620E+03  0.69668016593E+02  0.20537179649E+03  0.12500000000E+03 0.  0.
</event>
<event>
 5    0  0.6983010E-005  0.3297590E+03  0.7546771E-02  0.1071244E+00
         21   -1    0    0  502  501  0.00000000000E+00  0.00000000000E+00  0.55157987181E+03  0.55157987181E+03  0.00000000000E+00 0. -1.
         21   -1    0    0  501  502 -0.00000000000E+00 -0.00000000000E+00 -0.19714456613E+03  0.19714456613E+03  0.00000000000E+00 0. -1.
         25    1    1    2    0    0 -0.32388954552E+02 -0.18171952097E+03  0.15442646507E+03  0.27118916238E+03  0.12500000000E+03 0.  0.
         25    1    1    2    0    0  0.11183594721E+03  0.12900776735E+02  0.18851691522E+03  0.25266051621E+03  0.12500000000E+03 0.  0.
         25    1    1    2    0    0 -0.79446992653E+02  0.16881874423E+03  0.11491925389E+02  0.22487475935E+03  0.12500000000E+03 0.  0.
</event>
<event>
 5    0  0.5539899E-005  0.3773108E+03  0.7546771E-02  0.1051932E+00
         21   -1    0    0  502  501  0.00000000000E+00  0.00000000000E+00  0.12511398563E+04  0.12511398563E+04  0.00000000000E+00 0.  1.
         21   -1    0    0  501  502 -0.00000000000E+00 -0.00000000000E+00 -0.11378697602E+03  0.11378697602E+03  0.00000000000E+00 0.  1.
         25    1    1    2    0    0 -0.82999889150E+02 -0.27851214400E+03  0.40760685916E+03  0.51597126624E+03  0.12500000000E+03 0.  0.
         25    1    1    2    0    0 -0.30514689570E+02  0.19137271324E+03  0.29452617453E+03  0.37406594223E+03  0.12500000000E+03 0.  0.
         25    1    1    2    0    0  0.11351457872E+03  0.87139430756E+02  0.43521984658E+03  0.47488962384E+03  0.12500000000E+03 0.  0.
</event>
<event>
 5    0  0.5539899E-005  0.2182838E+03  0.7546771E-02  0.1135169E+00
         21   -1    0    0  502  501  0.00000000000E+00  0.00000000000E+00  0.32978330841E+03  0.32978330841E+03  0.00000000000E+00 0. -1.
         21   -1    0    0  501  502 -0.00000000000E+00 -0.00000000000E+00 -0.14448216193E+03  0.14448216193E+03  0.00000000000E+00 0. -1.
         25    1    1    2    0    0 -0.43709019284E+01 -0.50621022989E+02 -0.10370539011E+02  0.13532974851E+03  0.12500000000E+03 0.  0.
         25    1    1    2    0    0 -0.35217315936E+02  0.31434518026E+01  0.13344109930E+03  0.18623014690E+03  0.12500000000E+03 0.  0.
         25    1    1    2    0    0  0.39588217864E+02  0.47477571186E+02  0.62230586191E+02  0.15270557494E+03  0.12500000000E+03 0.  0.
</event>
<event>
 5    0  0.5539899E-005  0.3431122E+03  0.7546771E-02  0.1065478E+00
         21   -1    0    0  502  501  0.00000000000E+00  0.00000000000E+00  0.18230410227E+04  0.18230410227E+04  0.00000000000E+00 0.  1.
         21   -1    0    0  501  502 -0.00000000000E+00 -0.00000000000E+00 -0.64576713786E+02  0.64576713786E+02  0.00000000000E+00 0.  1.
         25    1    1    2    0    0 -0.80732712403E+02  0.82790462269E+01  0.77776536225E+03  0.79191557137E+03  0.12500000000E+03 0.  0.
         25    1    1    2    0    0 -0.11871882866E+03 -0.11015196373E+03  0.26071798714E+03  0.33140079090E+03  0.12500000000E+03 0.  0.
         25    1    1    2    0    0  0.19945154107E+03  0.10187291750E+03  0.71998095954E+03  0.76430137424E+03  0.12500000000E+03 0.  0.
</event>
<event>
 5    0  0.5539899E-005  0.3344749E+03  0.7546771E-02  0.1069174E+00
         21   -1    0    0  502  501  0.00000000000E+00  0.00000000000E+00  0.83618895262E+02  0.83618895262E+02  0.00000000000E+00 0. -1.
         21   -1    0    0  501  502 -0.00000000000E+00 -0.00000000000E+00 -0.13378969087E+04  0.13378969087E+04  0.00000000000E+00 0. -1.
         25    1    1    2    0    0  0.16077460037E+03 -0.17246588715E+03 -0.45759743095E+03  0.52972951887E+03  0.12500000000E+03 0.  0.
         25    1    1    2    0    0 -0.37762797665E+02  0.14554846505E+03 -0.25219258876E+03  0.31911829530E+03  0.12500000000E+03 0.  0.
         25    1    1    2    0    0 -0.12301180271E+03  0.26917422099E+02 -0.54448799376E+03  0.57266798983E+03  0.12500000000E+03 0.  0.
</event>
<event>
 5    0  0.5539899E-005  0.2853344E+03  0.7546771E-02  0.1092811E+00
         21   -1    0    0  502  501  0.00000000000E+00  0.00000000000E+00  0.37672479659E+03  0.37672479659E+03  0.00000000000E+00 0.  1.
         21   -1    0    0  501  502 -0.00000000000E+00 -0.00000000000E+00 -0.21611459000E+03  0.21611459000E+03  0.00000000000E+00 0.  1.
         25    1    1    2    0    0 -0.44053457514E+02  0.11407961058E+02  0.10686711044E+03  0.17063536558E+03  0.12500000000E+03 0.  0.
         25    1    1    2    0    0 -0.10562311277E+03 -0.10358201803E+03 -0.18921957911E+02  0.19459834763E+03  0.12500000000E+03 0.  0.
         25    1    1    2    0    0  0.14967657028E+03  0.92174056969E+02  0.72665054071E+02  0.22760567338E+03  0.12500000000E+03 0.  0.
</event>
<event>
 5    0  0.5539899E-005  0.2368313E+03  0.7546771E-02  0.1121922E+00
         21   -1    0    0  502  501  0.00000000000E+00  0.00000000000E+00  0.67207407744E+03  0.67207407744E+03  0.00000000000E+00 0. -1.
         21   -1    0    0  501  502 -0.00000000000E+00 -0.00000000000E+00 -0.83456678492E+02  0.83456678492E+02  0.00000000000E+00 0. -1.
         25    1    1    2    0    0 -0.71836469714E+02  0.99280944004E+02  0.29166302027E+03  0.34016099368E+03  0.12500000000E+03 0.  0.
         25    1    1    2    0    0  0.62159449576E+02 -0.34426477454E+02  0.10960212816E+03  0.18079437497E+03  0.12500000000E+03 0.  0.
         25    1    1    2    0    0  0.96770201376E+01 -0.64854466550E+02  0.18735225051E+03  0.23457538729E+03  0.12500000000E+03 0.  0.
</event>
<event>
 5    0  0.5539899E-005  0.2491640E+03  0.7546771E-02  0.1113834E+00
         21   -1    0    0  502  501  0.00000000000E+00  0.00000000000E+00  0.37741257740E+03  0.37741257740E+03  0.00000000000E+00 0.  1.
         21   -1    0    0  501  502 -0.00000000000E+00 -0.00000000000E+00 -0.16449553952E+03  0.16449553952E+03  0.00000000000E+00 0.  1.
         25    1    1    2    0    0 -0.67375147247E+02 -0.68165669775E+02  0.15764052463E+03  0.22284861231E+03  0.12500000000E+03 0.  0.
         25    1    1    2    0    0  0.95370485591E+02  0.94364465851E+02  0.28015047521E+02  0.18549939306E+03  0.12500000000E+03 0.  0.
         25    1    1    2    0    0 -0.27995338345E+02 -0.26198796077E+02  0.27261465725E+02  0.13356011155E+03  0.12500000000E+03 0.  0.
</event>
<event>
 5    0  0.5539899E-005  0.3797839E+03  0.7546771E-02  0.1051014E+00
         21   -1    0    0  502  501  0.00000000000E+00  0.00000000000E+00  0.17571432249E+04  0.17571432249E+04  0.00000000000E+00 0. -1.
         21   -1    0    0  501  502 -0.00000000000E+00 -0.00000000000E+00 -0.82085405369E+02  0.82085405369E+02  0.00000000000E+00 0. -1.
         25    1    1    2    0    0 -0.57912028913E+02  0.14654938282E+03  0.95366916275E+03  0.97464885815E+03  0.12500000000E+03 0.  0.
         25    1    1    2    0    0  0.12047466734E+03 -0.89923449957E+02  0.68091315553E+03  0.70842649421E+03  0.12500000000E+03 0.  0.
         25    1    1    2    0    0 -0.62562638431E+02 -0.56625932860E+02  0.40475501236E+02  0.15615327790E+03  0.12500000000E+03 0.  0.
</event>
<event>
 5    0  0.5539899E-005  0.3689429E+03  0.7546771E-02  0.1055098E+00
         21   -1    0    0  502  501  0.00000000000E+00  0.00000000000E+00  0.56658301503E+03  0.56658301503E+03  0.00000000000E+00 0. -1.
         21   -1    0    0  501  502 -0.00000000000E+00 -0.00000000000E+00 -0.24024527677E+03  0.24024527677E+03  0.00000000000E+00 0. -1.
         25    1    1    2    0    0  0.36884818858E+02 -0.19637787641E+03 -0.77059995691E+01  0.23581590835E+03  0.12500000000E+03 0.  0.
         25    1    1    2    0    0  0.11609322222E+03 -0.60191813414E+01  0.18347069939E+03  0.25060000863E+03  0.12500000000E+03 0.  0.
         25    1    1    2    0    0 -0.15297804108E+03  0.20239705775E+03  0.15057303844E+03  0.32041237482E+03  0.12500000000E+03 0.  0.
</event>
<event>
 5    0  0.5539899E-005  0.2249670E+03  0.7546771E-02  0.1130233E+00
         21   -1    0    0  502  501  0.00000000000E+00  0.00000000000E+00  0.67657939184E+02  0.67657939184E+02  0.00000000000E+00 0. -1.
         21   -1    0    0  501  502 -0.00000000000E+00 -0.00000000000E+00 -0.74802989315E+03  0.74802989315E+03  0.00000000000E+00 0. -1.
         25    1    1    2    0    0  0.50829733940E+02 -0.86115698874E+01 -0.18170224055E+03  0.22649177736E+03  0.12500000000E+03 0.  0.
         25    1    1    2    0    0  0.32011241543E+02  0.74198787920E+02 -0.26431294823E+03  0.30334223958E+03  0.12500000000E+03 0.  0.
         25    1    1    2    0    0 -0.82840975483E+02 -0.65587218033E+02 -0.23435676519E+03  0.28585381540E+03  0.12500000000E+03 0.  0.
</event>
<event>
 5    0  0.5539899E-005  0.2491321E+03  0.7546771E-02  0.1113855E+00
         21   -1    0    0  502  501  0.00000000000E+00  0.00000000000E+00  0.11296717340E+04  0.11296717340E+04  0.00000000000E+00 0. -1.
         21   -1    0    0  501  502 -0.00000000000E+00 -0.00000000000E+00 -0.54942320847E+02  0.54942320847E+02  0.00000000000E+00 0. -1.
         25    1    1    2    0    0 -0.17509004829E+02  0.85386059119E+02  0.48819319828E+03  0.51142442569E+03  0.12500000000E+03 0.  0.
         25    1    1    2    0    0  0.67465105748E+02  0.38466518548E+02  0.24702734088E+03  0.28753907680E+03  0.12500000000E+03 0.  0.
         25    1    1    2    0    0 -0.49956100919E+02 -0.12385257767E+03  0.33950887395E+03  0.38565055232E+03  0.12500000000E+03 0.  0.
</event>
<event>
 5    0  0.5795721E-005  0.2947610E+03  0.7546771E-02  0.1087889E+00
         21   -1    0    0  502  501  0.00000000000E+00  0.00000000000E+00  0.15947293137E+03  0.15947293137E+03  0.00000000000E+00 0.  1.
         21   -1    0    0  501  502 -0.00000000000E+00 -0.00000000000E+00 -0.54482006618E+03  0.54482006618E+03  0.00000000000E+00 0.  1.
         25    1    1    2    0    0  0.92826882532E+01  0.47550161772E+02 -0.17387469051E+03  0.21955544672E+03  0.12500000000E+03 0.  0.
         25    1    1    2    0    0 -0.15456065543E+03 -0.11687440606E+03 -0.90388084172E+02  0.24767645984E+03  0.12500000000E+03 0.  0.
         25    1    1    2    0    0  0.14527796718E+03  0.69324244285E+02 -0.12108436012E+03  0.23706109099E+03  0.12500000000E+03 0.  0.
</event>
<event>
 5    0  0.5539899E-005  0.2690194E+03  0.7546771E-02  0.1101842E+00
         21   -1    0    0  502  501  0.00000000000E+00  0.00000000000E+00  0.57272350897E+03  0.57272350897E+03  0.00000000000E+00 0.  1.
         21   -1    0    0  501  502 -0.00000000000E+00 -0.00000000000E+00 -0.12636361691E+03  0.12636361691E+03  0.00000000000E+00 0.  1.
         25    1    1    2    0    0  0.46601872339E+02 -0.48785624885E+02  0.31015071710E+03  0.34113082390E+03  0.12500000000E+03 0.  0.
         25    1    1    2    0    0 -0.98294958571E+02  0.56178065966E+02  0.40478808623E+01  0.16869872352E+03  0.12500000000E+03 0.  0.
         25    1    1    2    0    0  0.51693086232E+02 -0.73924410815E+01  0.13216129410E+03  0.18925757847E+03  0.12500000000E+03 0.  0.
</event>
<event>
 5    0  0.5782264E-005  0.3347171E+03  0.7546771E-02  0.1069069E+00
         21   -1    0    0  502  501  0.00000000000E+00  0.00000000000E+00  0.13427713513E+03  0.13427713513E+03  0.00000000000E+00 0. -1.
         21   -1    0    0  501  502 -0.00000000000E+00 -0.00000000000E+00 -0.83436047595E+03  0.83436047595E+03  0.00000000000E+00 0. -1.
         25    1    1    2    0    0 -0.83692987157E+02  0.74767640939E+02 -0.73136323513E+01  0.16814638102E+03  0.12500000000E+03 0.  0.
         25    1    1    2    0    0  0.62777864983E+02  0.75864503847E+02 -0.50101412642E+03  0.52567731371E+03  0.12500000000E+03 0.  0.
         25    1    1    2    0    0  0.20915122174E+02 -0.15063214479E+03 -0.19175558204E+03  0.27481391635E+03  0.12500000000E+03 0.  0.
</event>
<event>
 5    0  0.5539899E-005  0.3242096E+03  0.7546771E-02  0.1073728E+00
         21   -1    0    0  502  501  0.00000000000E+00  0.00000000000E+00  0.10021906800E+04  0.10021906800E+04  0.00000000000E+00 0.  1.
         21   -1    0    0  501  502 -0.00000000000E+00 -0.00000000000E+00 -0.10488213143E+03  0.10488213143E+03  0.00000000000E+00 0.  1.
         25    1    1    2    0    0  0.31427972896E+02 -0.53581060332E+02  0.56576397475E+03  0.58272851537E+03  0.12500000000E+03 0.  0.
         25    1    1    2    0    0 -0.33176084366E+02 -0.87733193724E+02  0.16530062431E+02  0.15714963830E+03  0.12500000000E+03 0.  0.
         25    1    1    2    0    0  0.17481114700E+01  0.14131425406E+03  0.31501451141E+03  0.36719465777E+03  0.12500000000E+03 0.  0.
</event>
<event>
 5    0  0.5573283E-005  0.3454610E+03  0.7546771E-02  0.1064494E+00
         21   -1    0    0  502  501  0.00000000000E+00  0.00000000000E+00  0.27271680214E+03  0.27271680214E+03  0.00000000000E+00 0. -1.
         21   -1    0    0  501  502 -0.00000000000E+00 -0.00000000000E+00 -0.43760893442E+03  0.43760893442E+03  0.00000000000E+00 0. -1.
         25    1    1    2    0    0  0.36017938230E+02 -0.82912125252E+02  0.12672465341E+03  0.19963930016E+03  0.12500000000E+03 0.  0.
         25    1    1    2    0    0  0.58475161643E+02  0.11675883859E+03 -0.32993488941E+01  0.18079783357E+03  0.12500000000E+03 0.  0.
         25    1    1    2    0    0 -0.94493099873E+02 -0.33846713341E+02 -0.28831743679E+03  0.32988860284E+03  0.12500000000E+03 0.  0.
</event>
<event>
 5    0  0.5539899E-005  0.5593987E+03  0.7546771E-02  0.9993416E-01
         21   -1    0    0  502  501  0.00000000000E+00  0.00000000000E+00  0.55216783259E+03  0.55216783259E+03  0.00000000000E+00 0. -1.
         21   -1    0    0  501  502 -0.00000000000E+00 -0.00000000000E+00 -0.56672435901E+03  0.56672435901E+03  0.00000000000E+00 0. -1.
         25    1    1    2    0    0  0.13581901073E+03 -0.59739526514E+02  0.17282003924E+03  0.25982182485E+03  0.12500000000E+03 0.  0.
         25    1    1    2    0    0 -0.24504566937E+03  0.90145006481E+02 -0.45701086794E+03  0.54097822109E+03  0.12500000000E+03 0.  0.
         25    1    1    2    0    0  0.10922665864E+03 -0.30405479968E+02  0.26963430228E+03  0.31809214566E+03  0.12500000000E+03 0.  0.
</event>
<event>
 5    0  0.5539899E-005  0.2949016E+03  0.7546771E-02  0.1087817E+00
         21   -1    0    0  502  501  0.00000000000E+00  0.00000000000E+00  0.80793999573E+03  0.80793999573E+03  0.00000000000E+00 0. -1.
         21   -1    0    0  501  502 -0.00000000000E+00 -0.00000000000E+00 -0.10764038514E+03  0.10764038514E+03  0.00000000000E+00 0. -1.
         25    1    1    2    0    0  0.49764130099E+02  0.30554466910E+02  0.74007859946E+02  0.15656374876E+03  0.12500000000E+03 0.  0.
         25    1    1    2    0    0  0.30315651328E+02  0.14371337195E+03  0.35530415627E+03  0.40427542030E+03  0.12500000000E+03 0.  0.
         25    1    1    2    0    0 -0.80079781427E+02 -0.17426783886E+03  0.27098759437E+03  0.35474121181E+03  0.12500000000E+03 0.  0.
</event>
<event>
 5    0  0.5539899E-005  0.2531660E+03  0.7546771E-02  0.1111320E+00
         21   -1    0    0  502  501  0.00000000000E+00  0.00000000000E+00  0.13074667336E+03  0.13074667336E+03  0.00000000000E+00 0. -1.
         21   -1    0    0  501  502 -0.00000000000E+00 -0.00000000000E+00 -0.49020764329E+03  0.49020764329E+03  0.00000000000E+00 0. -1.
         25    1    1    2    0    0 -0.99230608397E+02  0.72829620193E+02 -0.43570805958E+02  0.18076028975E+03  0.12500000000E+03 0.  0.
         25    1    1    2    0    0  0.63797481608E+02 -0.85011085342E+00 -0.22763741143E+03  0.26742219884E+03  0.12500000000E+03 0.  0.
         25    1    1    2    0    0  0.35433126789E+02 -0.71979509340E+02 -0.88252752542E+02  0.17277182806E+03  0.12500000000E+03 0.  0.
</event>
<event>
 5    0  0.5539899E-005  0.5802345E+03  0.7546771E-02  0.9947283E-01
         21   -1    0    0  502  501  0.00000000000E+00  0.00000000000E+00  0.49876371289E+03  0.49876371289E+03  0.00000000000E+00 0. -1.
         21   -1    0    0  501  502 -0.00000000000E+00 -0.00000000000E+00 -0.67501326105E+03  0.67501326105E+03  0.00000000000E+00 0. -1.
         25    1    1    2    0    0 -0.10805842514E+02  0.11243622350E+03 -0.31160709052E+03  0.35423530238E+03  0.12500000000E+03 0.  0.
         25    1    1    2    0    0 -0.20681690855E+03 -0.34727044923E+03  0.20297873778E+03  0.46924979123E+03  0.12500000000E+03 0.  0.
         25    1    1    2    0    0  0.21762275107E+03  0.23483422573E+03 -0.67621195417E+02  0.35029188033E+03  0.12500000000E+03 0.  0.
</event>
<event>
 5    0  0.5539899E-005  0.2863163E+03  0.7546771E-02  0.1092288E+00
         21   -1    0    0  502  501  0.00000000000E+00  0.00000000000E+00  0.96839505311E+03  0.96839505311E+03  0.00000000000E+00 0.  1.
         21   -1    0    0  501  502 -0.00000000000E+00 -0.00000000000E+00 -0.84652457707E+02  0.84652457707E+02  0.00000000000E+00 0.  1.
         25    1    1    2    0    0  0.51293611301E+02  0.92414753005E+02  0.16662750114E+03  0.23358348672E+03  0.12500000000E+03 0.  0.
         25    1    1    2    0    0  0.68670807562E+02 -0.12630957309E+03  0.21522434858E+03  0.28743052776E+03  0.12500000000E+03 0.  0.
         25    1    1    2    0    0 -0.11996441886E+03  0.33894820088E+02  0.50189074568E+03  0.53203349633E+03  0.12500000000E+03 0.  0.
</event>
<event>
 5    0  0.5539899E-005  0.2563498E+03  0.7546771E-02  0.1109356E+00
         21   -1    0    0  502  501  0.00000000000E+00  0.00000000000E+00  0.13640098708E+04  0.13640098708E+04  0.00000000000E+00 0. -1.
         21   -1    0    0  501  502 -0.00000000000E+00 -0.00000000000E+00 -0.48177950594E+02  0.48177950594E+02  0.00000000000E+00 0. -1.
         25    1    1    2    0    0 -0.33635144442E+02  0.71354048605E+02  0.63285714663E+03  0.64988913765E+03  0.12500000000E+03 0.  0.
         25    1    1    2    0    0  0.65248065594E+02  0.12439636203E+02  0.14442854313E+03  0.20222922312E+03  0.12500000000E+03 0.  0.
         25    1    1    2    0    0 -0.31612921152E+02 -0.83793684808E+02  0.53854623047E+03  0.56006946065E+03  0.12500000000E+03 0.  0.
</event>
<event>
 5    0  0.5539899E-005  0.3123613E+03  0.7546771E-02  0.1079220E+00
         21   -1    0    0  502  501  0.00000000000E+00  0.00000000000E+00  0.10708558322E+04  0.10708558322E+04  0.00000000000E+00 0. -1.
         21   -1    0    0  501  502 -0.00000000000E+00 -0.00000000000E+00 -0.91113661101E+02  0.91113661101E+02  0.00000000000E+00 0. -1.
         25    1    1    2    0    0 -0.38023659380E+02  0.88382796842E+02  0.12727416018E+03  0.20268455614E+03  0.12500000000E+03 0.  0.
         25    1    1    2    0    0  0.33898459246E+02 -0.20594996243E+03  0.33451544319E+03  0.41363035950E+03  0.12500000000E+03 0.  0.
         25    1    1    2    0    0  0.41252001342E+01  0.11756716559E+03  0.51795256772E+03  0.54565457765E+03  0.12500000000E+03 0.  0.
</event>
<event>
 5    0  0.5539899E-005  0.4280205E+03  0.7546771E-02  0.1034487E+00
         21   -1    0    0  502  501  0.00000000000E+00  0.00000000000E+00  0.47225063856E+03  0.47225063856E+03  0.00000000000E+00 0.  1.
         21   -1    0    0  501  502 -0.00000000000E+00 -0.00000000000E+00 -0.38793279970E+03  0.38793279970E+03  0.00000000000E+00 0.  1.
         25    1    1    2    0    0 -0.22662482594E+03 -0.27172154542E+03  0.11798856713E+03  0.39336714651E+03  0.12500000000E+03 0.  0.
         25    1    1    2    0    0  0.22455095267E+02  0.11603295000E+03  0.28997350055E+02  0.17445263856E+03  0.12500000000E+03 0.  0.
         25    1    1    2    0    0  0.20416973068E+03  0.15568859542E+03 -0.62668078330E+02  0.29236365320E+03  0.12500000000E+03 0.  0.
</event>
<event>
 5    0  0.5539899E-005  0.2522928E+03  0.7546771E-02  0.1111864E+00
         21   -1    0    0  502  501  0.00000000000E+00  0.00000000000E+00  0.83347841679E+03  0.83347841679E+03  0.00000000000E+00 0. -1.
         21   -1    0    0  501  502 -0.00000000000E+00 -0.00000000000E+00 -0.76368679222E+02  0.76368679222E+02  0.00000000000E+00 0. -1.
         25    1    1    2    0    0  0.49640174646E+02 -0.71835005585E+02  0.16950850769E+03  0.22799681828E+03  0.12500000000E+03 0.  0.
         25    1    1    2    0    0 -0.12355310852E+02  0.10599699768E+03  0.14503791632E+03  0.21920085400E+03  0.12500000000E+03 0.  0.
         25    1    1    2    0    0 -0.37284863794E+02 -0.34161992097E+02  0.44256331356E+03  0.46264942373E+03  0.12500000000E+03 0.  0.
</event>
<event>
 5    0  0.5539899E-005  0.4403028E+03  0.7546771E-02  0.1030654E+00
         21   -1    0    0  502  501  0.00000000000E+00  0.00000000000E+00  0.46843053074E+03  0.46843053074E+03  0.00000000000E+00 0.  1.
         21   -1    0    0  501  502 -0.00000000000E+00 -0.00000000000E+00 -0.41386412004E+03  0.41386412004E+03  0.00000000000E+00 0.  1.
         25    1    1    2    0    0 -0.96433393635E+02  0.31515132973E+02 -0.19171185374E+03  0.25034184204E+03  0.12500000000E+03 0.  0.
         25    1    1    2    0    0  0.58676005736E+02  0.10751758955E+03  0.36674255082E+03  0.40635945208E+03  0.12500000000E+03 0.  0.
         25    1    1    2    0    0  0.37757387899E+02 -0.13903272252E+03 -0.12046428639E+03  0.22559335666E+03  0.12500000000E+03 0.  0.
</event>
<event>
 5    0  0.5539899E-005  0.2971649E+03  0.7546771E-02  0.1086667E+00
         21   -1    0    0  502  501  0.00000000000E+00  0.00000000000E+00  0.85769140676E+02  0.85769140676E+02  0.00000000000E+00 0.  1.
         21   -1    0    0  501  502 -0.00000000000E+00 -0.00000000000E+00 -0.10295890319E+04  0.10295890319E+04  0.00000000000E+00 0.  1.
         25    1    1    2    0    0 -0.49853078847E+02  0.11145376169E+03 -0.30606420535E+03  0.35243094112E+03  0.12500000000E+03 0.  0.
         25    1    1    2    0    0  0.16445315495E+03 -0.17961734230E+02 -0.43862792548E+03  0.48516690023E+03  0.12500000000E+03 0.  0.
         25    1    1    2    0    0 -0.11460007610E+03 -0.93492027457E+02 -0.19912776039E+03  0.27776033122E+03  0.12500000000E+03 0.  0.
</event>
<event>
 5    0  0.5539899E-005  0.2979167E+03  0.7546771E-02  0.1086287E+00
         21   -1    0    0  502  501  0.00000000000E+00  0.00000000000E+00  0.78200563414E+03  0.78200563414E+03  0.00000000000E+00 0. -1.
         21   -1    0    0  501  502 -0.00000000000E+00 -0.00000000000E+00 -0.11349578348E+03  0.11349578348E+03  0.00000000000E+00 0. -1.
         25    1    1    2    0    0  0.88286616172E+01  0.70951442182E+02  0.78718943501E+02  0.16411497336E+03  0.12500000000E+03 0.  0.
         25    1    1    2    0    0 -0.63394734884E+02  0.84202867478E+02  0.81441322604E+02  0.18266555321E+03  0.12500000000E+03 0.  0.
         25    1    1    2    0    0  0.54566073267E+02 -0.15515430966E+03  0.50834958455E+03  0.54872089105E+03  0.12500000000E+03 0.  0.
</event>
<event>
 5    0  0.5539899E-005  0.2215396E+03  0.7546771E-02  0.1132740E+00
         21   -1    0    0  502  501  0.00000000000E+00  0.00000000000E+00  0.45430778069E+03  0.45430778069E+03  0.00000000000E+00 0.  1.
         21   -1    0    0  501  502 -0.00000000000E+00 -0.00000000000E+00 -0.10803204588E+03  0.10803204588E+03  0.00000000000E+00 0.  1.
         25    1    1    2    0    0 -0.78584301101E+02  0.41553901057E+02  0.12940366309E+03  0.20068016119E+03  0.12500000000E+03 0.  0.
         25    1    1    2    0    0  0.32285562376E+02  0.25740721814E+02  0.58697639860E+02  0.14413658530E+03  0.12500000000E+03 0.  0.
         25    1    1    2    0    0  0.46298738725E+02 -0.67294622871E+02  0.15817443185E+03  0.21752308008E+03  0.12500000000E+03 0.  0.
</event>
<event>
 5    0  0.5539899E-005  0.2662576E+03  0.7546771E-02  0.1103441E+00
         21   -1    0    0  502  501  0.00000000000E+00  0.00000000000E+00  0.25024161025E+03  0.25024161025E+03  0.00000000000E+00 0. -1.
         21   -1    0    0  501  502 -0.00000000000E+00 -0.00000000000E+00 -0.28329870340E+03  0.28329870340E+03  0.00000000000E+00 0. -1.
         25    1    1    2    0    0  0.74485710658E+02  0.94440746389E+02 -0.99209560491E+02  0.19983671475E+03  0.12500000000E+03 0.  0.
         25    1    1    2    0    0 -0.12094029227E+03 -0.22110943201E+02  0.32683959332E+02  0.17834990692E+03  0.12500000000E+03 0.  0.
         25    1    1    2    0    0  0.46454581607E+02 -0.72329803188E+02  0.33468508001E+02  0.15535369197E+03  0.12500000000E+03 0.  0.
</event>
<event>
 5    0  0.5539899E-005  0.3003969E+03  0.7546771E-02  0.1085042E+00
         21   -1    0    0  502  501  0.00000000000E+00  0.00000000000E+00  0.31081801447E+03  0.31081801447E+03  0.00000000000E+00 0. -1.
         21   -1    0    0  501  502 -0.00000000000E+00 -0.00000000000E+00 -0.29032519459E+03  0.29032519459E+03  0.00000000000E+00 0. -1.
         25    1    1    2    0    0 -0.10545270661E+03 -0.45191565399E+02  0.12420151775E+03  0.21027022596E+03  0.12500000000E+03 0.  0.
         25    1    1    2    0    0 -0.30710187867E+02 -0.28843968874E+02  0.48187272012E+02  0.14043540637E+03  0.12500000000E+03 0.  0.
         25    1    1    2    0    0  0.13616289448E+03  0.74035534273E+02 -0.15189596988E+03  0.25043757672E+03  0.12500000000E+03 0.  0.
</event>
<event>
 5    0  0.5539899E-005  0.5580999E+03  0.7546771E-02  0.9996363E-01
         21   -1    0    0  502  501  0.00000000000E+00  0.00000000000E+00  0.11199707425E+04  0.11199707425E+04  0.00000000000E+00 0. -1.
         21   -1    0    0  501  502 -0.00000000000E+00 -0.00000000000E+00 -0.27811035328E+03  0.27811035328E+03  0.00000000000E+00 0. -1.
         25    1    1    2    0    0 -0.24780284218E+03 -0.20207287693E+03  0.55744223074E+03  0.65468048451E+03  0.12500000000E+03 0.  0.
         25    1    1    2    0    0 -0.20666874510E+02 -0.72508445298E+02 -0.10699851947E+03  0.18099247916E+03  0.12500000000E+03 0.  0.
         25    1    1    2    0    0  0.26846971669E+03  0.27458132223E+03  0.39141667795E+03  0.56240813212E+03  0.12500000000E+03 0.  0.
</event>
<event>
 5    0  0.5621718E-005  0.3311597E+03  0.7546771E-02  0.1070625E+00
         21   -1    0    0  502  501  0.00000000000E+00  0.00000000000E+00  0.77766785871E+03  0.77766785871E+03  0.00000000000E+00 0. -1.
         21   -1    0    0  501  502 -0.00000000000E+00 -0.00000000000E+00 -0.14102004010E+03  0.14102004010E+03  0.00000000000E+00 0. -1.
         25    1    1    2    0    0  0.15734319044E+03 -0.87643664690E+02  0.17338638310E+03  0.27951051748E+03  0.12500000000E+03 0.  0.
         25    1    1    2    0    0 -0.17923372115E+03 -0.73719113965E+02  0.29021205364E+03  0.37068486702E+03  0.12500000000E+03 0.  0.
         25    1    1    2    0    0  0.21890530718E+02  0.16136277865E+03  0.17304938188E+03  0.26849251431E+03  0.12500000000E+03 0.  0.
</event>
<event>
 5    0  0.5539899E-005  0.2789773E+03  0.7546771E-02  0.1096249E+00
         21   -1    0    0  502  501  0.00000000000E+00  0.00000000000E+00  0.13286611070E+04  0.13286611070E+04  0.00000000000E+00 0. -1.
         21   -1    0    0  501  502 -0.00000000000E+00 -0.00000000000E+00 -0.58576506149E+02  0.58576506149E+02  0.00000000000E+00 0. -1.
         25    1    1    2    0    0 -0.46889808593E+02 -0.36520918086E+01  0.39054904858E+03  0.41275362054E+03  0.12500000000E+03 0.  0.
         25    1    1    2    0    0  0.15399411469E+03 -0.38895275525E+02  0.24523664544E+03  0.31779402462E+03  0.12500000000E+03 0.  0.
         25    1    1    2    0    0 -0.10710430609E+03  0.42547367334E+02  0.63429890685E+03  0.65668996801E+03  0.12500000000E+03 0.  0.
</event>
<event>
 5    0  0.5539899E-005  0.2988777E+03  0.7546771E-02  0.1085803E+00
         21   -1    0    0  502  501  0.00000000000E+00  0.00000000000E+00  0.29315692753E+04  0.29315692753E+04  0.00000000000E+00 0.  1.
         21   -1    0    0  501  502 -0.00000000000E+00 -0.00000000000E+00 -0.30471011382E+02  0.30471011382E+02  0.00000000000E+00 0.  1.
         25    1    1    2    0    0 -0.22023107086E+02 -0.18944388367E+03  0.14260930382E+04  0.14442092493E+04  0.12500000000E+03 0.  0.
         25    1    1    2    0    0  0.26981661792E+02  0.39579074080E+02  0.32688311659E+03  0.35323092318E+03  0.12500000000E+03 0.  0.
         25    1    1    2    0    0 -0.49585547059E+01  0.14986480959E+03  0.11481221091E+04  0.11646001142E+04  0.12500000000E+03 0.  0.
</event>
<event>
 5    0  0.5539899E-005  0.3254769E+03  0.7546771E-02  0.1073156E+00
         21   -1    0    0  502  501  0.00000000000E+00  0.00000000000E+00  0.33035503683E+03  0.33035503683E+03  0.00000000000E+00 0. -1.
         21   -1    0    0  501  502 -0.00000000000E+00 -0.00000000000E+00 -0.32067075802E+03  0.32067075802E+03  0.00000000000E+00 0. -1.
         25    1    1    2    0    0  0.10599745670E+03  0.62462744014E+02 -0.86222037924E+02  0.19543872452E+03  0.12500000000E+03 0.  0.
         25    1    1    2    0    0 -0.19887697038E+03  0.50964204715E+02  0.10592555317E+03  0.26266827430E+03  0.12500000000E+03 0.  0.
         25    1    1    2    0    0  0.92879513679E+02 -0.11342694873E+03 -0.10019236440E+02  0.19291879602E+03  0.12500000000E+03 0.  0.
</event>
<event>
 5    0  0.5539899E-005  0.2581374E+03  0.7546771E-02  0.1108268E+00
         21   -1    0    0  502  501  0.00000000000E+00  0.00000000000E+00  0.34592316691E+03  0.34592316691E+03  0.00000000000E+00 0.  1.
         21   -1    0    0  501  502 -0.00000000000E+00 -0.00000000000E+00 -0.19262918248E+03  0.19262918248E+03  0.00000000000E+00 0.  1.
         25    1    1    2    0    0  0.43863743717E+02 -0.84520336076E+01  0.82900500097E+02  0.15650226133E+03  0.12500000000E+03 0.  0.
         25    1    1    2    0    0 -0.11291992522E+03 -0.92697211278E+02  0.76528656810E+02  0.20694278872E+03  0.12500000000E+03 0.  0.
         25    1    1    2    0    0  0.69056181501E+02  0.10114924489E+03 -0.61351724770E+01  0.17510729935E+03  0.12500000000E+03 0.  0.
</event>
<event>
 5    0  0.5539899E-005  0.3734225E+03  0.7546771E-02  0.1053392E+00
         21   -1    0    0  502  501  0.00000000000E+00  0.00000000000E+00  0.57273882940E+03  0.57273882940E+03  0.00000000000E+00 0. -1.
         21   -1    0    0  501  502 -0.00000000000E+00 -0.00000000000E+00 -0.24346933707E+03  0.24346933707E+03  0.00000000000E+00 0. -1.
         25    1    1    2    0    0  0.22934798412E+03  0.14405649328E+02  0.17372843344E+03  0.31402959915E+03  0.12500000000E+03 0.  0.
         25    1    1    2    0    0 -0.41823804534E+02  0.10411169415E+01  0.22934929910E+03  0.26453055693E+03  0.12500000000E+03 0.  0.
         25    1    1    2    0    0 -0.18752417959E+03 -0.15446766270E+02 -0.73808240216E+02  0.23764801039E+03  0.12500000000E+03 0.  0.
</event>
<event>
 5    0  0.5539899E-005  0.2878178E+03  0.7546771E-02  0.1091494E+00
         21   -1    0    0  502  501  0.00000000000E+00  0.00000000000E+00  0.26299377870E+04  0.26299377870E+04  0.00000000000E+00 0. -1.
         21   -1    0    0  501  502 -0.00000000000E+00 -0.00000000000E+00 -0.31498496816E+02  0.31498496816E+02  0.00000000000E+00 0. -1.
         25    1    1    2    0    0 -0.11406322328E+03  0.90793910244E+02  0.81778554602E+03  0.84003104248E+03  0.12500000000E+03 0.  0.
         25    1    1    2    0    0  0.23577890773E+02 -0.15350470000E+02  0.24786940951E+03  0.27902651851E+03  0.12500000000E+03 0.  0.
         25    1    1    2    0    0  0.90485332505E+02 -0.75443440244E+02  0.15327843347E+04  0.15423787229E+04  0.12500000000E+03 0.  0.
</event>
<event>
 5    0  0.5539899E-005  0.3743769E+03  0.7546771E-02  0.1053032E+00
         21   -1    0    0  502  501  0.00000000000E+00  0.00000000000E+00  0.16383222035E+04  0.16383222035E+04  0.00000000000E+00 0. -1.
         21   -1    0    0  501  502 -0.00000000000E+00 -0.00000000000E+00 -0.85549760301E+02  0.85549760301E+02  0.00000000000E+00 0. -1.
         25    1    1    2    0    0 -0.18282306596E+02  0.80491666582E+02  0.23631940695E+03  0.27979459113E+03  0.12500000000E+03 0.  0.
         25    1    1    2    0    0  0.21149943076E+03 -0.90443525473E+02  0.10902409086E+04  0.11212324823E+04  0.12500000000E+03 0.  0.
         25    1    1    2    0    0 -0.19321712416E+03  0.99518588910E+01  0.22621212765E+03  0.32284489040E+03  0.12500000000E+03 0.  0.
</event>
<event>
 5    0  0.5539899E-005  0.3661964E+03  0.7546771E-02  0.1056157E+00
         21   -1    0    0  502  501  0.00000000000E+00  0.00000000000E+00  0.15224786673E+03  0.15224786673E+03  0.00000000000E+00 0. -1.
         21   -1    0    0  501  502 -0.00000000000E+00 -0.00000000000E+00 -0.88079909900E+03  0.88079909900E+03  0.00000000000E+00 0.  1.
         25    1    1    2    0    0  0.93721766781E+02  0.26999361595E+03 -0.44679469225E+03  0.54491358878E+03  0.12500000000E+03 0.  0.
         25    1    1    2    0    0 -0.82678075364E+02 -0.20817551264E+03 -0.15733108204E+03  0.30091656250E+03  0.12500000000E+03 0.  0.
         25    1    1    2    0    0 -0.11043691417E+02 -0.61818103302E+02 -0.12442545798E+03  0.18721681444E+03  0.12500000000E+03 0.  0.
</event>
<event>
 5    0  0.5539899E-005  0.2845430E+03  0.7546771E-02  0.1093233E+00
         21   -1    0    0  502  501  0.00000000000E+00  0.00000000000E+00  0.15858191656E+04  0.15858191656E+04  0.00000000000E+00 0.  1.
         21   -1    0    0  501  502 -0.00000000000E+00 -0.00000000000E+00 -0.51055465295E+02  0.51055465295E+02  0.00000000000E+00 0.  1.
         25    1    1    2    0    0  0.39418650993E+02  0.90349933275E+02  0.88838688912E+03  0.90253709356E+03  0.12500000000E+03 0.  0.
         25    1    1    2    0    0  0.83039237561E+02 -0.63363807734E+02  0.22965666775E+03  0.28156290975E+03  0.12500000000E+03 0.  0.
         25    1    1    2    0    0 -0.12245788855E+03 -0.26986125540E+02  0.41672014344E+03  0.45277462759E+03  0.12500000000E+03 0.  0.
</event>
<event>
 5    0  0.5539899E-005  0.2878548E+03  0.7546771E-02  0.1091475E+00
         21   -1    0    0  502  501  0.00000000000E+00  0.00000000000E+00  0.73563370792E+03  0.73563370792E+03  0.00000000000E+00 0. -1.
         21   -1    0    0  501  502 -0.00000000000E+00 -0.00000000000E+00 -0.11263809471E+03  0.11263809471E+03  0.00000000000E+00 0. -1.
         25    1    1    2    0    0 -0.35339342790E+02 -0.15744632059E+03  0.21223553611E+03  0.29446075427E+03  0.12500000000E+03 0.  0.
         25    1    1    2    0    0  0.11860122962E+03  0.13370194934E+03  0.26457691073E+03  0.34288249389E+03  0.12500000000E+03 0.  0.
         25    1    1    2    0    0 -0.83261886830E+02  0.23744371248E+02  0.14618316637E+03  0.21092855448E+03  0.12500000000E+03 0.  0.
</event>
<event>
 5    0  0.5539899E-005  0.3702183E+03  0.7546771E-02  0.1054610E+00
         21   -1    0    0  502  501  0.00000000000E+00  0.00000000000E+00  0.28137657426E+03  0.28137657426E+03  0.00000000000E+00 0.  1.
         21   -1    0    0  501  502 -0.00000000000E+00 -0.00000000000E+00 -0.48711079245E+03  0.48711079245E+03  0.00000000000E+00 0.  1.
         25    1    1    2    0    0  0.33174741184E+02  0.17236564704E+03  0.44578030709E+02  0.22005154068E+03  0.12500000000E+03 0.  0.
         25    1    1    2    0    0 -0.13618988767E+03 -0.11535601299E+02 -0.26086333155E+03  0.31993035703E+03  0.12500000000E+03 0.  0.
         25    1    1    2    0    0  0.10301514649E+03 -0.16083004575E+03  0.10551082648E+02  0.22850546901E+03  0.12500000000E+03 0.  0.
</event>
<event>
 5    0  0.5539899E-005  0.3559328E+03  0.7546771E-02  0.1060206E+00
         21   -1    0    0  502  501  0.00000000000E+00  0.00000000000E+00  0.14834594144E+04  0.14834594144E+04  0.00000000000E+00 0. -1.
         21   -1    0    0  501  502 -0.00000000000E+00 -0.00000000000E+00 -0.85400475968E+02  0.85400475968E+02  0.00000000000E+00 0. -1.
         25    1    1    2    0    0 -0.23776349822E+03 -0.30255474321E+01  0.25271979506E+03  0.36882642237E+03  0.12500000000E+03 0.  0.
         25    1    1    2    0    0  0.83710718599E+02 -0.27995792435E+02  0.40492737442E+03  0.43287691941E+03  0.12500000000E+03 0.  0.
         25    1    1    2    0    0  0.15405277962E+03  0.31021339867E+02  0.74041176898E+03  0.76715654862E+03  0.12500000000E+03 0.  0.
</event>
<event>
 5    0  0.5539899E-005  0.4505167E+03  0.7546771E-02  0.1027568E+00
         21   -1    0    0  502  501  0.00000000000E+00  0.00000000000E+00  0.63949141881E+03  0.63949141881E+03  0.00000000000E+00 0. -1.
         21   -1    0    0  501  502 -0.00000000000E+00 -0.00000000000E+00 -0.31738544296E+03  0.31738544296E+03  0.00000000000E+00 0. -1.
         25    1    1    2    0    0 -0.46910584899E+02  0.11702686411E+03 -0.15757319880E+03  0.23738197674E+03  0.12500000000E+03 0.  0.
         25    1    1    2    0    0 -0.12811612286E+02 -0.12493213720E+03 -0.39964812890E+02  0.18164350411E+03  0.12500000000E+03 0.  0.
         25    1    1    2    0    0  0.59722197185E+02  0.79052730951E+01  0.51964398754E+03  0.53785138093E+03  0.12500000000E+03 0.  0.
</event>
<event>
 5    0  0.5539899E-005  0.2946712E+03  0.7546771E-02  0.1087935E+00
         21   -1    0    0  502  501  0.00000000000E+00  0.00000000000E+00  0.14013427381E+03  0.14013427381E+03  0.00000000000E+00 0. -1.
         21   -1    0    0  501  502 -0.00000000000E+00 -0.00000000000E+00 -0.61962801466E+03  0.61962801466E+03  0.00000000000E+00 0. -1.
         25    1    1    2    0    0 -0.13655705676E+03  0.99246561744E+02 -0.17355179784E+03  0.27247557010E+03  0.12500000000E+03 0.  0.
         25    1    1    2    0    0 -0.50436584252E+02 -0.69826648770E+02 -0.13647933010E+03  0.20413529203E+03  0.12500000000E+03 0.  0.
         25    1    1    2    0    0  0.18699364101E+03 -0.29419912974E+02 -0.16946261291E+03  0.28315142633E+03  0.12500000000E+03 0.  0.
</event>
<event>
 5    0  0.5539899E-005  0.3476727E+03  0.7546771E-02  0.1063574E+00
         21   -1    0    0  502  501  0.00000000000E+00  0.00000000000E+00  0.17125033553E+03  0.17125033553E+03  0.00000000000E+00 0. -1.
         21   -1    0    0  501  502 -0.00000000000E+00 -0.00000000000E+00 -0.70584578467E+03  0.70584578467E+03  0.00000000000E+00 0. -1.
         25    1    1    2    0    0 -0.74552772489E+02  0.14101094553E+03 -0.76334383357E+02  0.21655055005E+03  0.12500000000E+03 0.  0.
         25    1    1    2    0    0  0.23234459028E+02  0.68436118337E+02 -0.36823817686E+03  0.39553469794E+03  0.12500000000E+03 0.  0.
         25    1    1    2    0    0  0.51318313461E+02 -0.20944706387E+03 -0.90022888925E+02  0.26501087221E+03  0.12500000000E+03 0.  0.
</event>
<event>
 5    0  0.5539899E-005  0.4094165E+03  0.7546771E-02  0.1040567E+00
         21   -1    0    0  502  501  0.00000000000E+00  0.00000000000E+00  0.21443672357E+03  0.21443672357E+03  0.00000000000E+00 0.  1.
         21   -1    0    0  501  502 -0.00000000000E+00 -0.00000000000E+00 -0.78168472416E+03  0.78168472416E+03  0.00000000000E+00 0.  1.
         25    1    1    2    0    0  0.39845814575E+02 -0.95666072258E+02  0.65377519069E+02  0.17503972783E+03  0.12500000000E+03 0.  0.
         25    1    1    2    0    0 -0.17516161148E+03 -0.21217092817E+02 -0.54436233519E+03  0.58573638024E+03  0.12500000000E+03 0.  0.
         25    1    1    2    0    0  0.13531579690E+03  0.11688316507E+03 -0.88263184469E+02  0.23534533966E+03  0.12500000000E+03 0.  0.
</event>
<event>
 5    0  0.5539899E-005  0.3924767E+03  0.7546771E-02  0.1046416E+00
         21   -1    0    0  502  501  0.00000000000E+00  0.00000000000E+00  0.21409719558E+03  0.21409719558E+03  0.00000000000E+00 0. -1.
         21   -1    0    0  501  502 -0.00000000000E+00 -0.00000000000E+00 -0.71947661119E+03  0.71947661119E+03  0.00000000000E+00 0. -1.
         25    1    1    2    0    0  0.13142811233E+03 -0.10213503828E+03 -0.37269221389E+03  0.42688335766E+03  0.12500000000E+03 0.  0.
         25    1    1    2    0    0  0.86757581464E+02 -0.78198580048E+02 -0.27960472391E+01  0.17109854980E+03  0.12500000000E+03 0.  0.
         25    1    1    2    0    0 -0.21818569379E+03  0.18033361833E+03 -0.12989115448E+03  0.33559189932E+03  0.12500000000E+03 0.  0.
</event>
<event>
 5    0  0.5539899E-005  0.4472080E+03  0.7546771E-02  0.1028558E+00
         21   -1    0    0  502  501  0.00000000000E+00  0.00000000000E+00  0.97431161877E+02  0.97431161877E+02  0.00000000000E+00 0.  1.
         21   -1    0    0  501  502 -0.00000000000E+00 -0.00000000000E+00 -0.20526795383E+04  0.20526795383E+04  0.00000000000E+00 0.  1.
         25    1    1    2    0    0 -0.18825282909E+02 -0.20495592706E+03 -0.64266181955E+03  0.68629478916E+03  0.12500000000E+03 0.  0.
         25    1    1    2    0    0  0.17942265352E+02  0.37651188299E+03 -0.59392191442E+03  0.71445879052E+03  0.12500000000E+03 0.  0.
         25    1    1    2    0    0  0.88301755691E+00 -0.17155595593E+03 -0.71866464243E+03  0.74935712048E+03  0.12500000000E+03 0.  0.
</event>
<event>
 5    0  0.6006808E-005  0.3709230E+03  0.7546771E-02  0.1054341E+00
         21   -1    0    0  502  501  0.00000000000E+00  0.00000000000E+00  0.43481797707E+03  0.43481797707E+03  0.00000000000E+00 0. -1.
         21   -1    0    0  501  502 -0.00000000000E+00 -0.00000000000E+00 -0.31641716739E+03  0.31641716739E+03  0.00000000000E+00 0. -1.
         25    1    1    2    0    0 -0.13277405687E+03 -0.73317367103E+02  0.79167421752E+02  0.21188880849E+03  0.12500000000E+03 0.  0.
         25    1    1    2    0    0  0.55275960847E+02  0.10360821248E+03  0.23605574398E+03  0.29178315202E+03  0.12500000000E+03 0.  0.
         25    1    1    2    0    0  0.77498096028E+02 -0.30290845378E+02 -0.19682235605E+03  0.24756318394E+03  0.12500000000E+03 0.  0.
</event>
<event>
 5    0  0.5539899E-005  0.3061932E+03  0.7546771E-02  0.1082185E+00
         21   -1    0    0  502  501  0.00000000000E+00  0.00000000000E+00  0.61968155525E+03  0.61968155525E+03  0.00000000000E+00 0. -1.
         21   -1    0    0  501  502 -0.00000000000E+00 -0.00000000000E+00 -0.15129426731E+03  0.15129426731E+03  0.00000000000E+00 0. -1.
         25    1    1    2    0    0 -0.71146147994E+02  0.11839943174E+03  0.14573641702E+03  0.23652548078E+03  0.12500000000E+03 0.  0.
         25    1    1    2    0    0 -0.49749396724E+02  0.84134094871E+02  0.13216053530E+03  0.20650655071E+03  0.12500000000E+03 0.  0.
         25    1    1    2    0    0  0.12089554472E+03 -0.20253352661E+03  0.19049033563E+03  0.32794379107E+03  0.12500000000E+03 0.  0.
</event>
<event>
 5    0  0.5539899E-005  0.2568604E+03  0.7546771E-02  0.1109044E+00
         21   -1    0    0  502  501  0.00000000000E+00  0.00000000000E+00  0.17203576557E+04  0.17203576557E+04  0.00000000000E+00 0.  1.
         21   -1    0    0  501  502 -0.00000000000E+00 -0.00000000000E+00 -0.38350915116E+02  0.38350915116E+02  0.00000000000E+00 0.  1.
         25    1    1    2    0    0 -0.83643531838E+02 -0.33027196513E+02  0.87309732251E+03  0.88657259753E+03  0.12500000000E+03 0.  0.
         25    1    1    2    0    0 -0.18653605736E+01 -0.53166667712E+02  0.49274460323E+03  0.51112857300E+03  0.12500000000E+03 0.  0.
         25    1    1    2    0    0  0.85508892412E+02  0.86193864225E+02  0.31616481485E+03  0.36100740028E+03  0.12500000000E+03 0.  0.
</event>
<event>
 5    0  0.5539899E-005  0.2882466E+03  0.7546771E-02  0.1091268E+00
         21   -1    0    0  502  501  0.00000000000E+00  0.00000000000E+00  0.56519802129E+03  0.56519802129E+03  0.00000000000E+00 0. -1.
         21   -1    0    0  501  502 -0.00000000000E+00 -0.00000000000E+00 -0.14700348435E+03  0.14700348435E+03  0.00000000000E+00 0. -1.
         25    1    1    2    0    0 -0.65812224628E+02  0.72559206863E+02 -0.21613962035E+02  0.16027554638E+03  0.12500000000E+03 0.  0.
         25    1    1    2    0    0  0.34136714522E+02 -0.12048124894E+03  0.15332706179E+03  0.23412653523E+03  0.12500000000E+03 0.  0.
         25    1    1    2    0    0  0.31675510106E+02  0.47922042078E+02  0.28648143719E+03  0.31779942403E+03  0.12500000000E+03 0.  0.
</event>
<event>
 5    0  0.5539899E-005  0.5144347E+03  0.7546771E-02  0.1010078E+00
         21   -1    0    0  502  501  0.00000000000E+00  0.00000000000E+00  0.17683542119E+04  0.17683542119E+04  0.00000000000E+00 0.  1.
         21   -1    0    0  501  502 -0.00000000000E+00 -0.00000000000E+00 -0.14965501017E+03  0.14965501017E+03  0.00000000000E+00 0.  1.
         25    1    1    2    0    0 -0.33762744093E+03  0.26169182615E+03  0.54380257721E+03  0.70272408790E+03  0.12500000000E+03 0.  0.
         25    1    1    2    0    0  0.89992764131E+02 -0.24248570277E+03  0.49919598986E+03  0.57595108293E+03  0.12500000000E+03 0.  0.
         25    1    1    2    0    0  0.24763467680E+03 -0.19206123378E+02  0.57570063471E+03  0.63933405128E+03  0.12500000000E+03 0.  0.
</event>
<event>
 5    0  0.6262973E-005  0.2976608E+03  0.7546771E-02  0.1086416E+00
         21   -1    0    0  502  501  0.00000000000E+00  0.00000000000E+00  0.65291729353E+03  0.65291729353E+03  0.00000000000E+00 0. -1.
         21   -1    0    0  501  502 -0.00000000000E+00 -0.00000000000E+00 -0.13570167688E+03  0.13570167688E+03  0.00000000000E+00 0. -1.
         25    1    1    2    0    0 -0.78190829094E+02  0.11047691678E+03  0.27606561443E+03  0.33189784327E+03  0.12500000000E+03 0.  0.
         25    1    1    2    0    0  0.90538644391E+02 -0.11380273822E+03  0.26671252706E+03  0.32849487278E+03  0.12500000000E+03 0.  0.
         25    1    1    2    0    0 -0.12347815297E+02  0.33258214457E+01 -0.25562524845E+02  0.12822625436E+03  0.12500000000E+03 0.  0.
</event>
<event>
 5    0  0.5539899E-005  0.2704708E+03  0.7546771E-02  0.1101010E+00
         21   -1    0    0  502  501  0.00000000000E+00  0.00000000000E+00  0.78328769210E+02  0.78328769210E+02  0.00000000000E+00 0. -1.
         21   -1    0    0  501  502 -0.00000000000E+00 -0.00000000000E+00 -0.93394079911E+03  0.93394079911E+03  0.00000000000E+00 0. -1.
         25    1    1    2    0    0 -0.48299573963E+02  0.58695012170E+02 -0.46913334400E+03  0.49141535156E+03  0.12500000000E+03 0.  0.
         25    1    1    2    0    0 -0.66218848941E+01  0.50115979424E+02 -0.29363766397E+03  0.32311536401E+03  0.12500000000E+03 0.  0.
         25    1    1    2    0    0  0.54921458857E+02 -0.10881099159E+03 -0.92841021927E+02  0.19773885275E+03  0.12500000000E+03 0.  0.
</event>
<event>
 5    0  0.5539899E-005  0.3200676E+03  0.7546771E-02  0.1075618E+00
         21   -1    0    0  502  501  0.00000000000E+00  0.00000000000E+00  0.20813900234E+03  0.20813900234E+03  0.00000000000E+00 0.  1.
         21   -1    0    0  501  502 -0.00000000000E+00 -0.00000000000E+00 -0.49218694693E+03  0.49218694693E+03  0.00000000000E+00 0.  1.
         25    1    1    2    0    0  0.12902734158E+02  0.81895407025E+02 -0.55246735965E+02  0.15984536301E+03  0.12500000000E+03 0.  0.
         25    1    1    2    0    0  0.61646605533E+02  0.78056464566E+02 -0.27622000848E+03  0.31908558213E+03  0.12500000000E+03 0.  0.
         25    1    1    2    0    0 -0.74549339692E+02 -0.15995187159E+03  0.47418799862E+02  0.22139500413E+03  0.12500000000E+03 0.  0.
</event>
<event>
 5    0  0.5539899E-005  0.3208031E+03  0.7546771E-02  0.1075280E+00
         21   -1    0    0  502  501  0.00000000000E+00  0.00000000000E+00  0.82342249398E+03  0.82342249398E+03  0.00000000000E+00 0.  1.
         21   -1    0    0  501  502 -0.00000000000E+00 -0.00000000000E+00 -0.12498398239E+03  0.12498398239E+03  0.00000000000E+00 0.  1.
         25    1    1    2    0    0 -0.71631139929E+02  0.10372301022E+03  0.16109552138E+03  0.23972119235E+03  0.12500000000E+03 0.  0.
         25    1    1    2    0    0  0.90411273606E+02 -0.19984249834E+03  0.15897248306E+03  0.29834287809E+03  0.12500000000E+03 0.  0.
         25    1    1    2    0    0 -0.18780133677E+02  0.96119488124E+02  0.37837050715E+03  0.41034240592E+03  0.12500000000E+03 0.  0.
</event>
<event>
 5    0  0.5539899E-005  0.2954000E+03  0.7546771E-02  0.1087563E+00
         21   -1    0    0  502  501  0.00000000000E+00  0.00000000000E+00  0.37483512195E+03  0.37483512195E+03  0.00000000000E+00 0.  1.
         21   -1    0    0  501  502 -0.00000000000E+00 -0.00000000000E+00 -0.23279877552E+03  0.23279877552E+03  0.00000000000E+00 0.  1.
         25    1    1    2    0    0  0.15720935195E+03 -0.28224132085E+02  0.12317104415E+03  0.23729198910E+03  0.12500000000E+03 0.  0.
         25    1    1    2    0    0 -0.41068799148E+02  0.11827204681E+03  0.75002124266E+01  0.17707675315E+03  0.12500000000E+03 0.  0.
         25    1    1    2    0    0 -0.11614055281E+03 -0.90047914729E+02  0.11365089861E+02  0.19326515522E+03  0.12500000000E+03 0.  0.
</event>
<event>
 5    0  0.5539899E-005  0.2529350E+03  0.7546771E-02  0.1111464E+00
         21   -1    0    0  502  501  0.00000000000E+00  0.00000000000E+00  0.15506690148E+04  0.15506690148E+04  0.00000000000E+00 0. -1.
         21   -1    0    0  501  502 -0.00000000000E+00 -0.00000000000E+00 -0.41257109104E+02  0.41257109104E+02  0.00000000000E+00 0. -1.
         25    1    1    2    0    0 -0.25202787973E+02 -0.11076789586E+03  0.37481167636E+03  0.41111251503E+03  0.12500000000E+03 0.  0.
         25    1    1    2    0    0  0.94120417972E+02  0.43261876257E+02  0.69522409663E+03  0.71392701837E+03  0.12500000000E+03 0.  0.
         25    1    1    2    0    0 -0.68917629999E+02  0.67506019601E+02  0.43937613265E+03  0.46688659046E+03  0.12500000000E+03 0.  0.
</event>
<event>
 5    0  0.5910524E-005  0.3579498E+03  0.7546771E-02  0.1059399E+00
         21   -1    0    0  502  501  0.00000000000E+00  0.00000000000E+00  0.41648172823E+03  0.41648172823E+03  0.00000000000E+00 0.  1.
         21   -1    0    0  501  502 -0.00000000000E+00 -0.00000000000E+00 -0.30764387014E+03  0.30764387014E+03  0.00000000000E+00 0.  1.
         25    1    1    2    0    0  0.33934983383E+02  0.92624760631E+01  0.29097958718E+03  0.31864007394E+03  0.12500000000E+03 0.  0.
         25    1    1    2    0    0  0.42548651066E+02  0.11074811596E+03 -0.75904736696E+02  0.18831373277E+03  0.12500000000E+03 0.  0.
         25    1    1    2    0    0 -0.76483634449E+02 -0.12001059203E+03 -0.10623699240E+03  0.21717179166E+03  0.12500000000E+03 0.  0.
</event>
<event>
 5    0  0.5539899E-005  0.2526082E+03  0.7546771E-02  0.1111668E+00
         21   -1    0    0  502  501  0.00000000000E+00  0.00000000000E+00  0.59364150329E+02  0.59364150329E+02  0.00000000000E+00 0. -1.
         21   -1    0    0  501  502 -0.00000000000E+00 -0.00000000000E+00 -0.10749059521E+04  0.10749059521E+04  0.00000000000E+00 0. -1.
         25    1    1    2    0    0 -0.94297814272E+01  0.57546528538E+01 -0.75029668609E+02  0.14620700386E+03  0.12500000000E+03 0.  0.
         25    1    1    2    0    0  0.33354698264E+02  0.64753363262E+02 -0.32768061202E+03  0.35819703718E+03  0.12500000000E+03 0.  0.
         25    1    1    2    0    0 -0.23924916836E+02 -0.70508016116E+02 -0.61283152119E+03  0.62986606143E+03  0.12500000000E+03 0.  0.
</event>
<event>
 5    0  0.7545670E-005  0.6349460E+03  0.7546771E-02  0.9835444E-01
         21   -1    0    0  502  501  0.00000000000E+00  0.00000000000E+00  0.12528515993E+04  0.12528515993E+04  0.00000000000E+00 0.  1.
         21   -1    0    0  501  502 -0.00000000000E+00 -0.00000000000E+00 -0.32179099761E+03  0.32179099761E+03  0.00000000000E+00 0.  1.
         25    1    1    2    0    0  0.29290926677E+03  0.35373771743E+02  0.52278863227E+03  0.61317215879E+03  0.12500000000E+03 0.  0.
         25    1    1    2    0    0 -0.35581195821E+03 -0.28332625811E+03  0.47459357127E+03  0.66913375048E+03  0.12500000000E+03 0.  0.
         25    1    1    2    0    0  0.62902691435E+02  0.24795248637E+03 -0.66321601830E+02  0.29233668767E+03  0.12500000000E+03 0.  0.
</event>
<event>
 5    0  0.5539899E-005  0.2377873E+03  0.7546771E-02  0.1121276E+00
         21   -1    0    0  502  501  0.00000000000E+00  0.00000000000E+00  0.48556868450E+02  0.48556868450E+02  0.00000000000E+00 0. -1.
         21   -1    0    0  501  502 -0.00000000000E+00 -0.00000000000E+00 -0.11644654888E+04  0.11644654888E+04  0.00000000000E+00 0. -1.
         25    1    1    2    0    0  0.56104466996E+02  0.54644886202E+02 -0.40830350444E+03  0.43413192298E+03  0.12500000000E+03 0.  0.
         25    1    1    2    0    0 -0.10513194937E+03 -0.62307706549E+02 -0.51590958174E+03  0.54472256572E+03  0.12500000000E+03 0.  0.
         25    1    1    2    0    0  0.49027482374E+02  0.76628203471E+01 -0.19169553416E+03  0.23416786855E+03  0.12500000000E+03 0.  0.
</event>
<event>
 5    0  0.5539899E-005  0.2679916E+03  0.7546771E-02  0.1102435E+00
         21   -1    0    0  502  501  0.00000000000E+00  0.00000000000E+00  0.13328756703E+04  0.13328756703E+04  0.00000000000E+00 0.  1.
         21   -1    0    0  501  502 -0.00000000000E+00 -0.00000000000E+00 -0.53883118750E+02  0.53883118750E+02  0.00000000000E+00 0.  1.
         25    1    1    2    0    0 -0.75098544112E+01 -0.22158136825E+02  0.13777383022E+03  0.18749402453E+03  0.12500000000E+03 0.  0.
         25    1    1    2    0    0 -0.71282254361E+02  0.12155804380E+03  0.52201450750E+03  0.55496095704E+03  0.12500000000E+03 0.  0.
         25    1    1    2    0    0  0.78792108772E+02 -0.99399906970E+02  0.61920421384E+03  0.64430380749E+03  0.12500000000E+03 0.  0.
</event>
<event>
 5    0  0.5539899E-005  0.2036310E+03  0.7546771E-02  0.1146711E+00
         21   -1    0    0  502  501  0.00000000000E+00  0.00000000000E+00  0.15591979700E+03  0.15591979700E+03  0.00000000000E+00 0. -1.
         21   -1    0    0  501  502 -0.00000000000E+00 -0.00000000000E+00 -0.26594187401E+03  0.26594187401E+03  0.00000000000E+00 0. -1.
         25    1    1    2    0    0  0.50707415347E+02 -0.42192760655E+02 -0.55504117295E+02  0.15184590235E+03  0.12500000000E+03 0.  0.
         25    1    1    2    0    0 -0.52856013273E+02  0.17420506136E+02 -0.23298023732E+02  0.13879852335E+03  0.12500000000E+03 0.  0.
         25    1    1    2    0    0  0.21485979261E+01  0.24772254520E+02 -0.31219935976E+02  0.13121724532E+03  0.12500000000E+03 0.  0.
</event>
<event>
 5    0  0.5717658E-005  0.3438079E+03  0.7546771E-02  0.1065186E+00
         21   -1    0    0  502  501  0.00000000000E+00  0.00000000000E+00  0.59308901591E+03  0.59308901591E+03  0.00000000000E+00 0.  1.
         21   -1    0    0  501  502 -0.00000000000E+00 -0.00000000000E+00 -0.19930205130E+03  0.19930205130E+03  0.00000000000E+00 0.  1.
         25    1    1    2    0    0 -0.67321992877E+02 -0.26453082452E+02 -0.50980508950E+02  0.15315361109E+03  0.12500000000E+03 0.  0.
         25    1    1    2    0    0  0.73369980512E+01  0.18958095838E+03  0.31670070384E+03  0.38976801707E+03  0.12500000000E+03 0.  0.
         25    1    1    2    0    0  0.59984994826E+02 -0.16312787593E+03  0.12806676973E+03  0.24946943905E+03  0.12500000000E+03 0.  0.
</event>
<event>
 5    0  0.5539899E-005  0.3390193E+03  0.7546771E-02  0.1067214E+00
         21   -1    0    0  502  501  0.00000000000E+00  0.00000000000E+00  0.59212274033E+03  0.59212274033E+03  0.00000000000E+00 0. -1.
         21   -1    0    0  501  502 -0.00000000000E+00 -0.00000000000E+00 -0.19410518004E+03  0.19410518004E+03  0.00000000000E+00 0. -1.
         25    1    1    2    0    0 -0.55108783587E+02 -0.17332659993E+03  0.23036282088E+03  0.31901585778E+03  0.12500000000E+03 0.  0.
         25    1    1    2    0    0 -0.44813399811E+02 -0.61069226763E+02  0.20731390191E+02  0.14762276857E+03  0.12500000000E+03 0.  0.
         25    1    1    2    0    0  0.99922183398E+02  0.23439582670E+03  0.14692334922E+03  0.31958929402E+03  0.12500000000E+03 0.  0.
</event>
<event>
 5    0  0.5539899E-005  0.2877981E+03  0.7546771E-02  0.1091504E+00
         21   -1    0    0  502  501  0.00000000000E+00  0.00000000000E+00  0.72854943765E+02  0.72854943765E+02  0.00000000000E+00 0. -1.
         21   -1    0    0  501  502 -0.00000000000E+00 -0.00000000000E+00 -0.11368854556E+04  0.11368854556E+04  0.00000000000E+00 0. -1.
         25    1    1    2    0    0  0.20851961182E+02  0.88812507388E+02 -0.85500879116E+03  0.86890016614E+03  0.12500000000E+03 0.  0.
         25    1    1    2    0    0  0.78885975495E+01 -0.44257468257E+02 -0.11480676849E+03  0.17557490583E+03  0.12500000000E+03 0.  0.
         25    1    1    2    0    0 -0.28740558732E+02 -0.44555039131E+02 -0.94214952227E+02  0.16526532743E+03  0.12500000000E+03 0.  0.
</event>
<event>
 5    0  0.5539899E-005  0.3356434E+03  0.7546771E-02  0.1068667E+00
         21   -1    0    0  502  501  0.00000000000E+00  0.00000000000E+00  0.40791912761E+03  0.40791912761E+03  0.00000000000E+00 0.  1.
         21   -1    0    0  501  502 -0.00000000000E+00 -0.00000000000E+00 -0.27617353437E+03  0.27617353437E+03  0.00000000000E+00 0.  1.
         25    1    1    2    0    0  0.20631785089E+03 -0.14253420529E+03  0.31865482017E+02  0.28199905003E+03  0.12500000000E+03 0.  0.
         25    1    1    2    0    0 -0.21303652080E+02  0.69348559578E+01  0.17576047617E+02  0.12820239962E+03  0.12500000000E+03 0.  0.
         25    1    1    2    0    0 -0.18501419881E+03  0.13559934934E+03  0.82304063612E+02  0.27389121232E+03  0.12500000000E+03 0.  0.
</event>
<event>
 5    0  0.6539879E-005  0.3334984E+03  0.7546771E-02  0.1069599E+00
         21   -1    0    0  502  501  0.00000000000E+00  0.00000000000E+00  0.60837352983E+03  0.60837352983E+03  0.00000000000E+00 0.  1.
         21   -1    0    0  501  502 -0.00000000000E+00 -0.00000000000E+00 -0.18281725585E+03  0.18281725585E+03  0.00000000000E+00 0.  1.
         25    1    1    2    0    0  0.13151098551E+03  0.15225540212E+02  0.28987877604E+03  0.34231807020E+03  0.12500000000E+03 0.  0.
         25    1    1    2    0    0 -0.25201844316E+02  0.14792488638E+03  0.78726896029E+02  0.21057024749E+03  0.12500000000E+03 0.  0.
         25    1    1    2    0    0 -0.10630914119E+03 -0.16315042659E+03  0.56950601904E+02  0.23830246800E+03  0.12500000000E+03 0.  0.
</event>
<event>
 5    0  0.5539899E-005  0.2661969E+03  0.7546771E-02  0.1103476E+00
         21   -1    0    0  502  501  0.00000000000E+00  0.00000000000E+00  0.11999740103E+04  0.11999740103E+04  0.00000000000E+00 0.  1.
         21   -1    0    0  501  502 -0.00000000000E+00 -0.00000000000E+00 -0.59051938359E+02  0.59051938359E+02  0.00000000000E+00 0.  1.
         25    1    1    2    0    0 -0.40453320016E+01  0.10298798627E+03  0.43458084609E+03  0.46379780273E+03  0.12500000000E+03 0.  0.
         25    1    1    2    0    0 -0.66967684610E+02  0.45675083849E+02  0.20956848063E+03  0.25712804619E+03  0.12500000000E+03 0.  0.
         25    1    1    2    0    0  0.71013016611E+02 -0.14866307011E+03  0.49677274526E+03  0.53810009977E+03  0.12500000000E+03 0.  0.
</event>
<event>
 5    0  0.5789804E-005  0.2531602E+03  0.7546771E-02  0.1111324E+00
         21   -1    0    0  502  501  0.00000000000E+00  0.00000000000E+00  0.36596263532E+03  0.36596263532E+03  0.00000000000E+00 0. -1.
         21   -1    0    0  501  502 -0.00000000000E+00 -0.00000000000E+00 -0.17512734388E+03  0.17512734388E+03  0.00000000000E+00 0. -1.
         25    1    1    2    0    0  0.91717686873E+02  0.72537003530E+02 -0.28331202568E+02  0.17349757349E+03  0.12500000000E+03 0.  0.
         25    1    1    2    0    0 -0.46530156774E+02 -0.79363692174E+02  0.15676024372E+03  0.22059561450E+03  0.12500000000E+03 0.  0.
         25    1    1    2    0    0 -0.45187530099E+02  0.68266886442E+01  0.62406250288E+02  0.14699679122E+03  0.12500000000E+03 0.  0.
</event>
<event>
 5    0  0.5539899E-005  0.3145508E+03  0.7546771E-02  0.1078185E+00
         21   -1    0    0  502  501  0.00000000000E+00  0.00000000000E+00  0.10303862163E+03  0.10303862163E+03  0.00000000000E+00 0. -1.
         21   -1    0    0  501  502 -0.00000000000E+00 -0.00000000000E+00 -0.96024384513E+03  0.96024384513E+03  0.00000000000E+00 0. -1.
         25    1    1    2    0    0  0.22072346218E+02 -0.32915214133E+02 -0.76541698455E+02  0.15183619921E+03  0.12500000000E+03 0.  0.
         25    1    1    2    0    0 -0.10914283514E+03  0.54083400951E+02 -0.76293554816E+02  0.19048065315E+03  0.12500000000E+03 0.  0.
         25    1    1    2    0    0  0.87070488918E+02 -0.21168186817E+02 -0.70436997023E+03  0.72096561440E+03  0.12500000000E+03 0.  0.
</event>
<event>
 5    0  0.5539899E-005  0.2776154E+03  0.7546771E-02  0.1096999E+00
         21   -1    0    0  502  501  0.00000000000E+00  0.00000000000E+00  0.22853511665E+03  0.22853511665E+03  0.00000000000E+00 0.  1.
         21   -1    0    0  501  502 -0.00000000000E+00 -0.00000000000E+00 -0.33723624886E+03  0.33723624886E+03  0.00000000000E+00 0.  1.
         25    1    1    2    0    0  0.28826847037E+02  0.73434697570E+02 -0.21152862434E+02  0.14931873796E+03  0.12500000000E+03 0.  0.
         25    1    1    2    0    0  0.60765078668E+01 -0.19071703047E+03 -0.78696367306E+02  0.24130484431E+03  0.12500000000E+03 0.  0.
         25    1    1    2    0    0 -0.34903354904E+02  0.11728233290E+03 -0.88519024736E+01  0.17514778323E+03  0.12500000000E+03 0.  0.
</event>
<event>
 5    0  0.5539899E-005  0.2753305E+03  0.7546771E-02  0.1098267E+00
         21   -1    0    0  502  501  0.00000000000E+00  0.00000000000E+00  0.27389150194E+03  0.27389150194E+03  0.00000000000E+00 0.  1.
         21   -1    0    0  501  502 -0.00000000000E+00 -0.00000000000E+00 -0.27677708663E+03  0.27677708663E+03  0.00000000000E+00 0.  1.
         25    1    1    2    0    0 -0.46563304359E+02 -0.60490764299E+02  0.11628350465E+03  0.18701370894E+03  0.12500000000E+03 0.  0.
         25    1    1    2    0    0 -0.36481804659E+02 -0.14404771707E+02 -0.14335093514E+03  0.19419812081E+03  0.12500000000E+03 0.  0.
         25    1    1    2    0    0  0.83045109018E+02  0.74895536006E+02  0.24181845804E+02  0.16945675883E+03  0.12500000000E+03 0.  0.
</event>
<event>
 5    0  0.5539899E-005  0.3472336E+03  0.7546771E-02  0.1063756E+00
         21   -1    0    0  502  501  0.00000000000E+00  0.00000000000E+00  0.18164903278E+03  0.18164903278E+03  0.00000000000E+00 0. -1.
         21   -1    0    0  501  502 -0.00000000000E+00 -0.00000000000E+00 -0.66375909770E+03  0.66375909770E+03  0.00000000000E+00 0. -1.
         25    1    1    2    0    0  0.52749638868E+01 -0.95380259170E+02 -0.39956109720E+03  0.42941738376E+03  0.12500000000E+03 0.  0.
         25    1    1    2    0    0 -0.73655769475E+02  0.60211074216E+02  0.96595691472E+02  0.18440789963E+03  0.12500000000E+03 0.  0.
         25    1    1    2    0    0  0.68380805589E+02  0.35169184954E+02 -0.17914465920E+03  0.23158284708E+03  0.12500000000E+03 0.  0.
</event>
<event>
 5    0  0.5539899E-005  0.2888359E+03  0.7546771E-02  0.1090959E+00
         21   -1    0    0  502  501  0.00000000000E+00  0.00000000000E+00  0.18810672977E+03  0.18810672977E+03  0.00000000000E+00 0. -1.
         21   -1    0    0  501  502 -0.00000000000E+00 -0.00000000000E+00 -0.44350440658E+03  0.44350440658E+03  0.00000000000E+00 0. -1.
         25    1    1    2    0    0  0.12770755399E+03 -0.35184651664E+02 -0.22971593866E+03  0.29315796345E+03  0.12500000000E+03 0.  0.
         25    1    1    2    0    0  0.24559001162E+02 -0.14438284572E+02 -0.41310214220E+02  0.13469648250E+03  0.12500000000E+03 0.  0.
         25    1    1    2    0    0 -0.15226655515E+03  0.49622936236E+02  0.15628476073E+02  0.20375669040E+03  0.12500000000E+03 0.  0.
</event>
<event>
 5    0  0.5539899E-005  0.2731170E+03  0.7546771E-02  0.1099509E+00
         21   -1    0    0  502  501  0.00000000000E+00  0.00000000000E+00  0.22538527987E+03  0.22538527987E+03  0.00000000000E+00 0.  1.
         21   -1    0    0  501  502 -0.00000000000E+00 -0.00000000000E+00 -0.33095720313E+03  0.33095720313E+03  0.00000000000E+00 0.  1.
         25    1    1    2    0    0  0.70870121747E+02  0.12637310633E+03  0.75568065330E+01  0.19150676616E+03  0.12500000000E+03 0.  0.
         25    1    1    2    0    0 -0.34328701019E+02 -0.43797949856E+02  0.44930295951E+02  0.14401545618E+03  0.12500000000E+03 0.  0.
         25    1    1    2    0    0 -0.36541420729E+02 -0.82575156475E+02 -0.15805902575E+03  0.22082026066E+03  0.12500000000E+03 0.  0.
</event>
<event>
 5    0  0.5539899E-005  0.3074240E+03  0.7546771E-02  0.1081587E+00
         21   -1    0    0  502  501  0.00000000000E+00  0.00000000000E+00  0.24471380461E+03  0.24471380461E+03  0.00000000000E+00 0. -1.
         21   -1    0    0  501  502 -0.00000000000E+00 -0.00000000000E+00 -0.38620423208E+03  0.38620423208E+03  0.00000000000E+00 0. -1.
         25    1    1    2    0    0  0.15060556705E+02  0.86366768066E+01  0.77443059861E+02  0.14806701211E+03  0.12500000000E+03 0.  0.
         25    1    1    2    0    0 -0.84606643912E+01  0.11423309285E+03  0.36077245968E+02  0.17334171460E+03  0.12500000000E+03 0.  0.
         25    1    1    2    0    0 -0.65998923141E+01 -0.12286976965E+03 -0.25501073329E+03  0.30950930998E+03  0.12500000000E+03 0.  0.
</event>
<event>
 5    0  0.5863452E-005  0.2605047E+03  0.7546771E-02  0.1106840E+00
         21   -1    0    0  502  501  0.00000000000E+00  0.00000000000E+00  0.15387052636E+03  0.15387052636E+03  0.00000000000E+00 0. -1.
         21   -1    0    0  501  502 -0.00000000000E+00 -0.00000000000E+00 -0.44103766949E+03  0.44103766949E+03  0.00000000000E+00 0. -1.
         25    1    1    2    0    0  0.74291296873E+02 -0.13242221531E+02 -0.13187858477E+03  0.19675241890E+03  0.12500000000E+03 0.  0.
         25    1    1    2    0    0  0.63554814968E+02  0.63163030913E+02 -0.51202653291E+01  0.15388307281E+03  0.12500000000E+03 0.  0.
         25    1    1    2    0    0 -0.13784611184E+03 -0.49920809383E+02 -0.15016829304E+03  0.24427270415E+03  0.12500000000E+03 0.  0.
</event>
<event>
 5    0  0.5539899E-005  0.3326867E+03  0.7546771E-02  0.1069954E+00
         21   -1    0    0  502  501  0.00000000000E+00  0.00000000000E+00  0.13495088529E+04  0.13495088529E+04  0.00000000000E+00 0. -1.
         21   -1    0    0  501  502 -0.00000000000E+00 -0.00000000000E+00 -0.82015358493E+02  0.82015358493E+02  0.00000000000E+00 0. -1.
         25    1    1    2    0    0 -0.12068841577E+02  0.27170704032E+02  0.13427080446E+03  0.18584281806E+03  0.12500000000E+03 0.  0.
         25    1    1    2    0    0 -0.17151138135E+03  0.87456394882E+02  0.31248682974E+03  0.38773417917E+03  0.12500000000E+03 0.  0.
         25    1    1    2    0    0  0.18358022293E+03 -0.11462709891E+03  0.82073586025E+03  0.85794721420E+03  0.12500000000E+03 0.  0.
</event>
<event>
 5    0  0.5539899E-005  0.2718742E+03  0.7546771E-02  0.1100212E+00
         21   -1    0    0  502  501  0.00000000000E+00  0.00000000000E+00  0.97617145540E+03  0.97617145540E+03  0.00000000000E+00 0.  1.
         21   -1    0    0  501  502 -0.00000000000E+00 -0.00000000000E+00 -0.75719874489E+02  0.75719874489E+02  0.00000000000E+00 0.  1.
         25    1    1    2    0    0 -0.11397497451E+03  0.71929470619E+02  0.35250392717E+03  0.39755271629E+03  0.12500000000E+03 0.  0.
         25    1    1    2    0    0  0.13112764271E+03  0.24742671759E+02  0.38758832210E+03  0.42855147406E+03  0.12500000000E+03 0.  0.
         25    1    1    2    0    0 -0.17152668202E+02 -0.96672142378E+02  0.16035933164E+03  0.22578713954E+03  0.12500000000E+03 0.  0.
</event>
<event>
 5    0  0.5539899E-005  0.3927346E+03  0.7546771E-02  0.1046325E+00
         21   -1    0    0  502  501  0.00000000000E+00  0.00000000000E+00  0.38111858784E+03  0.38111858784E+03  0.00000000000E+00 0. -1.
         21   -1    0    0  501  502 -0.00000000000E+00 -0.00000000000E+00 -0.40470462007E+03  0.40470462007E+03  0.00000000000E+00 0. -1.
         25    1    1    2    0    0 -0.63798018778E+02 -0.55193221924E+02 -0.16734871820E+03  0.22527110873E+03  0.12500000000E+03 0.  0.
         25    1    1    2    0    0  0.24828063088E+03  0.10581666351E+03  0.14002577698E+02  0.29776082705E+03  0.12500000000E+03 0.  0.
         25    1    1    2    0    0 -0.18448261210E+03 -0.50623441587E+02  0.12976010827E+03  0.26279127212E+03  0.12500000000E+03 0.  0.
</event>
<event>
 5    0  0.5539899E-005  0.3651627E+03  0.7546771E-02  0.1056558E+00
         21   -1    0    0  502  501  0.00000000000E+00  0.00000000000E+00  0.51878496728E+03  0.51878496728E+03  0.00000000000E+00 0. -1.
         21   -1    0    0  501  502 -0.00000000000E+00 -0.00000000000E+00 -0.25703098349E+03  0.25703098349E+03  0.00000000000E+00 0. -1.
         25    1    1    2    0    0 -0.19170761082E+03  0.66344407012E+02  0.13618842527E+03  0.27445523417E+03  0.12500000000E+03 0.  0.
         25    1    1    2    0    0  0.10960785157E+03  0.14337264838E+03  0.10388433341E+03  0.24287147251E+03  0.12500000000E+03 0.  0.
         25    1    1    2    0    0  0.82099759243E+02 -0.20971705539E+03  0.21681225103E+02  0.25848924409E+03  0.12500000000E+03 0.  0.
</event>
<event>
 5    0  0.5539899E-005  0.5764791E+03  0.7546771E-02  0.9955443E-01
         21   -1    0    0  502  501  0.00000000000E+00  0.00000000000E+00  0.58666601052E+03  0.58666601052E+03  0.00000000000E+00 0. -1.
         21   -1    0    0  501  502 -0.00000000000E+00 -0.00000000000E+00 -0.56646900018E+03  0.56646900018E+03  0.00000000000E+00 0. -1.
         25    1    1    2    0    0  0.41975117804E+03  0.32240076108E+03  0.55673294345E+02  0.54667889836E+03  0.12500000000E+03 0.  0.
         25    1    1    2    0    0 -0.91857642913E+02 -0.14291031465E+03 -0.22168265554E+02  0.21207926960E+03  0.12500000000E+03 0.  0.
         25    1    1    2    0    0 -0.32789353512E+03 -0.17949044642E+03 -0.13308018450E+02  0.39437684274E+03  0.12500000000E+03 0.  0.
</event>
<event>
 5    0  0.5539899E-005  0.2884425E+03  0.7546771E-02  0.1091165E+00
         21   -1    0    0  502  501  0.00000000000E+00  0.00000000000E+00  0.20114633243E+03  0.20114633243E+03  0.00000000000E+00 0. -1.
         21   -1    0    0  501  502 -0.00000000000E+00 -0.00000000000E+00 -0.41362462273E+03  0.41362462273E+03  0.00000000000E+00 0. -1.
         25    1    1    2    0    0  0.16455750987E+03  0.24831524518E+02 -0.10622879942E+03  0.23367784767E+03  0.12500000000E+03 0.  0.
         25    1    1    2    0    0  0.32718275368E+02 -0.10764213655E+02 -0.17388217312E+02  0.13081935614E+03  0.12500000000E+03 0.  0.
         25    1    1    2    0    0 -0.19727578524E+03 -0.14067310863E+02 -0.88861273568E+02  0.25027375136E+03  0.12500000000E+03 0.  0.
</event>
<event>
 5    0  0.5539899E-005  0.3198902E+03  0.7546771E-02  0.1075700E+00
         21   -1    0    0  502  501  0.00000000000E+00  0.00000000000E+00  0.48607998048E+03  0.48607998048E+03  0.00000000000E+00 0.  1.
         21   -1    0    0  501  502 -0.00000000000E+00 -0.00000000000E+00 -0.21052040593E+03  0.21052040593E+03  0.00000000000E+00 0.  1.
         25    1    1    2    0    0 -0.21139056298E+03  0.45447037105E+02  0.33828106270E+02  0.25203322018E+03  0.12500000000E+03 0.  0.
         25    1    1    2    0    0  0.15303972485E+03  0.50990862109E+02  0.14610463373E+03  0.25098364369E+03  0.12500000000E+03 0.  0.
         25    1    1    2    0    0  0.58350838130E+02 -0.96437899214E+02  0.95626834548E+02  0.19358352254E+03  0.12500000000E+03 0.  0.
</event>
<event>
 5    0  0.5539899E-005  0.3806732E+03  0.7546771E-02  0.1050685E+00
         21   -1    0    0  502  501  0.00000000000E+00  0.00000000000E+00  0.30184030509E+03  0.30184030509E+03  0.00000000000E+00 0.  1.
         21   -1    0    0  501  502 -0.00000000000E+00 -0.00000000000E+00 -0.48009521113E+03  0.48009521113E+03  0.00000000000E+00 0.  1.
         25    1    1    2    0    0  0.18206054648E+03  0.14294820730E+03  0.11596211562E+03  0.28749338221E+03  0.12500000000E+03 0.  0.
         25    1    1    2    0    0 -0.57766601489E+02 -0.15548572375E+03 -0.22062871801E+03  0.30300960670E+03  0.12500000000E+03 0.  0.
         25    1    1    2    0    0 -0.12429394499E+03  0.12537516451E+02 -0.73588303647E+02  0.19143252731E+03  0.12500000000E+03 0.  0.
</event>
<event>
 5    0  0.5539899E-005  0.3052269E+03  0.7546771E-02  0.1082657E+00
         21   -1    0    0  502  501  0.00000000000E+00  0.00000000000E+00  0.25231956661E+02  0.25231956661E+02  0.00000000000E+00 0.  1.
         21   -1    0    0  501  502 -0.00000000000E+00 -0.00000000000E+00 -0.36922809565E+04  0.36922809565E+04  0.00000000000E+00 0.  1.
         25    1    1    2    0    0 -0.11438719999E+03  0.25613162480E+02 -0.10798873785E+04  0.10933993853E+04  0.12500000000E+03 0.  0.
         25    1    1    2    0    0 -0.11101316618E+03  0.41755404246E+02 -0.10449085110E+04  0.10590213564E+04  0.12500000000E+03 0.  0.
         25    1    1    2    0    0  0.22540036617E+03 -0.67368566726E+02 -0.15422531103E+04  0.15650921714E+04  0.12500000000E+03 0.  0.
</event>
<event>
 5    0  0.5539899E-005  0.2334788E+03  0.7546771E-02  0.1124215E+00
         21   -1    0    0  502  501  0.00000000000E+00  0.00000000000E+00  0.33462559164E+03  0.33462559164E+03  0.00000000000E+00 0. -1.
         21   -1    0    0  501  502 -0.00000000000E+00 -0.00000000000E+00 -0.16290548386E+03  0.16290548386E+03  0.00000000000E+00 0. -1.
         25    1    1    2    0    0  0.66083951560E+02  0.29702095355E+02 -0.95158394209E+01  0.14479245257E+03  0.12500000000E+03 0.  0.
         25    1    1    2    0    0 -0.77517244845E+02 -0.27089595502E+01  0.16855402489E+03  0.22372241957E+03  0.12500000000E+03 0.  0.
         25    1    1    2    0    0  0.11433293285E+02 -0.26993135805E+02  0.12681922299E+02  0.12901620336E+03  0.12500000000E+03 0.  0.
</event>
<event>
 5    0  0.5539899E-005  0.2344296E+03  0.7546771E-02  0.1123560E+00
         21   -1    0    0  502  501  0.00000000000E+00  0.00000000000E+00  0.32945216990E+03  0.32945216990E+03  0.00000000000E+00 0.  1.
         21   -1    0    0  501  502 -0.00000000000E+00 -0.00000000000E+00 -0.16681406732E+03  0.16681406732E+03  0.00000000000E+00 0.  1.
         25    1    1    2    0    0  0.59687389959E+02 -0.31117655852E+01  0.42090722746E+02  0.14480641058E+03  0.12500000000E+03 0.  0.
         25    1    1    2    0    0  0.12226382321E+01 -0.76793134989E+02  0.12241708227E+03  0.19107491321E+03  0.12500000000E+03 0.  0.
         25    1    1    2    0    0 -0.60910028191E+02  0.79904900574E+02 -0.18697024342E+01  0.16038491343E+03  0.12500000000E+03 0.  0.
</event>
<event>
 5    0  0.5539899E-005  0.2280461E+03  0.7546771E-02  0.1128023E+00
         21   -1    0    0  502  501  0.00000000000E+00  0.00000000000E+00  0.10902404226E+04  0.10902404226E+04  0.00000000000E+00 0. -1.
         21   -1    0    0  501  502 -0.00000000000E+00 -0.00000000000E+00 -0.47700499867E+02  0.47700499867E+02  0.00000000000E+00 0. -1.
         25    1    1    2    0    0 -0.40320700548E+02  0.35730926326E+02  0.16433109600E+03  0.21338267760E+03  0.12500000000E+03 0.  0.
         25    1    1    2    0    0  0.20859409209E+02 -0.64331806046E+02  0.29972810434E+03  0.33171619309E+03  0.12500000000E+03 0.  0.
         25    1    1    2    0    0  0.19461291339E+02  0.28600879720E+02  0.57848072243E+03  0.59284205182E+03  0.12500000000E+03 0.  0.
</event>
<event>
 5    0  0.5539899E-005  0.3560440E+03  0.7546771E-02  0.1060161E+00
         21   -1    0    0  502  501  0.00000000000E+00  0.00000000000E+00  0.10075617259E+04  0.10075617259E+04  0.00000000000E+00 0.  1.
         21   -1    0    0  501  502 -0.00000000000E+00 -0.00000000000E+00 -0.12581597393E+03  0.12581597393E+03  0.00000000000E+00 0.  1.
         25    1    1    2    0    0  0.66988176373E+02  0.93212711385E+02  0.39833182088E+03  0.43297721056E+03  0.12500000000E+03 0.  0.
         25    1    1    2    0    0 -0.23079087243E+03  0.33071273328E+02  0.26980154535E+03  0.37785712880E+03  0.12500000000E+03 0.  0.
         25    1    1    2    0    0  0.16380269606E+03 -0.12628398471E+03  0.21361238572E+03  0.32254336044E+03  0.12500000000E+03 0.  0.
</event>
<event>
 5    0  0.5539899E-005  0.2749108E+03  0.7546771E-02  0.1098501E+00
         21   -1    0    0  502  501  0.00000000000E+00  0.00000000000E+00  0.29187400175E+03  0.29187400175E+03  0.00000000000E+00 0.  1.
         21   -1    0    0  501  502 -0.00000000000E+00 -0.00000000000E+00 -0.25893340536E+03  0.25893340536E+03  0.00000000000E+00 0.  1.
         25    1    1    2    0    0 -0.14881285757E+03 -0.46255535153E+02  0.19416868271E+02  0.20071585858E+03  0.12500000000E+03 0.  0.
         25    1    1    2    0    0  0.31214897853E+02  0.60368101446E+02  0.82637795844E+02  0.16453778539E+03  0.12500000000E+03 0.  0.
         25    1    1    2    0    0  0.11759795972E+03 -0.14112566293E+02 -0.69114067724E+02  0.18555376314E+03  0.12500000000E+03 0.  0.
</event>
<event>
 5    0  0.5539899E-005  0.2576130E+03  0.7546771E-02  0.1108586E+00
         21   -1    0    0  502  501  0.00000000000E+00  0.00000000000E+00  0.68606811341E+02  0.68606811341E+02  0.00000000000E+00 0. -1.
         21   -1    0    0  501  502 -0.00000000000E+00 -0.00000000000E+00 -0.96731576272E+03  0.96731576272E+03  0.00000000000E+00 0. -1.
         25    1    1    2    0    0  0.55270539110E+02 -0.16056280840E+02 -0.24747328382E+03  0.28316190219E+03  0.12500000000E+03 0.  0.
         25    1    1    2    0    0 -0.14507607164E+03 -0.34273271130E+02 -0.22866217859E+03  0.30022177735E+03  0.12500000000E+03 0.  0.
         25    1    1    2    0    0  0.89805532533E+02  0.50329551970E+02 -0.42257348897E+03  0.45253889452E+03  0.12500000000E+03 0.  0.
</event>
<event>
 5    0  0.5539899E-005  0.4191568E+03  0.7546771E-02  0.1037341E+00
         21   -1    0    0  502  501  0.00000000000E+00  0.00000000000E+00  0.14227899787E+03  0.14227899787E+03  0.00000000000E+00 0. -1.
         21   -1    0    0  501  502 -0.00000000000E+00 -0.00000000000E+00 -0.12348444793E+04  0.12348444793E+04  0.00000000000E+00 0. -1.
         25    1    1    2    0    0 -0.25699853188E+03 -0.20004662940E+03 -0.39818948447E+03  0.52938338174E+03  0.12500000000E+03 0.  0.
         25    1    1    2    0    0 -0.26028687287E+01  0.12150275806E+03 -0.16557513141E+03  0.24043672615E+03  0.12500000000E+03 0.  0.
         25    1    1    2    0    0  0.25960140060E+03  0.78543871338E+02 -0.52880086551E+03  0.60730336923E+03  0.12500000000E+03 0.  0.
</event>
<event>
 5    0  0.7119912E-005  0.3164118E+03  0.7546771E-02  0.1077313E+00
         21   -1    0    0  502  501  0.00000000000E+00  0.00000000000E+00  0.45317190043E+03  0.45317190043E+03  0.00000000000E+00 0.  1.
         21   -1    0    0  501  502 -0.00000000000E+00 -0.00000000000E+00 -0.22092368237E+03  0.22092368237E+03  0.00000000000E+00 0.  1.
         25    1    1    2    0    0 -0.19149120988E+02  0.10618304372E+03  0.19594611966E+03  0.25624482320E+03  0.12500000000E+03 0.  0.
         25    1    1    2    0    0  0.63301273351E+02 -0.20233358173E+03  0.57441137834E+02  0.25272596586E+03  0.12500000000E+03 0.  0.
         25    1    1    2    0    0 -0.44152152364E+02  0.96150538012E+02 -0.21139039441E+02  0.16512479374E+03  0.12500000000E+03 0.  0.
</event>
<event>
 5    0  0.5539899E-005  0.2389148E+03  0.7546771E-02  0.1120518E+00
         21   -1    0    0  502  501  0.00000000000E+00  0.00000000000E+00  0.25324416998E+03  0.25324416998E+03  0.00000000000E+00 0. -1.
         21   -1    0    0  501  502 -0.00000000000E+00 -0.00000000000E+00 -0.22539616729E+03  0.22539616729E+03  0.00000000000E+00 0. -1.
         25    1    1    2    0    0  0.93803040865E+01 -0.22354080680E+01  0.38022986120E+02  0.13101043709E+03  0.12500000000E+03 0.  0.
         25    1    1    2    0    0 -0.77376739549E+02 -0.93424025299E+02 -0.22963471255E+02  0.17569157447E+03  0.12500000000E+03 0.  0.
         25    1    1    2    0    0  0.67996435462E+02  0.95659433367E+02  0.12788487831E+02  0.17193832571E+03  0.12500000000E+03 0.  0.
</event>
<event>
 5    0  0.5539899E-005  0.3509847E+03  0.7546771E-02  0.1062212E+00
         21   -1    0    0  502  501  0.00000000000E+00  0.00000000000E+00  0.19334482241E+04  0.19334482241E+04  0.00000000000E+00 0.  1.
         21   -1    0    0  501  502 -0.00000000000E+00 -0.00000000000E+00 -0.63715317752E+02  0.63715317752E+02  0.00000000000E+00 0.  1.
         25    1    1    2    0    0 -0.18470999311E+03  0.43289859362E+01  0.24717665337E+03  0.33295317936E+03  0.12500000000E+03 0.  0.
         25    1    1    2    0    0  0.11348990890E+03 -0.98462494571E+02  0.96144270377E+03  0.98110748386E+03  0.12500000000E+03 0.  0.
         25    1    1    2    0    0  0.71220084207E+02  0.94133508635E+02  0.66111354917E+03  0.68310287859E+03  0.12500000000E+03 0.  0.
</event>
<event>
 5    0  0.5539899E-005  0.4798125E+03  0.7546771E-02  0.1019187E+00
         21   -1    0    0  502  501  0.00000000000E+00  0.00000000000E+00  0.63852011716E+03  0.63852011716E+03  0.00000000000E+00 0. -1.
         21   -1    0    0  501  502 -0.00000000000E+00 -0.00000000000E+00 -0.36055249381E+03  0.36055249381E+03  0.00000000000E+00 0. -1.
         25    1    1    2    0    0  0.14825154971E+01 -0.19810334166E+03  0.79190189104E+02  0.24727154684E+03  0.12500000000E+03 0.  0.
         25    1    1    2    0    0  0.20855512824E+01  0.41973089953E+03  0.15555036202E+02  0.43822977614E+03  0.12500000000E+03 0.  0.
         25    1    1    2    0    0 -0.35680667795E+01 -0.22162755787E+03  0.18322239804E+03  0.31357128799E+03  0.12500000000E+03 0.  0.
</event>
<event>
 5    0  0.5539899E-005  0.2207985E+03  0.7546771E-02  0.1133289E+00
         21   -1    0    0  502  501  0.00000000000E+00  0.00000000000E+00  0.52967400872E+02  0.52967400872E+02  0.00000000000E+00 0. -1.
         21   -1    0    0  501  502 -0.00000000000E+00 -0.00000000000E+00 -0.92041478654E+03  0.92041478654E+03  0.00000000000E+00 0. -1.
         25    1    1    2    0    0 -0.50033453911E+02  0.11414197316E+02 -0.23058085626E+03  0.26725673366E+03  0.12500000000E+03 0.  0.
         25    1    1    2    0    0 -0.21789730982E+02 -0.37830479362E+02 -0.16238482222E+03  0.20952271484E+03  0.12500000000E+03 0.  0.
         25    1    1    2    0    0  0.71823184893E+02  0.26416282046E+02 -0.47448170719E+03  0.49660273892E+03  0.12500000000E+03 0.  0.
</event>
<event>
 5    0  0.5539899E-005  0.2111333E+03  0.7546771E-02  0.1140672E+00
         21   -1    0    0  502  501  0.00000000000E+00  0.00000000000E+00  0.16309488648E+03  0.16309488648E+03  0.00000000000E+00 0.  1.
         21   -1    0    0  501  502 -0.00000000000E+00 -0.00000000000E+00 -0.27332116066E+03  0.27332116066E+03  0.00000000000E+00 0.  1.
         25    1    1    2    0    0  0.49811060721E+02  0.45311607092E+02 -0.99718418087E+02  0.17350229512E+03  0.12500000000E+03 0.  0.
         25    1    1    2    0    0 -0.38393412136E+02 -0.69055573359E+01 -0.13301836658E+02  0.13161945022E+03  0.12500000000E+03 0.  0.
         25    1    1    2    0    0 -0.11417648585E+02 -0.38406049756E+02  0.27939805744E+01  0.13129430180E+03  0.12500000000E+03 0.  0.
</event>
<event>
 5    0  0.5539899E-005  0.3909773E+03  0.7546771E-02  0.1046949E+00
         21   -1    0    0  502  501  0.00000000000E+00  0.00000000000E+00  0.66901244801E+03  0.66901244801E+03  0.00000000000E+00 0.  1.
         21   -1    0    0  501  502 -0.00000000000E+00 -0.00000000000E+00 -0.22849092648E+03  0.22849092648E+03  0.00000000000E+00 0.  1.
         25    1    1    2    0    0  0.63888166652E+01  0.34260233490E+02  0.28788695843E+03  0.31578233233E+03  0.12500000000E+03 0.  0.
         25    1    1    2    0    0 -0.13221335070E+03 -0.13206081108E+03 -0.10981304524E+03  0.25020857865E+03  0.12500000000E+03 0.  0.
         25    1    1    2    0    0  0.12582453403E+03  0.97800577591E+02  0.26244760834E+03  0.33151246352E+03  0.12500000000E+03 0.  0.
</event>
<event>
 5    0  0.5539899E-005  0.4146765E+03  0.7546771E-02  0.1038813E+00
         21   -1    0    0  502  501  0.00000000000E+00  0.00000000000E+00  0.42534950846E+03  0.42534950846E+03  0.00000000000E+00 0. -1.
         21   -1    0    0  501  502 -0.00000000000E+00 -0.00000000000E+00 -0.40427127917E+03  0.40427127917E+03  0.00000000000E+00 0. -1.
         25    1    1    2    0    0  0.15373503601E+03 -0.13432060477E+03  0.13819948141E+03  0.27640655352E+03  0.12500000000E+03 0.  0.
         25    1    1    2    0    0 -0.27662764867E+03  0.18020627843E+03 -0.36537900799E+02  0.35490446178E+03  0.12500000000E+03 0.  0.
         25    1    1    2    0    0  0.12289261266E+03 -0.45885673658E+02 -0.80583351327E+02  0.19830977234E+03  0.12500000000E+03 0.  0.
</event>
<event>
 5    0  0.5539899E-005  0.2526453E+03  0.7546771E-02  0.1111644E+00
         21   -1    0    0  502  501  0.00000000000E+00  0.00000000000E+00  0.71496412723E+03  0.71496412723E+03  0.00000000000E+00 0.  1.
         21   -1    0    0  501  502 -0.00000000000E+00 -0.00000000000E+00 -0.89276709777E+02  0.89276709777E+02  0.00000000000E+00 0.  1.
         25    1    1    2    0    0 -0.13687023752E+02 -0.20969796104E+02  0.17691023671E+03  0.21805801710E+03  0.12500000000E+03 0.  0.
         25    1    1    2    0    0  0.74856918499E+02 -0.11139243604E+03  0.24659520469E+03  0.30732072503E+03  0.12500000000E+03 0.  0.
         25    1    1    2    0    0 -0.61169894747E+02  0.13236223215E+03  0.20218197606E+03  0.27886209489E+03  0.12500000000E+03 0.  0.
</event>
<event>
 5    0  0.5539899E-005  0.2842445E+03  0.7546771E-02  0.1093393E+00
         21   -1    0    0  502  501  0.00000000000E+00  0.00000000000E+00  0.15859679454E+03  0.15859679454E+03  0.00000000000E+00 0. -1.
         21   -1    0    0  501  502 -0.00000000000E+00 -0.00000000000E+00 -0.50943626605E+03  0.50943626605E+03  0.00000000000E+00 0. -1.
         25    1    1    2    0    0  0.14728620761E+02 -0.13598302337E+03 -0.10920035055E+03  0.21507680366E+03  0.12500000000E+03 0.  0.
         25    1    1    2    0    0  0.25557760119E+02 -0.64778262951E+02 -0.84644878888E+02  0.16625034729E+03  0.12500000000E+03 0.  0.
         25    1    1    2    0    0 -0.40286380880E+02  0.20076128632E+03 -0.15699424208E+03  0.28670590963E+03  0.12500000000E+03 0.  0.
</event>
<event>
 5    0  0.5539899E-005  0.2547967E+03  0.7546771E-02  0.1110310E+00
         21   -1    0    0  502  501  0.00000000000E+00  0.00000000000E+00  0.56505569610E+02  0.56505569610E+02  0.00000000000E+00 0. -1.
         21   -1    0    0  501  502 -0.00000000000E+00 -0.00000000000E+00 -0.11489372611E+04  0.11489372611E+04  0.00000000000E+00 0. -1.
         25    1    1    2    0    0 -0.91901668224E+02  0.65120020275E+02 -0.25028861702E+03  0.30158900092E+03  0.12500000000E+03 0.  0.
         25    1    1    2    0    0  0.61926700322E+02 -0.11129878103E+03 -0.59847026749E+03  0.62451100546E+03  0.12500000000E+03 0.  0.
         25    1    1    2    0    0  0.29974967902E+02  0.46178760755E+02 -0.24367280696E+03  0.27934282432E+03  0.12500000000E+03 0.  0.
</event>
<event>
 5    0  0.5539899E-005  0.2506505E+03  0.7546771E-02  0.1112894E+00
         21   -1    0    0  502  501  0.00000000000E+00  0.00000000000E+00  0.78055342667E+02  0.78055342667E+02  0.00000000000E+00 0.  1.
         21   -1    0    0  501  502 -0.00000000000E+00 -0.00000000000E+00 -0.80488628310E+03  0.80488628310E+03  0.00000000000E+00 0.  1.
         25    1    1    2    0    0 -0.10844235116E+02 -0.14307021988E+01 -0.94658602052E+02  0.15717790966E+03  0.12500000000E+03 0.  0.
         25    1    1    2    0    0  0.31157324045E+02  0.98730841764E+01 -0.56995043203E+03  0.58441145746E+03  0.12500000000E+03 0.  0.
         25    1    1    2    0    0 -0.20313088929E+02 -0.84423819776E+01 -0.62221906352E+02  0.14135225865E+03  0.12500000000E+03 0.  0.
</event>
<event>
 5    0  0.5539899E-005  0.2489188E+03  0.7546771E-02  0.1113990E+00
         21   -1    0    0  502  501  0.00000000000E+00  0.00000000000E+00  0.19030352232E+03  0.19030352232E+03  0.00000000000E+00 0. -1.
         21   -1    0    0  501  502 -0.00000000000E+00 -0.00000000000E+00 -0.32558821751E+03  0.32558821751E+03  0.00000000000E+00 0. -1.
         25    1    1    2    0    0  0.44801949177E+02  0.12656588846E+02 -0.71662136030E+02  0.15141950215E+03  0.12500000000E+03 0.  0.
         25    1    1    2    0    0  0.15501302204E+02  0.10317993946E+03 -0.82828488489E+02  0.18267990799E+03  0.12500000000E+03 0.  0.
         25    1    1    2    0    0 -0.60303251381E+02 -0.11583652830E+03  0.19205929328E+02  0.18179232970E+03  0.12500000000E+03 0.  0.
</event>
<event>
 5    0  0.5539899E-005  0.5281489E+03  0.7546771E-02  0.1006682E+00
         21   -1    0    0  502  501  0.00000000000E+00  0.00000000000E+00  0.17704138888E+03  0.17704138888E+03  0.00000000000E+00 0.  1.
         21   -1    0    0  501  502 -0.00000000000E+00 -0.00000000000E+00 -0.15755711579E+04  0.15755711579E+04  0.00000000000E+00 0.  1.
         25    1    1    2    0    0  0.31716346502E+03  0.10810527615E+03 -0.42310905103E+03  0.55400873941E+03  0.12500000000E+03 0.  0.
         25    1    1    2    0    0 -0.11370852668E+03  0.11333788346E+03 -0.80643681268E+03  0.83170934690E+03  0.12500000000E+03 0.  0.
         25    1    1    2    0    0 -0.20345493833E+03 -0.22144315960E+03 -0.16898390527E+03  0.36689446045E+03  0.12500000000E+03 0.  0.
</event>
<event>
 5    0  0.5539899E-005  0.2666945E+03  0.7546771E-02  0.1103186E+00
         21   -1    0    0  502  501  0.00000000000E+00  0.00000000000E+00  0.19575240245E+03  0.19575240245E+03  0.00000000000E+00 0. -1.
         21   -1    0    0  501  502 -0.00000000000E+00 -0.00000000000E+00 -0.36334658568E+03  0.36334658568E+03  0.00000000000E+00 0. -1.
         25    1    1    2    0    0 -0.67480850606E+02 -0.31913232478E+02 -0.45017557864E+02  0.15239324172E+03  0.12500000000E+03 0.  0.
         25    1    1    2    0    0 -0.29291935003E+02  0.11777660245E+03 -0.14334513851E+03  0.22561510205E+03  0.12500000000E+03 0.  0.
         25    1    1    2    0    0  0.96772785608E+02 -0.85863369971E+02  0.20768513140E+02  0.18109064436E+03  0.12500000000E+03 0.  0.
</event>
<event>
 5    0  0.5539899E-005  0.5410272E+03  0.7546771E-02  0.1003592E+00
         21   -1    0    0  502  501  0.00000000000E+00  0.00000000000E+00  0.15922461257E+04  0.15922461257E+04  0.00000000000E+00 0. -1.
         21   -1    0    0  501  502 -0.00000000000E+00 -0.00000000000E+00 -0.18383493618E+03  0.18383493618E+03  0.00000000000E+00 0. -1.
         25    1    1    2    0    0  0.20790650601E+03  0.20849656925E+03  0.67798237982E+03  0.74965394815E+03  0.12500000000E+03 0.  0.
         25    1    1    2    0    0 -0.25017518555E+03 -0.26951147878E+03  0.78121321119E+03  0.87243517925E+03  0.12500000000E+03 0.  0.
         25    1    1    2    0    0  0.42268679543E+02  0.61014909525E+02 -0.50784401476E+02  0.15399193449E+03  0.12500000000E+03 0.  0.
</event>
<event>
 5    0  0.5539899E-005  0.3073242E+03  0.7546771E-02  0.1081636E+00
         21   -1    0    0  502  501  0.00000000000E+00  0.00000000000E+00  0.65018093086E+03  0.65018093086E+03  0.00000000000E+00 0. -1.
         21   -1    0    0  501  502 -0.00000000000E+00 -0.00000000000E+00 -0.14526440948E+03  0.14526440948E+03  0.00000000000E+00 0. -1.
         25    1    1    2    0    0  0.80296608233E+02 -0.11449269653E+03  0.15613788672E+03  0.24404950834E+03  0.12500000000E+03 0.  0.
         25    1    1    2    0    0  0.31211009888E+02 -0.65846666466E+02  0.28505992201E+02  0.14747034351E+03  0.12500000000E+03 0.  0.
         25    1    1    2    0    0 -0.11150761812E+03  0.18033936300E+03  0.32027264247E+03  0.40392548850E+03  0.12500000000E+03 0.  0.
</event>
<event>
 5    0  0.5539899E-005  0.5040385E+03  0.7546771E-02  0.1012730E+00
         21   -1    0    0  502  501  0.00000000000E+00  0.00000000000E+00  0.70057650449E+03  0.70057650449E+03  0.00000000000E+00 0. -1.
         21   -1    0    0  501  502 -0.00000000000E+00 -0.00000000000E+00 -0.36263674351E+03  0.36263674351E+03  0.00000000000E+00 0. -1.
         25    1    1    2    0    0 -0.14504205000E+03  0.23975342055E+03  0.27780749286E+02  0.30808386677E+03  0.12500000000E+03 0.  0.
         25    1    1    2    0    0 -0.11002936858E+02  0.18112004873E+03  0.12811184236E+03  0.25487875711E+03  0.12500000000E+03 0.  0.
         25    1    1    2    0    0  0.15604498686E+03 -0.42087346928E+03  0.18204716933E+03  0.50025062411E+03  0.12500000000E+03 0.  0.
</event>
<event>
 5    0  0.5539899E-005  0.2449967E+03  0.7546771E-02  0.1116508E+00
         21   -1    0    0  502  501  0.00000000000E+00  0.00000000000E+00  0.14100294854E+03  0.14100294854E+03  0.00000000000E+00 0.  1.
         21   -1    0    0  501  502 -0.00000000000E+00 -0.00000000000E+00 -0.42568887756E+03  0.42568887756E+03  0.00000000000E+00 0.  1.
         25    1    1    2    0    0  0.55466508443E+02 -0.19000386719E+02 -0.18180024235E+03  0.22828463893E+03  0.12500000000E+03 0.  0.
         25    1    1    2    0    0 -0.12581747565E+03  0.10915409281E+02 -0.70305060954E+02  0.19109417818E+03  0.12500000000E+03 0.  0.
         25    1    1    2    0    0  0.70350967205E+02  0.80849774374E+01 -0.32580625711E+02  0.14731300899E+03  0.12500000000E+03 0.  0.
</event>
<event>
 5    0  0.5539899E-005  0.3550756E+03  0.7546771E-02  0.1060551E+00
         21   -1    0    0  502  501  0.00000000000E+00  0.00000000000E+00  0.28301504564E+03  0.28301504564E+03  0.00000000000E+00 0. -1.
         21   -1    0    0  501  502 -0.00000000000E+00 -0.00000000000E+00 -0.44548393517E+03  0.44548393517E+03  0.00000000000E+00 0. -1.
         25    1    1    2    0    0  0.17662817640E+03  0.29052619785E+02 -0.22378132810E+02  0.21947060906E+03  0.12500000000E+03 0.  0.
         25    1    1    2    0    0 -0.25430159466E+03 -0.32894556788E+02  0.26756958163E+02  0.28651751731E+03  0.12500000000E+03 0.  0.
         25    1    1    2    0    0  0.77673418264E+02  0.38419370025E+01 -0.16684771488E+03  0.22251085445E+03  0.12500000000E+03 0.  0.
</event>
<event>
 5    0  0.5539899E-005  0.2992083E+03  0.7546771E-02  0.1085637E+00
         21   -1    0    0  502  501  0.00000000000E+00  0.00000000000E+00  0.54987051561E+02  0.54987051561E+02  0.00000000000E+00 0. -1.
         21   -1    0    0  501  502 -0.00000000000E+00 -0.00000000000E+00 -0.16281212886E+04  0.16281212886E+04  0.00000000000E+00 0. -1.
         25    1    1    2    0    0 -0.52616021149E+02  0.21514064947E+01 -0.76776862900E+03  0.77965809295E+03  0.12500000000E+03 0.  0.
         25    1    1    2    0    0  0.58619706306E+01  0.14745071967E+03 -0.27276725426E+03  0.33436963443E+03  0.12500000000E+03 0.  0.
         25    1    1    2    0    0  0.46754050518E+02 -0.14960212616E+03 -0.53259835376E+03  0.56908061276E+03  0.12500000000E+03 0.  0.
</event>
<event>
 5    0  0.5539899E-005  0.3909939E+03  0.7546771E-02  0.1046944E+00
         21   -1    0    0  502  501  0.00000000000E+00  0.00000000000E+00  0.22838152223E+03  0.22838152223E+03  0.00000000000E+00 0.  1.
         21   -1    0    0  501  502 -0.00000000000E+00 -0.00000000000E+00 -0.66938959844E+03  0.66938959844E+03  0.00000000000E+00 0.  1.
         25    1    1    2    0    0  0.26307455427E+03  0.35725241577E+02 -0.14704010841E+03  0.32822295391E+03  0.12500000000E+03 0.  0.
         25    1    1    2    0    0 -0.20249166237E+02 -0.13432145478E+03 -0.52552907800E+02  0.19193511942E+03  0.12500000000E+03 0.  0.
         25    1    1    2    0    0 -0.24282538803E+03  0.98596213205E+02 -0.24141506000E+03  0.37761304734E+03  0.12500000000E+03 0.  0.
</event>
<event>
 5    0  0.5539899E-005  0.2858481E+03  0.7546771E-02  0.1092537E+00
         21   -1    0    0  502  501  0.00000000000E+00  0.00000000000E+00  0.11350453622E+04  0.11350453622E+04  0.00000000000E+00 0. -1.
         21   -1    0    0  501  502 -0.00000000000E+00 -0.00000000000E+00 -0.71987533888E+02  0.71987533888E+02  0.00000000000E+00 0. -1.
         25    1    1    2    0    0  0.25855229016E+02 -0.85146545148E+02  0.65116106232E+03  0.66899488495E+03  0.12500000000E+03 0.  0.
         25    1    1    2    0    0  0.21550590050E+02  0.14689260121E+03  0.18908467418E+03  0.27096102714E+03  0.12500000000E+03 0.  0.
         25    1    1    2    0    0 -0.47405819066E+02 -0.61746056060E+02  0.22281209186E+03  0.26707698403E+03  0.12500000000E+03 0.  0.
</event>
<event>
 5    0  0.5539899E-005  0.3218258E+03  0.7546771E-02  0.1074812E+00
         21   -1    0    0  502  501  0.00000000000E+00  0.00000000000E+00  0.98386443871E+02  0.98386443871E+02  0.00000000000E+00 0. -1.
         21   -1    0    0  501  502 -0.00000000000E+00 -0.00000000000E+00 -0.10527042545E+04  0.10527042545E+04  0.00000000000E+00 0. -1.
         25    1    1    2    0    0 -0.15970595940E+03 -0.10246259354E+03 -0.44265702271E+03  0.49756890608E+03  0.12500000000E+03 0.  0.
         25    1    1    2    0    0  0.19351670276E+02  0.10120749370E+03 -0.75777076487E+02  0.17884241455E+03  0.12500000000E+03 0.  0.
         25    1    1    2    0    0  0.14035428913E+03  0.12550998428E+01 -0.43588371139E+03  0.47467937769E+03  0.12500000000E+03 0.  0.
</event>
<event>
 5    0  0.5539899E-005  0.3436874E+03  0.7546771E-02  0.1065236E+00
         21   -1    0    0  502  501  0.00000000000E+00  0.00000000000E+00  0.13426901405E+03  0.13426901405E+03  0.00000000000E+00 0. -1.
         21   -1    0    0  501  502 -0.00000000000E+00 -0.00000000000E+00 -0.87973421043E+03  0.87973421043E+03  0.00000000000E+00 0. -1.
         25    1    1    2    0    0  0.11287547056E+03 -0.88161120364E+02 -0.19914644266E+02  0.19114091151E+03  0.12500000000E+03 0.  0.
         25    1    1    2    0    0  0.28323740953E+02  0.10733716233E+02 -0.51087680254E+03  0.52681833143E+03  0.12500000000E+03 0.  0.
         25    1    1    2    0    0 -0.14119921151E+03  0.77427404131E+02 -0.21467374958E+03  0.29604398153E+03  0.12500000000E+03 0.  0.
</event>
<event>
 5    0  0.5539899E-005  0.2624999E+03  0.7546771E-02  0.1105650E+00
         21   -1    0    0  502  501  0.00000000000E+00  0.00000000000E+00  0.11768001398E+03  0.11768001398E+03  0.00000000000E+00 0. -1.
         21   -1    0    0  501  502 -0.00000000000E+00 -0.00000000000E+00 -0.58553856380E+03  0.58553856380E+03  0.00000000000E+00 0. -1.
         25    1    1    2    0    0 -0.13682299779E+03 -0.65063385482E+02 -0.24274083031E+03  0.31225292241E+03  0.12500000000E+03 0.  0.
         25    1    1    2    0    0  0.11557929653E+03 -0.72235523591E+01 -0.93143021214E+02  0.19419417060E+03  0.12500000000E+03 0.  0.
         25    1    1    2    0    0  0.21243701268E+02  0.72286937841E+02 -0.13197469829E+03  0.19677148476E+03  0.12500000000E+03 0.  0.
</event>
<event>
 5    0  0.5539899E-005  0.3038505E+03  0.7546771E-02  0.1083331E+00
         21   -1    0    0  502  501  0.00000000000E+00  0.00000000000E+00  0.92842851211E+02  0.92842851211E+02  0.00000000000E+00 0. -1.
         21   -1    0    0  501  502 -0.00000000000E+00 -0.00000000000E+00 -0.99442396170E+03  0.99442396170E+03  0.00000000000E+00 0. -1.
         25    1    1    2    0    0 -0.14099940924E+02  0.10787961321E+03 -0.15971948089E+03  0.23015675496E+03  0.12500000000E+03 0.  0.
         25    1    1    2    0    0  0.97213208521E+01  0.42738677998E+02 -0.60226025832E+03  0.61665510411E+03  0.12500000000E+03 0.  0.
         25    1    1    2    0    0  0.43786200717E+01 -0.15061829121E+03 -0.13960137128E+03  0.24045495383E+03  0.12500000000E+03 0.  0.
</event>
<event>
 5    0  0.5539899E-005  0.3261673E+03  0.7546771E-02  0.1072845E+00
         21   -1    0    0  502  501  0.00000000000E+00  0.00000000000E+00  0.10697020445E+04  0.10697020445E+04  0.00000000000E+00 0.  1.
         21   -1    0    0  501  502 -0.00000000000E+00 -0.00000000000E+00 -0.99453046445E+02  0.99453046445E+02  0.00000000000E+00 0.  1.
         25    1    1    2    0    0 -0.10284744604E+03 -0.91841820938E+02  0.33699183915E+03  0.38496885183E+03  0.12500000000E+03 0.  0.
         25    1    1    2    0    0 -0.62192207782E+01 -0.10265922668E+03  0.93459407114E+02  0.18691510455E+03  0.12500000000E+03 0.  0.
         25    1    1    2    0    0  0.10906666682E+03  0.19450104762E+03  0.53979775176E+03  0.59727113453E+03  0.12500000000E+03 0.  0.
</event>
<event>
 5    0  0.5539899E-005  0.2407561E+03  0.7546771E-02  0.1119290E+00
         21   -1    0    0  502  501  0.00000000000E+00  0.00000000000E+00  0.10912656560E+03  0.10912656560E+03  0.00000000000E+00 0. -1.
         21   -1    0    0  501  502 -0.00000000000E+00 -0.00000000000E+00 -0.53115853484E+03  0.53115853484E+03  0.00000000000E+00 0. -1.
         25    1    1    2    0    0 -0.61867638255E+02 -0.10385617355E+03 -0.16495991335E+03  0.23968830272E+03  0.12500000000E+03 0.  0.
         25    1    1    2    0    0  0.32829590070E+01 -0.13843458431E+02 -0.10709881541E+03  0.16521977915E+03  0.12500000000E+03 0.  0.
         25    1    1    2    0    0  0.58584679248E+02  0.11769963198E+03 -0.14997324049E+03  0.23537701857E+03  0.12500000000E+03 0.  0.
</event>
<event>
 5    0  0.5539899E-005  0.3022467E+03  0.7546771E-02  0.1084123E+00
         21   -1    0    0  502  501  0.00000000000E+00  0.00000000000E+00  0.10849393612E+04  0.10849393612E+04  0.00000000000E+00 0.  1.
         21   -1    0    0  501  502 -0.00000000000E+00 -0.00000000000E+00 -0.84201060294E+02  0.84201060294E+02  0.00000000000E+00 0.  1.
         25    1    1    2    0    0  0.39134975022E+02 -0.32025982245E+02  0.15560915074E+02  0.13573633223E+03  0.12500000000E+03 0.  0.
         25    1    1    2    0    0  0.76067503934E+01 -0.23797187956E+02  0.21655233819E+03  0.25128486620E+03  0.12500000000E+03 0.  0.
         25    1    1    2    0    0 -0.46741725416E+02  0.55823170201E+02  0.76862504763E+03  0.78211922305E+03  0.12500000000E+03 0.  0.
</event>
<event>
 5    0  0.5539899E-005  0.2599631E+03  0.7546771E-02  0.1107165E+00
         21   -1    0    0  502  501  0.00000000000E+00  0.00000000000E+00  0.76683993529E+02  0.76683993529E+02  0.00000000000E+00 0. -1.
         21   -1    0    0  501  502 -0.00000000000E+00 -0.00000000000E+00 -0.88128999453E+03  0.88128999453E+03  0.00000000000E+00 0. -1.
         25    1    1    2    0    0  0.24049420765E+02 -0.11117913916E+02 -0.95203742182E+02  0.15934470551E+03  0.12500000000E+03 0.  0.
         25    1    1    2    0    0 -0.82353134694E+02 -0.59838060827E+02 -0.56195516135E+03  0.58462059123E+03  0.12500000000E+03 0.  0.
         25    1    1    2    0    0  0.58303713929E+02  0.70955974743E+02 -0.14744709747E+03  0.21400869132E+03  0.12500000000E+03 0.  0.
</event>
<event>
 5    0  0.5539899E-005  0.2769907E+03  0.7546771E-02  0.1097344E+00
         21   -1    0    0  502  501  0.00000000000E+00  0.00000000000E+00  0.10918458505E+04  0.10918458505E+04  0.00000000000E+00 0.  1.
         21   -1    0    0  501  502 -0.00000000000E+00 -0.00000000000E+00 -0.70269828134E+02  0.70269828134E+02  0.00000000000E+00 0.  1.
         25    1    1    2    0    0 -0.98113453515E+01 -0.10512797672E+03  0.30981104881E+03  0.35036558043E+03  0.12500000000E+03 0.  0.
         25    1    1    2    0    0 -0.99025832821E+02  0.32630466627E+02  0.53347044664E+03  0.55775136070E+03  0.12500000000E+03 0.  0.
         25    1    1    2    0    0  0.10883717817E+03  0.72497510090E+02  0.17829452688E+03  0.25399873747E+03  0.12500000000E+03 0.  0.
</event>
<event>
 5    0  0.5539899E-005  0.3038319E+03  0.7546771E-02  0.1083341E+00
         21   -1    0    0  502  501  0.00000000000E+00  0.00000000000E+00  0.20397341725E+04  0.20397341725E+04  0.00000000000E+00 0. -1.
         21   -1    0    0  501  502 -0.00000000000E+00 -0.00000000000E+00 -0.45257758283E+02  0.45257758283E+02  0.00000000000E+00 0. -1.
         25    1    1    2    0    0 -0.16585634039E+03 -0.28555630648E+02  0.80487418240E+03  0.83172783961E+03  0.12500000000E+03 0.  0.
         25    1    1    2    0    0  0.74209578788E+02 -0.54865211597E+02  0.22944100470E+03  0.27710183628E+03  0.12500000000E+03 0.  0.
         25    1    1    2    0    0  0.91646761607E+02  0.83420842245E+02  0.96016122710E+03  0.97616225489E+03  0.12500000000E+03 0.  0.
</event>
<event>
 5    0  0.5539899E-005  0.3102264E+03  0.7546771E-02  0.1080237E+00
         21   -1    0    0  502  501  0.00000000000E+00  0.00000000000E+00  0.20772080971E+03  0.20772080971E+03  0.00000000000E+00 0. -1.
         21   -1    0    0  501  502 -0.00000000000E+00 -0.00000000000E+00 -0.46331622223E+03  0.46331622223E+03  0.00000000000E+00 0. -1.
         25    1    1    2    0    0 -0.54338018498E+02  0.65052485515E+02 -0.11717698544E+03  0.19115410548E+03  0.12500000000E+03 0.  0.
         25    1    1    2    0    0  0.10398952904E+03 -0.17843625645E+03 -0.17754704784E+03  0.29966860690E+03  0.12500000000E+03 0.  0.
         25    1    1    2    0    0 -0.49651510537E+02  0.11338377093E+03  0.39128620763E+02  0.18021431955E+03  0.12500000000E+03 0.  0.
</event>
<event>
 5    0  0.5539899E-005  0.4546783E+03  0.7546771E-02  0.1026336E+00
         21   -1    0    0  502  501  0.00000000000E+00  0.00000000000E+00  0.33129125352E+03  0.33129125352E+03  0.00000000000E+00 0.  1.
         21   -1    0    0  501  502 -0.00000000000E+00 -0.00000000000E+00 -0.62401994381E+03  0.62401994381E+03  0.00000000000E+00 0.  1.
         25    1    1    2    0    0 -0.29059597279E+03  0.29625160300E+02 -0.13563276894E+02  0.31801357205E+03  0.12500000000E+03 0.  0.
         25    1    1    2    0    0  0.22269479202E+02  0.49884953769E+02  0.85448569643E+02  0.16096861921E+03  0.12500000000E+03 0.  0.
         25    1    1    2    0    0  0.26832649359E+03 -0.79510114069E+02 -0.36461398304E+03  0.47632900608E+03  0.12500000000E+03 0.  0.
</event>
<event>
 5    0  0.5539899E-005  0.3673895E+03  0.7546771E-02  0.1055696E+00
         21   -1    0    0  502  501  0.00000000000E+00  0.00000000000E+00  0.11550282076E+04  0.11550282076E+04  0.00000000000E+00 0. -1.
         21   -1    0    0  501  502 -0.00000000000E+00 -0.00000000000E+00 -0.11685863623E+03  0.11685863623E+03  0.00000000000E+00 0. -1.
         25    1    1    2    0    0 -0.13983366804E+03 -0.25492613875E+03  0.37554892831E+03  0.49112400520E+03  0.12500000000E+03 0.  0.
         25    1    1    2    0    0  0.66173938213E+02  0.95136374126E+02  0.43441045895E+03  0.46665551173E+03  0.12500000000E+03 0.  0.
         25    1    1    2    0    0  0.73659729829E+02  0.15978976462E+03  0.22821018409E+03  0.31410732688E+03  0.12500000000E+03 0.  0.
</event>
<event>
 5    0  0.5539899E-005  0.3073668E+03  0.7546771E-02  0.1081615E+00
         21   -1    0    0  502  501  0.00000000000E+00  0.00000000000E+00  0.12825729291E+04  0.12825729291E+04  0.00000000000E+00 0. -1.
         21   -1    0    0  501  502 -0.00000000000E+00 -0.00000000000E+00 -0.73660013085E+02  0.73660013085E+02  0.00000000000E+00 0. -1.
         25    1    1    2    0    0 -0.99631245861E+02  0.20072727407E+03  0.58106069150E+03  0.63519630896E+03  0.12500000000E+03 0.  0.
         25    1    1    2    0    0  0.89170253000E+02 -0.57205322401E+02  0.28323100302E+03  0.32721336159E+03  0.12500000000E+03 0.  0.
         25    1    1    2    0    0  0.10460992860E+02 -0.14352195167E+03  0.34462122153E+03  0.39382327167E+03  0.12500000000E+03 0.  0.
</event>
<event>
 5    0  0.5805482E-005  0.3169968E+03  0.7546771E-02  0.1077040E+00
         21   -1    0    0  502  501  0.00000000000E+00  0.00000000000E+00  0.56975875339E+03  0.56975875339E+03  0.00000000000E+00 0. -1.
         21   -1    0    0  501  502 -0.00000000000E+00 -0.00000000000E+00 -0.17636754269E+03  0.17636754269E+03  0.00000000000E+00 0. -1.
         25    1    1    2    0    0 -0.44034513470E+02 -0.14503705193E+03  0.17939392450E+03  0.26604880184E+03  0.12500000000E+03 0.  0.
         25    1    1    2    0    0  0.59319287860E+02 -0.45263559293E+02 -0.27138216966E+02  0.14808460599E+03  0.12500000000E+03 0.  0.
         25    1    1    2    0    0 -0.15284774390E+02  0.19030061123E+03  0.24113550317E+03  0.33199288825E+03  0.12500000000E+03 0.  0.
</event>
<event>
 5    0  0.5539899E-005  0.3718844E+03  0.7546771E-02  0.1053975E+00
         21   -1    0    0  502  501  0.00000000000E+00  0.00000000000E+00  0.98428006929E+03  0.98428006929E+03  0.00000000000E+00 0. -1.
         21   -1    0    0  501  502 -0.00000000000E+00 -0.00000000000E+00 -0.14050679513E+03  0.14050679513E+03  0.00000000000E+00 0. -1.
         25    1    1    2    0    0  0.98055360073E+02  0.48805741394E+02  0.14368832720E+03  0.21970022623E+03  0.12500000000E+03 0.  0.
         25    1    1    2    0    0 -0.19224738155E+02 -0.27105098612E+02 -0.51193114977E+02  0.13910432038E+03  0.12500000000E+03 0.  0.
         25    1    1    2    0    0 -0.78830621917E+02 -0.21700642782E+02  0.75127806193E+03  0.76598231780E+03  0.12500000000E+03 0.  0.
</event>
<event>
 5    0  0.5539899E-005  0.2623092E+03  0.7546771E-02  0.1105764E+00
         21   -1    0    0  502  501  0.00000000000E+00  0.00000000000E+00  0.11041867158E+04  0.11041867158E+04  0.00000000000E+00 0. -1.
         21   -1    0    0  501  502 -0.00000000000E+00 -0.00000000000E+00 -0.62313821721E+02  0.62313821721E+02  0.00000000000E+00 0. -1.
         25    1    1    2    0    0 -0.79271232832E+01 -0.12326849454E+03  0.23446369989E+03  0.29301226526E+03  0.12500000000E+03 0.  0.
         25    1    1    2    0    0  0.33639166758E+02  0.76519069714E+02  0.19535911186E+03  0.24652980379E+03  0.12500000000E+03 0.  0.
         25    1    1    2    0    0 -0.25712043475E+02  0.46749424826E+02  0.61205008235E+03  0.62695846849E+03  0.12500000000E+03 0.  0.
</event>
<event>
 5    0  0.5539899E-005  0.3346730E+03  0.7546771E-02  0.1069088E+00
         21   -1    0    0  502  501  0.00000000000E+00  0.00000000000E+00  0.13980157624E+03  0.13980157624E+03  0.00000000000E+00 0. -1.
         21   -1    0    0  501  502 -0.00000000000E+00 -0.00000000000E+00 -0.80117830952E+03  0.80117830952E+03  0.00000000000E+00 0. -1.
         25    1    1    2    0    0 -0.37835875296E+02  0.60481602750E+02 -0.31759155012E+03  0.34868176098E+03  0.12500000000E+03 0.  0.
         25    1    1    2    0    0 -0.42356619516E+01 -0.23007836638E+03 -0.23322644442E+03  0.35067587582E+03  0.12500000000E+03 0.  0.
         25    1    1    2    0    0  0.42071537247E+02  0.16959676363E+03 -0.11055873874E+03  0.24162224896E+03  0.12500000000E+03 0.  0.
</event>
<event>
 5    0  0.5539899E-005  0.3115648E+03  0.7546771E-02  0.1079598E+00
         21   -1    0    0  502  501  0.00000000000E+00  0.00000000000E+00  0.31972380623E+03  0.31972380623E+03  0.00000000000E+00 0.  1.
         21   -1    0    0  501  502 -0.00000000000E+00 -0.00000000000E+00 -0.30361404563E+03  0.30361404563E+03  0.00000000000E+00 0.  1.
         25    1    1    2    0    0  0.28020328019E+02  0.15229397409E+03  0.11443215925E+03  0.22956112998E+03  0.12500000000E+03 0.  0.
         25    1    1    2    0    0 -0.12705043592E+03 -0.12374666042E+03 -0.34765545420E+02  0.21974688253E+03  0.12500000000E+03 0.  0.
         25    1    1    2    0    0  0.99030107906E+02 -0.28547313676E+02 -0.63556853239E+02  0.17402983935E+03  0.12500000000E+03 0.  0.
</event>
<event>
 5    0  0.5539899E-005  0.5054133E+03  0.7546771E-02  0.1012376E+00
         21   -1    0    0  502  501  0.00000000000E+00  0.00000000000E+00  0.32077013883E+03  0.32077013883E+03  0.00000000000E+00 0. -1.
         21   -1    0    0  501  502 -0.00000000000E+00 -0.00000000000E+00 -0.79634158225E+03  0.79634158225E+03  0.00000000000E+00 0. -1.
         25    1    1    2    0    0  0.11669165116E+03  0.57530666832E+02  0.78754060256E+01  0.18059274929E+03  0.12500000000E+03 0.  0.
         25    1    1    2    0    0  0.28967024479E+03 -0.29454170472E+02 -0.36396572224E+02  0.31894530777E+03  0.12500000000E+03 0.  0.
         25    1    1    2    0    0 -0.40636189595E+03 -0.28076496360E+02 -0.44705027722E+03  0.61757366402E+03  0.12500000000E+03 0.  0.
</event>
<event>
 5    0  0.5539899E-005  0.4317662E+03  0.7546771E-02  0.1033303E+00
         21   -1    0    0  502  501  0.00000000000E+00  0.00000000000E+00  0.42476025453E+03  0.42476025453E+03  0.00000000000E+00 0.  1.
         21   -1    0    0  501  502 -0.00000000000E+00 -0.00000000000E+00 -0.43888778301E+03  0.43888778301E+03  0.00000000000E+00 0.  1.
         25    1    1    2    0    0 -0.91447703285E+02 -0.12271886173E+03 -0.58957280657E+02  0.20621242059E+03  0.12500000000E+03 0.  0.
         25    1    1    2    0    0  0.31026419778E+03  0.19747278966E+03 -0.11508781356E+02  0.38860883562E+03  0.12500000000E+03 0.  0.
         25    1    1    2    0    0 -0.21881649449E+03 -0.74753927924E+02  0.56338533526E+02  0.26882678133E+03  0.12500000000E+03 0.  0.
</event>
<event>
 5    0  0.5539899E-005  0.3444177E+03  0.7546771E-02  0.1064930E+00
         21   -1    0    0  502  501  0.00000000000E+00  0.00000000000E+00  0.12179484090E+03  0.12179484090E+03  0.00000000000E+00 0.  1.
         21   -1    0    0  501  502 -0.00000000000E+00 -0.00000000000E+00 -0.97396207599E+03  0.97396207599E+03  0.00000000000E+00 0.  1.
         25    1    1    2    0    0 -0.22125089981E+03 -0.13722982238E+03 -0.21704487794E+03  0.36127200813E+03  0.12500000000E+03 0.  0.
         25    1    1    2    0    0  0.97032487019E+02  0.41981085530E+02 -0.34562989561E+03  0.38244311971E+03  0.12500000000E+03 0.  0.
         25    1    1    2    0    0  0.12421841279E+03  0.95248736853E+02 -0.28949246155E+03  0.35204178905E+03  0.12500000000E+03 0.  0.
</event>
<event>
 5    0  0.5539899E-005  0.4581898E+03  0.7546771E-02  0.1025308E+00
         21   -1    0    0  502  501  0.00000000000E+00  0.00000000000E+00  0.70969136029E+03  0.70969136029E+03  0.00000000000E+00 0. -1.
         21   -1    0    0  501  502 -0.00000000000E+00 -0.00000000000E+00 -0.29581575740E+03  0.29581575740E+03  0.00000000000E+00 0.  1.
         25    1    1    2    0    0 -0.35904003787E+03 -0.84374609242E+02  0.15569386245E+03  0.41939766604E+03  0.12500000000E+03 0.  0.
         25    1    1    2    0    0  0.95913160433E+01 -0.37194600241E+02  0.31335731055E+02  0.13447066472E+03  0.12500000000E+03 0.  0.
         25    1    1    2    0    0  0.34944872182E+03  0.12156920948E+03  0.22684600939E+03  0.45163878692E+03  0.12500000000E+03 0.  0.
</event>
<event>
 5    0  0.5539899E-005  0.2650524E+03  0.7546771E-02  0.1104145E+00
         21   -1    0    0  502  501  0.00000000000E+00  0.00000000000E+00  0.84651833892E+02  0.84651833892E+02  0.00000000000E+00 0. -1.
         21   -1    0    0  501  502 -0.00000000000E+00 -0.00000000000E+00 -0.82990284614E+03  0.82990284614E+03  0.00000000000E+00 0. -1.
         25    1    1    2    0    0 -0.51661649990E+01  0.60735547152E+02 -0.51774931214E+03  0.53610152599E+03  0.12500000000E+03 0.  0.
         25    1    1    2    0    0 -0.41385436277E+02  0.62999066421E+01 -0.37956811232E+02  0.13717930849E+03  0.12500000000E+03 0.  0.
         25    1    1    2    0    0  0.46551601276E+02 -0.67035453794E+02 -0.18954488887E+03  0.24127384555E+03  0.12500000000E+03 0.  0.
</event>
<event>
 5    0  0.5681693E-005  0.3878230E+03  0.7546771E-02  0.1048080E+00
         21   -1    0    0  502  501  0.00000000000E+00  0.00000000000E+00  0.16142711477E+03  0.16142711477E+03  0.00000000000E+00 0. -1.
         21   -1    0    0  501  502 -0.00000000000E+00 -0.00000000000E+00 -0.93173136544E+03  0.93173136544E+03  0.00000000000E+00 0. -1.
         25    1    1    2    0    0  0.20212482040E+03  0.11293769451E+03 -0.93362441536E+02  0.27919690427E+03  0.12500000000E+03 0.  0.
         25    1    1    2    0    0 -0.86879891370E+02 -0.18286063778E+03 -0.23103072332E+03  0.33164186029E+03  0.12500000000E+03 0.  0.
         25    1    1    2    0    0 -0.11524492903E+03  0.69922943266E+02 -0.44591108581E+03  0.48231971566E+03  0.12500000000E+03 0.  0.
</event>
<event>
 5    0  0.5539899E-005  0.5556479E+03  0.7546771E-02  0.1000195E+00
         21   -1    0    0  502  501  0.00000000000E+00  0.00000000000E+00  0.16016659970E+04  0.16016659970E+04  0.00000000000E+00 0.  1.
         21   -1    0    0  501  502 -0.00000000000E+00 -0.00000000000E+00 -0.19276462881E+03  0.19276462881E+03  0.00000000000E+00 0.  1.
         25    1    1    2    0    0 -0.76246723068E+02 -0.21120573011E+02  0.79018010934E+02  0.16771549551E+03  0.12500000000E+03 0.  0.
         25    1    1    2    0    0 -0.33352224083E+03  0.20422617223E+03  0.34152346431E+03  0.53404933408E+03  0.12500000000E+03 0.  0.
         25    1    1    2    0    0  0.40976896390E+03 -0.18310559922E+03  0.98835989299E+03  0.10926657963E+04  0.12500000000E+03 0.  0.
</event>
<event>
 5    0  0.5539899E-005  0.4324631E+03  0.7546771E-02  0.1033085E+00
         21   -1    0    0  502  501  0.00000000000E+00  0.00000000000E+00  0.17984534138E+04  0.17984534138E+04  0.00000000000E+00 0.  1.
         21   -1    0    0  501  502 -0.00000000000E+00 -0.00000000000E+00 -0.10399176475E+03  0.10399176475E+03  0.00000000000E+00 0.  1.
         25    1    1    2    0    0 -0.10589371872E+03  0.24008025121E+03  0.40562922766E+03  0.49901109909E+03  0.12500000000E+03 0.  0.
         25    1    1    2    0    0  0.25539505886E+03 -0.68098427547E+02  0.60718189083E+03  0.67391311048E+03  0.12500000000E+03 0.  0.
         25    1    1    2    0    0 -0.14950134014E+03 -0.17198182366E+03  0.68165053052E+03  0.72952096895E+03  0.12500000000E+03 0.  0.
</event>
<event>
 5    0  0.5539899E-005  0.2725260E+03  0.7546771E-02  0.1099843E+00
         21   -1    0    0  502  501  0.00000000000E+00  0.00000000000E+00  0.22619463860E+04  0.22619463860E+04  0.00000000000E+00 0. -1.
         21   -1    0    0  501  502 -0.00000000000E+00 -0.00000000000E+00 -0.32834751649E+02  0.32834751649E+02  0.00000000000E+00 0. -1.
         25    1    1    2    0    0 -0.10073713976E+03  0.78181942654E+01  0.80194080390E+03  0.81788944757E+03  0.12500000000E+03 0.  0.
         25    1    1    2    0    0  0.14644583266E+03 -0.24839757213E+01  0.11846627890E+04  0.12002097632E+04  0.12500000000E+03 0.  0.
         25    1    1    2    0    0 -0.45708692903E+02 -0.53342185441E+01  0.24250804148E+03  0.27668192690E+03  0.12500000000E+03 0.  0.
</event>
<event>
 5    0  0.5539899E-005  0.2780360E+03  0.7546771E-02  0.1096767E+00
         21   -1    0    0  502  501  0.00000000000E+00  0.00000000000E+00  0.25632553481E+03  0.25632553481E+03  0.00000000000E+00 0.  1.
         21   -1    0    0  501  502 -0.00000000000E+00 -0.00000000000E+00 -0.30158526183E+03  0.30158526183E+03  0.00000000000E+00 0.  1.
         25    1    1    2    0    0 -0.75313242276E+02 -0.11572412894E+03 -0.14068453720E+03  0.23341229078E+03  0.12500000000E+03 0.  0.
         25    1    1    2    0    0  0.56660075738E+02  0.42075436644E+02 -0.10448375730E+02  0.14392663099E+03  0.12500000000E+03 0.  0.
         25    1    1    2    0    0  0.18653166538E+02  0.73648692295E+02  0.10587318592E+03  0.18057187487E+03  0.12500000000E+03 0.  0.
</event>
<event>
 5    0  0.5539899E-005  0.3527074E+03  0.7546771E-02  0.1061509E+00
         21   -1    0    0  502  501  0.00000000000E+00  0.00000000000E+00  0.11375641273E+03  0.11375641273E+03  0.00000000000E+00 0. -1.
         21   -1    0    0  501  502 -0.00000000000E+00 -0.00000000000E+00 -0.10935868936E+04  0.10935868936E+04  0.00000000000E+00 0. -1.
         25    1    1    2    0    0 -0.42110697700E+02  0.25988171848E+03 -0.41922004676E+03  0.51057052996E+03  0.12500000000E+03 0.  0.
         25    1    1    2    0    0  0.60191052748E+02 -0.10691026127E+03 -0.11645942958E+03  0.21033441357E+03  0.12500000000E+03 0.  0.
         25    1    1    2    0    0 -0.18080355049E+02 -0.15297145721E+03 -0.44415100451E+03  0.48643836276E+03  0.12500000000E+03 0.  0.
</event>
<event>
 5    0  0.5874371E-005  0.2598028E+03  0.7546771E-02  0.1107262E+00
         21   -1    0    0  502  501  0.00000000000E+00  0.00000000000E+00  0.20550096065E+03  0.20550096065E+03  0.00000000000E+00 0.  1.
         21   -1    0    0  501  502 -0.00000000000E+00 -0.00000000000E+00 -0.32845347757E+03  0.32845347757E+03  0.00000000000E+00 0.  1.
         25    1    1    2    0    0 -0.80612697536E+01  0.91318012548E+02  0.10546128133E+02  0.15537111799E+03  0.12500000000E+03 0.  0.
         25    1    1    2    0    0  0.62310515538E+02 -0.13477299925E+03 -0.13347691382E+03  0.23555773856E+03  0.12500000000E+03 0.  0.
         25    1    1    2    0    0 -0.54249245784E+02  0.43454986704E+02 -0.21731235178E-01  0.14302558166E+03  0.12500000000E+03 0.  0.
</event>
<event>
 5    0  0.5539899E-005  0.3212207E+03  0.7546771E-02  0.1075089E+00
         21   -1    0    0  502  501  0.00000000000E+00  0.00000000000E+00  0.10802332756E+04  0.10802332756E+04  0.00000000000E+00 0.  1.
         21   -1    0    0  501  502 -0.00000000000E+00 -0.00000000000E+00 -0.95518965201E+02  0.95518965201E+02  0.00000000000E+00 0.  1.
         25    1    1    2    0    0  0.10143561935E+03  0.15203520385E+03  0.32245540620E+03  0.39116029588E+03  0.12500000000E+03 0.  0.
         25    1    1    2    0    0 -0.14199980283E+02  0.54231924192E+01  0.52107253347E+02  0.13627624998E+03  0.12500000000E+03 0.  0.
         25    1    1    2    0    0 -0.87235639066E+02 -0.15745839627E+03  0.61015165086E+03  0.64831569496E+03  0.12500000000E+03 0.  0.
</event>
<event>
 5    0  0.5539899E-005  0.3001078E+03  0.7546771E-02  0.1085187E+00
         21   -1    0    0  502  501  0.00000000000E+00  0.00000000000E+00  0.82243588143E+02  0.82243588143E+02  0.00000000000E+00 0.  1.
         21   -1    0    0  501  502 -0.00000000000E+00 -0.00000000000E+00 -0.10950965247E+04  0.10950965247E+04  0.00000000000E+00 0.  1.
         25    1    1    2    0    0 -0.19973305973E+03  0.96095951238E+02 -0.51614702453E+03  0.57546544459E+03  0.12500000000E+03 0.  0.
         25    1    1    2    0    0  0.87413222941E+02 -0.70333298478E+02 -0.21487224039E+03  0.27273233052E+03  0.12500000000E+03 0.  0.
         25    1    1    2    0    0  0.11231983679E+03 -0.25762652760E+02 -0.28183367161E+03  0.32914233770E+03  0.12500000000E+03 0.  0.
</event>
<event>
 5    0  0.5539899E-005  0.2556557E+03  0.7546771E-02  0.1109782E+00
         21   -1    0    0  502  501  0.00000000000E+00  0.00000000000E+00  0.40739011956E+03  0.40739011956E+03  0.00000000000E+00 0.  1.
         21   -1    0    0  501  502 -0.00000000000E+00 -0.00000000000E+00 -0.16043552000E+03  0.16043552000E+03  0.00000000000E+00 0.  1.
         25    1    1    2    0    0 -0.79268162468E+02 -0.16790080327E+02  0.33448128508E+02  0.15267326445E+03  0.12500000000E+03 0.  0.
         25    1    1    2    0    0 -0.64040423512E+02  0.53767948308E+02  0.14707556534E+03  0.21035301288E+03  0.12500000000E+03 0.  0.
         25    1    1    2    0    0  0.14330858598E+03 -0.36977867981E+02  0.66430905711E+02  0.20479936223E+03  0.12500000000E+03 0.  0.
</event>
<event>
 5    0  0.5539899E-005  0.2878342E+03  0.7546771E-02  0.1091485E+00
         21   -1    0    0  502  501  0.00000000000E+00  0.00000000000E+00  0.53949017501E+03  0.53949017501E+03  0.00000000000E+00 0.  1.
         21   -1    0    0  501  502 -0.00000000000E+00 -0.00000000000E+00 -0.15356816145E+03  0.15356816145E+03  0.00000000000E+00 0.  1.
         25    1    1    2    0    0 -0.67343265541E+02 -0.48974673736E+02  0.71055723093E+02  0.16615519813E+03  0.12500000000E+03 0.  0.
         25    1    1    2    0    0  0.14636385307E+03 -0.10908256568E+01  0.31688530998E+03  0.37076254809E+03  0.12500000000E+03 0.  0.
         25    1    1    2    0    0 -0.79020587527E+02  0.50065499392E+02 -0.20190195125E+01  0.15614059025E+03  0.12500000000E+03 0.  0.
</event>
<event>
 5    0  0.5539899E-005  0.3626164E+03  0.7546771E-02  0.1057553E+00
         21   -1    0    0  502  501  0.00000000000E+00  0.00000000000E+00  0.31758460113E+03  0.31758460113E+03  0.00000000000E+00 0.  1.
         21   -1    0    0  501  502 -0.00000000000E+00 -0.00000000000E+00 -0.41403340594E+03  0.41403340594E+03  0.00000000000E+00 0.  1.
         25    1    1    2    0    0  0.28667478106E+02  0.73806621906E+02 -0.83033903796E+01  0.14819982466E+03  0.12500000000E+03 0.  0.
         25    1    1    2    0    0 -0.24593416943E+03  0.61664778582E+01 -0.14865771677E+03  0.31344179348E+03  0.12500000000E+03 0.  0.
         25    1    1    2    0    0  0.21726669133E+03 -0.79973099764E+02  0.60512302343E+02  0.26997638893E+03  0.12500000000E+03 0.  0.
</event>
<event>
 5    0  0.5539899E-005  0.3644714E+03  0.7546771E-02  0.1056827E+00
         21   -1    0    0  502  501  0.00000000000E+00  0.00000000000E+00  0.22895103834E+03  0.22895103834E+03  0.00000000000E+00 0.  1.
         21   -1    0    0  501  502 -0.00000000000E+00 -0.00000000000E+00 -0.58020877042E+03  0.58020877042E+03  0.00000000000E+00 0.  1.
         25    1    1    2    0    0  0.89330224469E+01 -0.35915575726E+02 -0.22431074534E+03  0.25944178141E+03  0.12500000000E+03 0.  0.
         25    1    1    2    0    0  0.63529055000E+02  0.99836201160E+02  0.15167402907E+03  0.22941930822E+03  0.12500000000E+03 0.  0.
         25    1    1    2    0    0 -0.72462077447E+02 -0.63920625434E+02 -0.27862101581E+03  0.32029871913E+03  0.12500000000E+03 0.  0.
</event>
<event>
 5    0  0.5829586E-005  0.4494730E+03  0.7546771E-02  0.1027879E+00
         21   -1    0    0  502  501  0.00000000000E+00  0.00000000000E+00  0.50122204324E+03  0.50122204324E+03  0.00000000000E+00 0. -1.
         21   -1    0    0  501  502 -0.00000000000E+00 -0.00000000000E+00 -0.40306686591E+03  0.40306686591E+03  0.00000000000E+00 0. -1.
         25    1    1    2    0    0  0.11047205721E+02  0.20537359604E+02 -0.17144233724E+03  0.21345092854E+03  0.12500000000E+03 0.  0.
         25    1    1    2    0    0  0.17273026073E+03  0.22085752588E+03  0.11150068388E+03  0.32660556060E+03  0.12500000000E+03 0.  0.
         25    1    1    2    0    0 -0.18377746645E+03 -0.24139488548E+03  0.15809683070E+03  0.36423242001E+03  0.12500000000E+03 0.  0.
</event>
<event>
 5    0  0.5539899E-005  0.2614873E+03  0.7546771E-02  0.1106253E+00
         21   -1    0    0  502  501  0.00000000000E+00  0.00000000000E+00  0.29321187109E+03  0.29321187109E+03  0.00000000000E+00 0.  1.
         21   -1    0    0  501  502 -0.00000000000E+00 -0.00000000000E+00 -0.23319516525E+03  0.23319516525E+03  0.00000000000E+00 0.  1.
         25    1    1    2    0    0 -0.44553860784E+02  0.63093912051E+02  0.81561052458E+02  0.16805681636E+03  0.12500000000E+03 0.  0.
         25    1    1    2    0    0  0.42945120572E+02 -0.13131780315E+03  0.58116398134E+02  0.19516957892E+03  0.12500000000E+03 0.  0.
         25    1    1    2    0    0  0.16087402119E+01  0.68223891097E+02 -0.79660744748E+02  0.16318064106E+03  0.12500000000E+03 0.  0.
</event>
<event>
 5    0  0.5539899E-005  0.4825504E+03  0.7546771E-02  0.1018437E+00
         21   -1    0    0  502  501  0.00000000000E+00  0.00000000000E+00  0.12669733838E+04  0.12669733838E+04  0.00000000000E+00 0.  1.
         21   -1    0    0  501  502 -0.00000000000E+00 -0.00000000000E+00 -0.18378829610E+03  0.18378829610E+03  0.00000000000E+00 0.  1.
         25    1    1    2    0    0  0.22492972259E+02 -0.21826528463E+03  0.47874845694E+03  0.54126772793E+03  0.12500000000E+03 0.  0.
         25    1    1    2    0    0 -0.67834847874E+02 -0.19706238720E+03  0.23259442739E+03  0.33639310143E+03  0.12500000000E+03 0.  0.
         25    1    1    2    0    0  0.45341875615E+02  0.41532767183E+03  0.37184220332E+03  0.57310085050E+03  0.12500000000E+03 0.  0.
</event>
<event>
 5    0  0.5539899E-005  0.2682849E+03  0.7546771E-02  0.1102265E+00
         21   -1    0    0  502  501  0.00000000000E+00  0.00000000000E+00  0.13788914801E+03  0.13788914801E+03  0.00000000000E+00 0.  1.
         21   -1    0    0  501  502 -0.00000000000E+00 -0.00000000000E+00 -0.52199011136E+03  0.52199011136E+03  0.00000000000E+00 0.  1.
         25    1    1    2    0    0  0.11456019462E+03  0.14401486519E+02 -0.90060158584E+02  0.19252862948E+03  0.12500000000E+03 0.  0.
         25    1    1    2    0    0  0.35383964832E+02 -0.60619029126E+02 -0.50883922581E+02  0.15212121889E+03  0.12500000000E+03 0.  0.
         25    1    1    2    0    0 -0.14994415945E+03  0.46217542607E+02 -0.24315688219E+03  0.31522941099E+03  0.12500000000E+03 0.  0.
</event>
<event>
 5    0  0.5539899E-005  0.3315407E+03  0.7546771E-02  0.1070457E+00
         21   -1    0    0  502  501  0.00000000000E+00  0.00000000000E+00  0.15284802113E+03  0.15284802113E+03  0.00000000000E+00 0.  1.
         21   -1    0    0  501  502 -0.00000000000E+00 -0.00000000000E+00 -0.71914087914E+03  0.71914087914E+03  0.00000000000E+00 0.  1.
         25    1    1    2    0    0 -0.47795987797E+02 -0.96170717282E+02  0.68466516332E+02  0.17845427193E+03  0.12500000000E+03 0.  0.
         25    1    1    2    0    0  0.16876323096E+02  0.17463624907E+02 -0.32212753446E+03  0.34638264526E+03  0.12500000000E+03 0.  0.
         25    1    1    2    0    0  0.30919664700E+02  0.78707092374E+02 -0.31263183988E+03  0.34715198309E+03  0.12500000000E+03 0.  0.
</event>
<event>
 5    0  0.5539899E-005  0.3648547E+03  0.7546771E-02  0.1056678E+00
         21   -1    0    0  502  501  0.00000000000E+00  0.00000000000E+00  0.40245252997E+03  0.40245252997E+03  0.00000000000E+00 0.  1.
         21   -1    0    0  501  502 -0.00000000000E+00 -0.00000000000E+00 -0.33076923581E+03  0.33076923581E+03  0.00000000000E+00 0.  1.
         25    1    1    2    0    0  0.13311917202E+02  0.11246881263E+03  0.10017371962E+03  0.19617903827E+03  0.12500000000E+03 0.  0.
         25    1    1    2    0    0  0.31215206128E+02 -0.21345205551E+03  0.15145215905E+03  0.29171720137E+03  0.12500000000E+03 0.  0.
         25    1    1    2    0    0 -0.44527123331E+02  0.10098324288E+03 -0.17994258451E+03  0.24532552614E+03  0.12500000000E+03 0.  0.
</event>
<event>
 5    0  0.5539899E-005  0.3549305E+03  0.7546771E-02  0.1060609E+00
         21   -1    0    0  502  501  0.00000000000E+00  0.00000000000E+00  0.34807699040E+03  0.34807699040E+03  0.00000000000E+00 0. -1.
         21   -1    0    0  501  502 -0.00000000000E+00 -0.00000000000E+00 -0.36191891297E+03  0.36191891297E+03  0.00000000000E+00 0.  1.
         25    1    1    2    0    0  0.39667307466E+02 -0.41130961257E+02 -0.13564207882E+02  0.13810951810E+03  0.12500000000E+03 0.  0.
         25    1    1    2    0    0  0.12481763298E+03 -0.15650843945E+03  0.11632575004E+03  0.26311786949E+03  0.12500000000E+03 0.  0.
         25    1    1    2    0    0 -0.16448494045E+03  0.19763940071E+03 -0.11660346473E+03  0.30876851577E+03  0.12500000000E+03 0.  0.
</event>
<event>
 5    0  0.5539899E-005  0.3467784E+03  0.7546771E-02  0.1063945E+00
         21   -1    0    0  502  501  0.00000000000E+00  0.00000000000E+00  0.17182971662E+03  0.17182971662E+03  0.00000000000E+00 0.  1.
         21   -1    0    0  501  502 -0.00000000000E+00 -0.00000000000E+00 -0.69985124712E+03  0.69985124712E+03  0.00000000000E+00 0.  1.
         25    1    1    2    0    0 -0.14377526828E+03 -0.22205605847E+03 -0.25174016808E+03  0.38597711473E+03  0.12500000000E+03 0.  0.
         25    1    1    2    0    0  0.10164213086E+03  0.43368663062E+02 -0.17438039896E+03  0.24134101856E+03  0.12500000000E+03 0.  0.
         25    1    1    2    0    0  0.42133137425E+02  0.17868739541E+03 -0.10190096347E+03  0.24436283044E+03  0.12500000000E+03 0.  0.
</event>
<event>
 5    0  0.5539899E-005  0.3108036E+03  0.7546771E-02  0.1079961E+00
         21   -1    0    0  502  501  0.00000000000E+00  0.00000000000E+00  0.21703886212E+03  0.21703886212E+03  0.00000000000E+00 0.  1.
         21   -1    0    0  501  502 -0.00000000000E+00 -0.00000000000E+00 -0.44507637219E+03  0.44507637219E+03  0.00000000000E+00 0.  1.
         25    1    1    2    0    0  0.53037552654E+02 -0.10655541748E+03 -0.21166325182E+03  0.27311787044E+03  0.12500000000E+03 0.  0.
         25    1    1    2    0    0  0.71072993024E+02  0.74527051365E+02  0.85358294653E+02  0.18307564062E+03  0.12500000000E+03 0.  0.
         25    1    1    2    0    0 -0.12411054568E+03  0.32028366113E+02 -0.10173255290E+03  0.20592172325E+03  0.12500000000E+03 0.  0.
</event>
<event>
 5    0  0.5539899E-005  0.3562865E+03  0.7546771E-02  0.1060064E+00
         21   -1    0    0  502  501  0.00000000000E+00  0.00000000000E+00  0.56194269704E+02  0.56194269704E+02  0.00000000000E+00 0. -1.
         21   -1    0    0  501  502 -0.00000000000E+00 -0.00000000000E+00 -0.22589510677E+04  0.22589510677E+04  0.00000000000E+00 0. -1.
         25    1    1    2    0    0 -0.16679635899E+03 -0.98479392695E+02 -0.53046900157E+03  0.57839569309E+03  0.12500000000E+03 0.  0.
         25    1    1    2    0    0 -0.17579766469E+02  0.28794892231E+02 -0.12287263764E+04  0.12355289159E+04  0.12500000000E+03 0.  0.
         25    1    1    2    0    0  0.18437612546E+03  0.69684500465E+02 -0.44356142007E+03  0.50122072844E+03  0.12500000000E+03 0.  0.
</event>
<event>
 5    0  0.5539899E-005  0.3131538E+03  0.7546771E-02  0.1078844E+00
         21   -1    0    0  502  501  0.00000000000E+00  0.00000000000E+00  0.64123275372E+03  0.64123275372E+03  0.00000000000E+00 0.  1.
         21   -1    0    0  501  502 -0.00000000000E+00 -0.00000000000E+00 -0.15293246301E+03  0.15293246301E+03  0.00000000000E+00 0.  1.
         25    1    1    2    0    0 -0.88379612344E+01  0.14663018943E+03  0.10399055837E+03  0.21912909036E+03  0.12500000000E+03 0.  0.
         25    1    1    2    0    0 -0.71892230472E+02  0.71096941416E+02  0.18065300025E+03  0.24183418778E+03  0.12500000000E+03 0.  0.
         25    1    1    2    0    0  0.80730191706E+02 -0.21772713084E+03  0.20365673209E+03  0.33320193860E+03  0.12500000000E+03 0.  0.
</event>
<event>
 5    0  0.5539899E-005  0.3602402E+03  0.7546771E-02  0.1058489E+00
         21   -1    0    0  502  501  0.00000000000E+00  0.00000000000E+00  0.36779417344E+04  0.36779417344E+04  0.00000000000E+00 0. -1.
         21   -1    0    0  501  502 -0.00000000000E+00 -0.00000000000E+00 -0.35284141683E+02  0.35284141683E+02  0.00000000000E+00 0. -1.
         25    1    1    2    0    0 -0.23754114005E+03 -0.54681134989E+02  0.13746137207E+04  0.14016432145E+04  0.12500000000E+03 0.  0.
         25    1    1    2    0    0  0.13761552298E+03 -0.67981677461E+02  0.16415140849E+04  0.16534064932E+04  0.12500000000E+03 0.  0.
         25    1    1    2    0    0  0.99925617064E+02  0.12266281245E+03  0.62652978717E+03  0.65817616845E+03  0.12500000000E+03 0.  0.
</event>
<event>
 5    0  0.5539899E-005  0.3780478E+03  0.7546771E-02  0.1051658E+00
         21   -1    0    0  502  501  0.00000000000E+00  0.00000000000E+00  0.40002323240E+03  0.40002323240E+03  0.00000000000E+00 0. -1.
         21   -1    0    0  501  502 -0.00000000000E+00 -0.00000000000E+00 -0.35727955763E+03  0.35727955763E+03  0.00000000000E+00 0. -1.
         25    1    1    2    0    0  0.10491888195E+03  0.15145946706E+03  0.55713144921E+02  0.22951447987E+03  0.12500000000E+03 0.  0.
         25    1    1    2    0    0 -0.15777934224E+03  0.69478533520E+02  0.11127191245E+03  0.24026657271E+03  0.12500000000E+03 0.  0.
         25    1    1    2    0    0  0.52860460290E+02 -0.22093800058E+03 -0.12424138260E+03  0.28752173746E+03  0.12500000000E+03 0.  0.
</event>
<event>
 5    0  0.5539899E-005  0.3574950E+03  0.7546771E-02  0.1059580E+00
         21   -1    0    0  502  501  0.00000000000E+00  0.00000000000E+00  0.33464315980E+03  0.33464315980E+03  0.00000000000E+00 0. -1.
         21   -1    0    0  501  502 -0.00000000000E+00 -0.00000000000E+00 -0.38190742663E+03  0.38190742663E+03  0.00000000000E+00 0. -1.
         25    1    1    2    0    0  0.22338683486E+03 -0.38506040175E+02  0.12742810313E+03  0.28852610728E+03  0.12500000000E+03 0.  0.
         25    1    1    2    0    0 -0.14770876442E+03 -0.72607424971E+02 -0.81635779446E+02  0.22221412586E+03  0.12500000000E+03 0.  0.
         25    1    1    2    0    0 -0.75678070436E+02  0.11111346515E+03 -0.93056590504E+02  0.20581035328E+03  0.12500000000E+03 0.  0.
</event>
<event>
 5    0  0.5539899E-005  0.2267892E+03  0.7546771E-02  0.1128920E+00
         21   -1    0    0  502  501  0.00000000000E+00  0.00000000000E+00  0.23099253521E+03  0.23099253521E+03  0.00000000000E+00 0.  1.
         21   -1    0    0  501  502 -0.00000000000E+00 -0.00000000000E+00 -0.22266244335E+03  0.22266244335E+03  0.00000000000E+00 0.  1.
         25    1    1    2    0    0 -0.80759522926E+02  0.32964398056E+02 -0.61642102936E+01  0.15255080980E+03  0.12500000000E+03 0.  0.
         25    1    1    2    0    0  0.10179654527E+03  0.55879554490E+01 -0.24129778702E+02  0.16309815479E+03  0.12500000000E+03 0.  0.
         25    1    1    2    0    0 -0.21037022345E+02 -0.38552353505E+02  0.38624080849E+02  0.13800601397E+03  0.12500000000E+03 0.  0.
</event>
<event>
 5    0  0.5539899E-005  0.7268268E+03  0.7546771E-02  0.9672424E-01
         21   -1    0    0  502  501  0.00000000000E+00  0.00000000000E+00  0.19620639247E+04  0.19620639247E+04  0.00000000000E+00 0.  1.
         21   -1    0    0  501  502 -0.00000000000E+00 -0.00000000000E+00 -0.26924565952E+03  0.26924565952E+03  0.00000000000E+00 0.  1.
         25    1    1    2    0    0  0.46189921173E+02  0.49575785496E+03  0.20977589011E+03  0.55456314667E+03  0.12500000000E+03 0.  0.
         25    1    1    2    0    0 -0.25041270230E+02 -0.44419820991E+03  0.14680478774E+04  0.15390674726E+04  0.12500000000E+03 0.  0.
         25    1    1    2    0    0 -0.21148650943E+02 -0.51559645049E+02  0.14994497693E+02  0.13767896497E+03  0.12500000000E+03 0.  0.
</event>
<event>
 5    0  0.5539899E-005  0.3189915E+03  0.7546771E-02  0.1076114E+00
         21   -1    0    0  502  501  0.00000000000E+00  0.00000000000E+00  0.38077182072E+03  0.38077182072E+03  0.00000000000E+00 0. -1.
         21   -1    0    0  501  502 -0.00000000000E+00 -0.00000000000E+00 -0.26723511299E+03  0.26723511299E+03  0.00000000000E+00 0. -1.
         25    1    1    2    0    0  0.68804213473E+01 -0.70918364111E+02 -0.14743661249E+03  0.20600803205E+03  0.12500000000E+03 0.  0.
         25    1    1    2    0    0  0.78057114834E+02  0.52048673932E+02  0.20887311218E+02  0.15768087203E+03  0.12500000000E+03 0.  0.
         25    1    1    2    0    0 -0.84937536181E+02  0.18869690179E+02  0.24008600900E+03  0.28431802964E+03  0.12500000000E+03 0.  0.
</event>
<event>
 5    0  0.5539899E-005  0.2574412E+03  0.7546771E-02  0.1108690E+00
         21   -1    0    0  502  501  0.00000000000E+00  0.00000000000E+00  0.35649811732E+03  0.35649811732E+03  0.00000000000E+00 0.  1.
         21   -1    0    0  501  502 -0.00000000000E+00 -0.00000000000E+00 -0.18590829825E+03  0.18590829825E+03  0.00000000000E+00 0.  1.
         25    1    1    2    0    0 -0.49494143529E+02 -0.12695982324E+03  0.11349235949E+03  0.21696539499E+03  0.12500000000E+03 0.  0.
         25    1    1    2    0    0  0.85172751964E+02  0.21107018816E+02  0.25020449499E+02  0.15476086978E+03  0.12500000000E+03 0.  0.
         25    1    1    2    0    0 -0.35678608435E+02  0.10585280442E+03  0.32077010079E+02  0.17068015081E+03  0.12500000000E+03 0.  0.
</event>
<event>
 5    0  0.5539899E-005  0.3002373E+03  0.7546771E-02  0.1085122E+00
         21   -1    0    0  502  501  0.00000000000E+00  0.00000000000E+00  0.12201596931E+04  0.12201596931E+04  0.00000000000E+00 0. -1.
         21   -1    0    0  501  502 -0.00000000000E+00 -0.00000000000E+00 -0.73877568166E+02  0.73877568166E+02  0.00000000000E+00 0. -1.
         25    1    1    2    0    0  0.10579074439E+02  0.44599883512E+02  0.45746945688E+03  0.47644975643E+03  0.12500000000E+03 0.  0.
         25    1    1    2    0    0 -0.53117747731E+01  0.54390972556E+02  0.29934527557E+02  0.13966985640E+03  0.12500000000E+03 0.  0.
         25    1    1    2    0    0 -0.52672996659E+01 -0.98990856068E+02  0.65887814045E+03  0.67791764839E+03  0.12500000000E+03 0.  0.
</event>
<event>
 5    0  0.6449601E-005  0.3327352E+03  0.7546771E-02  0.1069933E+00
         21   -1    0    0  502  501  0.00000000000E+00  0.00000000000E+00  0.57337681488E+03  0.57337681488E+03  0.00000000000E+00 0.  1.
         21   -1    0    0  501  502 -0.00000000000E+00 -0.00000000000E+00 -0.19308892038E+03  0.19308892038E+03  0.00000000000E+00 0.  1.
         25    1    1    2    0    0  0.26080840538E+02 -0.31485551044E+02 -0.11855140062E+03  0.17706209294E+03  0.12500000000E+03 0.  0.
         25    1    1    2    0    0  0.58609214487E+02  0.63569905358E+02  0.18319021384E+03  0.23803324838E+03  0.12500000000E+03 0.  0.
         25    1    1    2    0    0 -0.84690055024E+02 -0.32084354314E+02  0.31564908129E+03  0.35137039393E+03  0.12500000000E+03 0.  0.
</event>
<event>
 5    0  0.5539899E-005  0.4152299E+03  0.7546771E-02  0.1038630E+00
         21   -1    0    0  502  501  0.00000000000E+00  0.00000000000E+00  0.42428914750E+03  0.42428914750E+03  0.00000000000E+00 0.  1.
         21   -1    0    0  501  502 -0.00000000000E+00 -0.00000000000E+00 -0.40636403913E+03  0.40636403913E+03  0.00000000000E+00 0.  1.
         25    1    1    2    0    0  0.14516764833E+03 -0.85996399819E+02 -0.20910223598E+03  0.29634063507E+03  0.12500000000E+03 0.  0.
         25    1    1    2    0    0  0.11926089834E+03 -0.12997177082E+02  0.60685855620E+02  0.18357522044E+03  0.12500000000E+03 0.  0.
         25    1    1    2    0    0 -0.26442854668E+03  0.98993576901E+02  0.16634148873E+03  0.35073733112E+03  0.12500000000E+03 0.  0.
</event>
<event>
 5    0  0.5539899E-005  0.3095642E+03  0.7546771E-02  0.1080555E+00
         21   -1    0    0  502  501  0.00000000000E+00  0.00000000000E+00  0.18274204308E+04  0.18274204308E+04  0.00000000000E+00 0.  1.
         21   -1    0    0  501  502 -0.00000000000E+00 -0.00000000000E+00 -0.52440035902E+02  0.52440035902E+02  0.00000000000E+00 0.  1.
         25    1    1    2    0    0  0.19117689191E+03  0.40137500261E+02  0.99668587369E+03  0.10233119533E+04  0.12500000000E+03 0.  0.
         25    1    1    2    0    0 -0.11663241079E+03  0.54053039039E+02  0.32407925493E+03  0.37037442373E+03  0.12500000000E+03 0.  0.
         25    1    1    2    0    0 -0.74544481119E+02 -0.94190539300E+02  0.45421526625E+03  0.48617408966E+03  0.12500000000E+03 0.  0.
</event>
<event>
 5    0  0.6040535E-005  0.3882058E+03  0.7546771E-02  0.1047942E+00
         21   -1    0    0  502  501  0.00000000000E+00  0.00000000000E+00  0.43501678456E+03  0.43501678456E+03  0.00000000000E+00 0. -1.
         21   -1    0    0  501  502 -0.00000000000E+00 -0.00000000000E+00 -0.34643210635E+03  0.34643210635E+03  0.00000000000E+00 0. -1.
         25    1    1    2    0    0  0.12675739608E+03 -0.29459260595E+02 -0.17149028838E+03  0.24893614543E+03  0.12500000000E+03 0.  0.
         25    1    1    2    0    0 -0.12555735143E+03  0.18626240416E+03  0.99648599882E+02  0.27570486967E+03  0.12500000000E+03 0.  0.
         25    1    1    2    0    0 -0.12000446440E+01 -0.15680314356E+03  0.16042636671E+03  0.25680787580E+03  0.12500000000E+03 0.  0.
</event>
<event>
 5    0  0.5539899E-005  0.2583317E+03  0.7546771E-02  0.1108150E+00
         21   -1    0    0  502  501  0.00000000000E+00  0.00000000000E+00  0.50526378142E+04  0.50526378142E+04  0.00000000000E+00 0.  1.
         21   -1    0    0  501  502 -0.00000000000E+00 -0.00000000000E+00 -0.13208001586E+02  0.13208001586E+02  0.00000000000E+00 0.  1.
         25    1    1    2    0    0  0.10629145243E+03  0.40777536412E+02  0.93184071306E+03  0.94705480034E+03  0.12500000000E+03 0.  0.
         25    1    1    2    0    0 -0.47971537361E+02  0.29146139405E+02  0.13694115417E+04  0.13762498815E+04  0.12500000000E+03 0.  0.
         25    1    1    2    0    0 -0.58319915067E+02 -0.69923675816E+02  0.27381775579E+04  0.27425411339E+04  0.12500000000E+03 0.  0.
</event>
<event>
 5    0  0.5539899E-005  0.2914715E+03  0.7546771E-02  0.1089583E+00
         21   -1    0    0  502  501  0.00000000000E+00  0.00000000000E+00  0.19130522279E+02  0.19130522279E+02  0.00000000000E+00 0. -1.
         21   -1    0    0  501  502 -0.00000000000E+00 -0.00000000000E+00 -0.44408433181E+04  0.44408433181E+04  0.00000000000E+00 0. -1.
         25    1    1    2    0    0 -0.61216382141E+02  0.48410531494E+01 -0.50183759947E+03  0.52080404902E+03  0.12500000000E+03 0.  0.
         25    1    1    2    0    0  0.10359625159E+03 -0.12865681324E+03 -0.19316669614E+04  0.19427421365E+04  0.12500000000E+03 0.  0.
         25    1    1    2    0    0 -0.42379869446E+02  0.12381576010E+03 -0.19882082349E+04  0.19964276549E+04  0.12500000000E+03 0.  0.
</event>
<event>
 5    0  0.5539899E-005  0.3189202E+03  0.7546771E-02  0.1076147E+00
         21   -1    0    0  502  501  0.00000000000E+00  0.00000000000E+00  0.12300165683E+04  0.12300165683E+04  0.00000000000E+00 0. -1.
         21   -1    0    0  501  502 -0.00000000000E+00 -0.00000000000E+00 -0.82689999118E+02  0.82689999118E+02  0.00000000000E+00 0. -1.
         25    1    1    2    0    0  0.63563682892E+02 -0.50078924334E+02  0.24687038224E+03  0.28830231714E+03  0.12500000000E+03 0.  0.
         25    1    1    2    0    0 -0.11182273398E+03  0.88158344464E+02  0.10456334112E+03  0.21641328480E+03  0.12500000000E+03 0.  0.
         25    1    1    2    0    0  0.48259051084E+02 -0.38079420130E+02  0.79589284585E+03  0.80799096550E+03  0.12500000000E+03 0.  0.
</event>
<event>
 5    0  0.5539899E-005  0.3320534E+03  0.7546771E-02  0.1070232E+00
         21   -1    0    0  502  501  0.00000000000E+00  0.00000000000E+00  0.18755909116E+03  0.18755909116E+03  0.00000000000E+00 0. -1.
         21   -1    0    0  501  502 -0.00000000000E+00 -0.00000000000E+00 -0.58786502530E+03  0.58786502530E+03  0.00000000000E+00 0. -1.
         25    1    1    2    0    0  0.50960031280E+02  0.40165431330E+02 -0.32512351247E+03  0.35431692737E+03  0.12500000000E+03 0.  0.
         25    1    1    2    0    0 -0.91580200777E+02  0.12211590628E+03 -0.78277546739E+02  0.21225362674E+03  0.12500000000E+03 0.  0.
         25    1    1    2    0    0  0.40620169497E+02 -0.16228133761E+03  0.30951250723E+01  0.20885356235E+03  0.12500000000E+03 0.  0.
</event>
<event>
 5    0  0.6472209E-005  0.4145614E+03  0.7546771E-02  0.1038851E+00
         21   -1    0    0  502  501  0.00000000000E+00  0.00000000000E+00  0.45644802363E+03  0.45644802363E+03  0.00000000000E+00 0.  1.
         21   -1    0    0  501  502 -0.00000000000E+00 -0.00000000000E+00 -0.37651856333E+03  0.37651856333E+03  0.00000000000E+00 0.  1.
         25    1    1    2    0    0  0.17045659003E+03  0.62342936871E+02  0.24402608180E+03  0.32880970098E+03  0.12500000000E+03 0.  0.
         25    1    1    2    0    0 -0.15419940910E+03 -0.12454822761E+03  0.57912845733E+02  0.24138893195E+03  0.12500000000E+03 0.  0.
         25    1    1    2    0    0 -0.16257180931E+02  0.62205290737E+02 -0.22200946723E+03  0.26276795403E+03  0.12500000000E+03 0.  0.
</event>
<event>
 5    0  0.5539899E-005  0.4344456E+03  0.7546771E-02  0.1032465E+00
         21   -1    0    0  502  501  0.00000000000E+00  0.00000000000E+00  0.22297212450E+03  0.22297212450E+03  0.00000000000E+00 0.  1.
         21   -1    0    0  501  502 -0.00000000000E+00 -0.00000000000E+00 -0.84648671011E+03  0.84648671011E+03  0.00000000000E+00 0.  1.
         25    1    1    2    0    0  0.32043165350E+03  0.13430001642E+02 -0.24683739931E+03  0.42356877979E+03  0.12500000000E+03 0.  0.
         25    1    1    2    0    0 -0.18085213849E+03 -0.17179675209E+03 -0.21198251018E+03  0.35040434450E+03  0.12500000000E+03 0.  0.
         25    1    1    2    0    0 -0.13957951501E+03  0.15836675045E+03 -0.16469467612E+03  0.29548571032E+03  0.12500000000E+03 0.  0.
</event>
<event>
 5    0  0.5539899E-005  0.3716717E+03  0.7546771E-02  0.1054056E+00
         21   -1    0    0  502  501  0.00000000000E+00  0.00000000000E+00  0.12778455425E+03  0.12778455425E+03  0.00000000000E+00 0.  1.
         21   -1    0    0  501  502 -0.00000000000E+00 -0.00000000000E+00 -0.10810374357E+04  0.10810374357E+04  0.00000000000E+00 0.  1.
         25    1    1    2    0    0  0.16080623877E+03 -0.36891544603E+02 -0.20689322375E+02  0.20802086566E+03  0.12500000000E+03 0.  0.
         25    1    1    2    0    0 -0.44676872154E+02  0.97810053730E+02 -0.29451742128E+03  0.33753272575E+03  0.12500000000E+03 0.  0.
         25    1    1    2    0    0 -0.11612936661E+03 -0.60918509127E+02 -0.63804613782E+03  0.66326839857E+03  0.12500000000E+03 0.  0.
</event>
<event>
 5    0  0.5539899E-005  0.3950573E+03  0.7546771E-02  0.1045505E+00
         21   -1    0    0  502  501  0.00000000000E+00  0.00000000000E+00  0.10899500507E+04  0.10899500507E+04  0.00000000000E+00 0.  1.
         21   -1    0    0  501  502 -0.00000000000E+00 -0.00000000000E+00 -0.14319028870E+03  0.14319028870E+03  0.00000000000E+00 0.  1.
         25    1    1    2    0    0  0.18479314875E+03  0.21463543120E+01  0.29494004912E+03  0.36982123687E+03  0.12500000000E+03 0.  0.
         25    1    1    2    0    0  0.42064549313E+01 -0.11386723645E+03  0.53369693642E+01  0.16922448122E+03  0.12500000000E+03 0.  0.
         25    1    1    2    0    0 -0.18899960368E+03  0.11172088214E+03  0.64648274353E+03  0.69409462135E+03  0.12500000000E+03 0.  0.
</event>
<event>
 5    0  0.5539899E-005  0.2831300E+03  0.7546771E-02  0.1093992E+00
         21   -1    0    0  502  501  0.00000000000E+00  0.00000000000E+00  0.36994155128E+02  0.36994155128E+02  0.00000000000E+00 0. -1.
         21   -1    0    0  501  502 -0.00000000000E+00 -0.00000000000E+00 -0.21668987791E+04  0.21668987791E+04  0.00000000000E+00 0. -1.
         25    1    1    2    0    0 -0.11895911371E+02 -0.10746917058E+03 -0.80103738044E+03  0.81791015411E+03  0.12500000000E+03 0.  0.
         25    1    1    2    0    0  0.80439662018E+02  0.79312437831E+02 -0.11135170899E+04  0.11261910635E+04  0.12500000000E+03 0.  0.
         25    1    1    2    0    0 -0.68543750648E+02  0.28156732750E+02 -0.21535015364E+03  0.25979171662E+03  0.12500000000E+03 0.  0.
</event>
<event>
 5    0  0.5539899E-005  0.2502066E+03  0.7546771E-02  0.1113174E+00
         21   -1    0    0  502  501  0.00000000000E+00  0.00000000000E+00  0.69800436023E+02  0.69800436023E+02  0.00000000000E+00 0.  1.
         21   -1    0    0  501  502 -0.00000000000E+00 -0.00000000000E+00 -0.89689012781E+03  0.89689012781E+03  0.00000000000E+00 0.  1.
         25    1    1    2    0    0  0.16051975753E+01 -0.51528693828E+02 -0.52622505041E+03  0.54331904681E+03  0.12500000000E+03 0.  0.
         25    1    1    2    0    0 -0.68643476770E+02  0.56275165607E+02 -0.12806027754E+03  0.19975799321E+03  0.12500000000E+03 0.  0.
         25    1    1    2    0    0  0.67038279194E+02 -0.47464717793E+01 -0.17280436384E+03  0.22361352382E+03  0.12500000000E+03 0.  0.
</event>
<event>
 5    0  0.5539899E-005  0.3030385E+03  0.7546771E-02  0.1083731E+00
         21   -1    0    0  502  501  0.00000000000E+00  0.00000000000E+00  0.86287326348E+03  0.86287326348E+03  0.00000000000E+00 0.  1.
         21   -1    0    0  501  502 -0.00000000000E+00 -0.00000000000E+00 -0.10642623321E+03  0.10642623321E+03  0.00000000000E+00 0.  1.
         25    1    1    2    0    0  0.13220596935E+03  0.18187711737E+02  0.36573121159E+03  0.40889305487E+03  0.12500000000E+03 0.  0.
         25    1    1    2    0    0 -0.61654419040E+02 -0.84207731394E+02  0.28610908083E+02  0.16533539692E+03  0.12500000000E+03 0.  0.
         25    1    1    2    0    0 -0.70551550306E+02  0.66020019657E+02  0.36210491059E+03  0.39507104490E+03  0.12500000000E+03 0.  0.
</event>
<event>
 5    0  0.5539899E-005  0.2967202E+03  0.7546771E-02  0.1086892E+00
         21   -1    0    0  502  501  0.00000000000E+00  0.00000000000E+00  0.78219313816E+03  0.78219313816E+03  0.00000000000E+00 0.  1.
         21   -1    0    0  501  502 -0.00000000000E+00 -0.00000000000E+00 -0.11255898655E+03  0.11255898655E+03  0.00000000000E+00 0.  1.
         25    1    1    2    0    0  0.15089490106E+03 -0.10532441641E+02  0.13960457536E+03  0.24082076520E+03  0.12500000000E+03 0.  0.
         25    1    1    2    0    0 -0.11438166512E+03 -0.22816790994E+02  0.88742903785E+02  0.19262417875E+03  0.12500000000E+03 0.  0.
         25    1    1    2    0    0 -0.36513235934E+02  0.33349232635E+02  0.44128667247E+03  0.46130718076E+03  0.12500000000E+03 0.  0.
</event>
<event>
 5    0  0.5539899E-005  0.2847642E+03  0.7546771E-02  0.1093115E+00
         21   -1    0    0  502  501  0.00000000000E+00  0.00000000000E+00  0.69683404899E+02  0.69683404899E+02  0.00000000000E+00 0. -1.
         21   -1    0    0  501  502 -0.00000000000E+00 -0.00000000000E+00 -0.11637010228E+04  0.11637010228E+04  0.00000000000E+00 0. -1.
         25    1    1    2    0    0  0.65697425842E+02  0.29645612137E+02 -0.57871323119E+03  0.59643022898E+03  0.12500000000E+03 0.  0.
         25    1    1    2    0    0  0.85698911420E+02 -0.76543749440E+02 -0.19734453395E+03  0.26033269882E+03  0.12500000000E+03 0.  0.
         25    1    1    2    0    0 -0.15139633726E+03  0.46898137303E+02 -0.31795985275E+03  0.37662149989E+03  0.12500000000E+03 0.  0.
</event>
<event>
 5    0  0.5539899E-005  0.2624327E+03  0.7546771E-02  0.1105690E+00
         21   -1    0    0  502  501  0.00000000000E+00  0.00000000000E+00  0.59500604991E+02  0.59500604991E+02  0.00000000000E+00 0. -1.
         21   -1    0    0  501  502 -0.00000000000E+00 -0.00000000000E+00 -0.11574828396E+04  0.11574828396E+04  0.00000000000E+00 0. -1.
         25    1    1    2    0    0  0.97645271978E+02  0.52545319072E+02 -0.18403185287E+03  0.24857259014E+03  0.12500000000E+03 0.  0.
         25    1    1    2    0    0 -0.11415965406E+02  0.37910522436E+02 -0.26277060813E+03  0.29366805150E+03  0.12500000000E+03 0.  0.
         25    1    1    2    0    0 -0.86229306572E+02 -0.90455841508E+02 -0.65117977360E+03  0.67474280294E+03  0.12500000000E+03 0.  0.
</event>
<event>
 5    0  0.5539899E-005  0.3473651E+03  0.7546771E-02  0.1063702E+00
         21   -1    0    0  502  501  0.00000000000E+00  0.00000000000E+00  0.10871136892E+03  0.10871136892E+03  0.00000000000E+00 0. -1.
         21   -1    0    0  501  502 -0.00000000000E+00 -0.00000000000E+00 -0.11099345990E+04  0.11099345990E+04  0.00000000000E+00 0. -1.
         25    1    1    2    0    0  0.94670342878E+02  0.67596810384E+02 -0.92395222900E+02  0.19414860239E+03  0.12500000000E+03 0.  0.
         25    1    1    2    0    0 -0.78565077074E+02 -0.17502295266E+03 -0.22544309772E+03  0.32133330920E+03  0.12500000000E+03 0.  0.
         25    1    1    2    0    0 -0.16105265804E+02  0.10742614228E+03 -0.68338490946E+03  0.70316405632E+03  0.12500000000E+03 0.  0.
</event>
<event>
 5    0  0.5539899E-005  0.3887809E+03  0.7546771E-02  0.1047735E+00
         21   -1    0    0  502  501  0.00000000000E+00  0.00000000000E+00  0.95780608473E+03  0.95780608473E+03  0.00000000000E+00 0.  1.
         21   -1    0    0  501  502 -0.00000000000E+00 -0.00000000000E+00 -0.15780920884E+03  0.15780920884E+03  0.00000000000E+00 0.  1.
         25    1    1    2    0    0  0.30960177860E+02 -0.12472079379E+03  0.52689017602E+02  0.18685540290E+03  0.12500000000E+03 0.  0.
         25    1    1    2    0    0 -0.12119385429E+03  0.11673827102E+03  0.51257559817E+02  0.21579645891E+03  0.12500000000E+03 0.  0.
         25    1    1    2    0    0  0.90233676431E+02  0.79825227666E+01  0.69605029847E+03  0.71296343176E+03  0.12500000000E+03 0.  0.
</event>
<event>
 5    0  0.5539899E-005  0.2250210E+03  0.7546771E-02  0.1130194E+00
         21   -1    0    0  502  501  0.00000000000E+00  0.00000000000E+00  0.25955039565E+03  0.25955039565E+03  0.00000000000E+00 0. -1.
         21   -1    0    0  501  502 -0.00000000000E+00 -0.00000000000E+00 -0.19508527711E+03  0.19508527711E+03  0.00000000000E+00 0. -1.
         25    1    1    2    0    0 -0.85114949753E+02 -0.32504101570E+02  0.73934576840E+02  0.17144209793E+03  0.12500000000E+03 0.  0.
         25    1    1    2    0    0  0.30709142215E+02  0.33242995966E+02  0.38938168533E+02  0.13852555420E+03  0.12500000000E+03 0.  0.
         25    1    1    2    0    0  0.54405807538E+02 -0.73889439585E+00 -0.48407626826E+02  0.14466802063E+03  0.12500000000E+03 0.  0.
</event>
<event>
 5    0  0.5539899E-005  0.3350206E+03  0.7546771E-02  0.1068937E+00
         21   -1    0    0  502  501  0.00000000000E+00  0.00000000000E+00  0.14723889228E+03  0.14723889228E+03  0.00000000000E+00 0. -1.
         21   -1    0    0  501  502 -0.00000000000E+00 -0.00000000000E+00 -0.76229049444E+03  0.76229049444E+03  0.00000000000E+00 0. -1.
         25    1    1    2    0    0 -0.17717269912E+03 -0.82661802246E+02 -0.55511917410E+02  0.23859947996E+03  0.12500000000E+03 0.  0.
         25    1    1    2    0    0  0.11456758652E+03 -0.28900656945E+02 -0.38188929338E+03  0.41883816953E+03  0.12500000000E+03 0.  0.
         25    1    1    2    0    0  0.62605112596E+02  0.11156245919E+03 -0.17765039137E+03  0.25209173722E+03  0.12500000000E+03 0.  0.
</event>
<event>
 5    0  0.5539899E-005  0.2919570E+03  0.7546771E-02  0.1089332E+00
         21   -1    0    0  502  501  0.00000000000E+00  0.00000000000E+00  0.76443850470E+03  0.76443850470E+03  0.00000000000E+00 0. -1.
         21   -1    0    0  501  502 -0.00000000000E+00 -0.00000000000E+00 -0.11150520581E+03  0.11150520581E+03  0.00000000000E+00 0. -1.
         25    1    1    2    0    0  0.10882697410E+03  0.89295931298E+02  0.13498284393E+03  0.23165155254E+03  0.12500000000E+03 0.  0.
         25    1    1    2    0    0 -0.13529145507E+02 -0.16395867958E+03  0.31793710226E+03  0.37917606383E+03  0.12500000000E+03 0.  0.
         25    1    1    2    0    0 -0.95297828598E+02  0.74662748279E+02  0.20001335269E+03  0.26511609414E+03  0.12500000000E+03 0.  0.
</event>
<event>
 5    0  0.5539899E-005  0.2901651E+03  0.7546771E-02  0.1090263E+00
         21   -1    0    0  502  501  0.00000000000E+00  0.00000000000E+00  0.94069564958E+03  0.94069564958E+03  0.00000000000E+00 0. -1.
         21   -1    0    0  501  502 -0.00000000000E+00 -0.00000000000E+00 -0.89503758588E+02  0.89503758588E+02  0.00000000000E+00 0. -1.
         25    1    1    2    0    0  0.10437232353E+03  0.12551340584E+03  0.60679105449E+03  0.64067743894E+03  0.12500000000E+03 0.  0.
         25    1    1    2    0    0 -0.28391290588E+02 -0.44374799579E+02  0.99736001641E+02  0.16836703431E+03  0.12500000000E+03 0.  0.
         25    1    1    2    0    0 -0.75981032937E+02 -0.81138606256E+02  0.14466483486E+03  0.22115493491E+03  0.12500000000E+03 0.  0.
</event>
<event>
 5    0  0.5539899E-005  0.3839157E+03  0.7546771E-02  0.1049496E+00
         21   -1    0    0  502  501  0.00000000000E+00  0.00000000000E+00  0.61214338296E+03  0.61214338296E+03  0.00000000000E+00 0.  1.
         21   -1    0    0  501  502 -0.00000000000E+00 -0.00000000000E+00 -0.24077902552E+03  0.24077902552E+03  0.00000000000E+00 0.  1.
         25    1    1    2    0    0  0.17602682892E+03  0.22513298731E+03  0.87485531914E+02  0.32395836888E+03  0.12500000000E+03 0.  0.
         25    1    1    2    0    0 -0.48663888070E+02 -0.23156500600E+03  0.16343950242E+03  0.31357295317E+03  0.12500000000E+03 0.  0.
         25    1    1    2    0    0 -0.12736294085E+03  0.64320186947E+01  0.12043932310E+03  0.21539108643E+03  0.12500000000E+03 0.  0.
</event>
<event>
 5    0  0.5539899E-005  0.2731017E+03  0.7546771E-02  0.1099517E+00
         21   -1    0    0  502  501  0.00000000000E+00  0.00000000000E+00  0.96109108754E+02  0.96109108754E+02  0.00000000000E+00 0. -1.
         21   -1    0    0  501  502 -0.00000000000E+00 -0.00000000000E+00 -0.77604051438E+03  0.77604051438E+03  0.00000000000E+00 0. -1.
         25    1    1    2    0    0  0.97803033687E+02  0.41769387180E+02 -0.31381693816E+03  0.35414147706E+03  0.12500000000E+03 0.  0.
         25    1    1    2    0    0 -0.91019128766E+02  0.88268622514E+02 -0.23538109143E+03  0.29513571408E+03  0.12500000000E+03 0.  0.
         25    1    1    2    0    0 -0.67839049208E+01 -0.13003800969E+03 -0.13073337604E+03  0.22287243199E+03  0.12500000000E+03 0.  0.
</event>
<event>
 5    0  0.6269194E-005  0.3403185E+03  0.7546771E-02  0.1066660E+00
         21   -1    0    0  502  501  0.00000000000E+00  0.00000000000E+00  0.45288887701E+03  0.45288887701E+03  0.00000000000E+00 0. -1.
         21   -1    0    0  501  502 -0.00000000000E+00 -0.00000000000E+00 -0.25572866968E+03  0.25572866968E+03  0.00000000000E+00 0. -1.
         25    1    1    2    0    0  0.11732153658E+02  0.60372166559E+02  0.22892250743E+03  0.26797939535E+03  0.12500000000E+03 0.  0.
         25    1    1    2    0    0  0.68337763751E+02 -0.19037012031E+03 -0.48287110142E+02  0.24262620977E+03  0.12500000000E+03 0.  0.
         25    1    1    2    0    0 -0.80069917410E+02  0.12999795375E+03  0.16524810035E+02  0.19801194156E+03  0.12500000000E+03 0.  0.
</event>
<event>
 5    0  0.5539899E-005  0.3639955E+03  0.7546771E-02  0.1057013E+00
         21   -1    0    0  502  501  0.00000000000E+00  0.00000000000E+00  0.17410929503E+04  0.17410929503E+04  0.00000000000E+00 0. -1.
         21   -1    0    0  501  502 -0.00000000000E+00 -0.00000000000E+00 -0.76097458098E+02  0.76097458098E+02  0.00000000000E+00 0. -1.
         25    1    1    2    0    0 -0.24505283440E+03 -0.67802676950E+02  0.66481850367E+03  0.72267332694E+03  0.12500000000E+03 0.  0.
         25    1    1    2    0    0  0.12177695849E+03  0.11714890932E+03  0.78403352459E+03  0.81171858563E+03  0.12500000000E+03 0.  0.
         25    1    1    2    0    0  0.12327587591E+03 -0.49346232373E+02  0.21614346389E+03  0.28279849577E+03  0.12500000000E+03 0.  0.
</event>
<event>
 5    0  0.5539899E-005  0.3807196E+03  0.7546771E-02  0.1050668E+00
         21   -1    0    0  502  501  0.00000000000E+00  0.00000000000E+00  0.17649595302E+03  0.17649595302E+03  0.00000000000E+00 0. -1.
         21   -1    0    0  501  502 -0.00000000000E+00 -0.00000000000E+00 -0.82125069747E+03  0.82125069747E+03  0.00000000000E+00 0. -1.
         25    1    1    2    0    0  0.13409108736E+03  0.11928660111E+03 -0.25994302148E+03  0.33971324279E+03  0.12500000000E+03 0.  0.
         25    1    1    2    0    0  0.92156029895E+02  0.98724297573E+02 -0.72692443391E+02  0.19785957673E+03  0.12500000000E+03 0.  0.
         25    1    1    2    0    0 -0.22624711726E+03 -0.21801089869E+03 -0.31211927958E+03  0.46017383096E+03  0.12500000000E+03 0.  0.
</event>
<event>
 5    0  0.5539899E-005  0.2660653E+03  0.7546771E-02  0.1103553E+00
         21   -1    0    0  502  501  0.00000000000E+00  0.00000000000E+00  0.74669531685E+03  0.74669531685E+03  0.00000000000E+00 0.  1.
         21   -1    0    0  501  502 -0.00000000000E+00 -0.00000000000E+00 -0.94805366396E+02  0.94805366396E+02  0.00000000000E+00 0.  1.
         25    1    1    2    0    0  0.37844652128E+02 -0.90574342698E+02  0.35827291587E+03  0.39194439847E+03  0.12500000000E+03 0.  0.
         25    1    1    2    0    0 -0.11866673669E+03  0.16964515277E+02  0.16854819230E+03  0.24166729671E+03  0.12500000000E+03 0.  0.
         25    1    1    2    0    0  0.80822084558E+02  0.73609827421E+02  0.12506884229E+03  0.20788898806E+03  0.12500000000E+03 0.  0.
</event>
<event>
 5    0  0.5539899E-005  0.2874563E+03  0.7546771E-02  0.1091685E+00
         21   -1    0    0  502  501  0.00000000000E+00  0.00000000000E+00  0.25019593478E+03  0.25019593478E+03  0.00000000000E+00 0. -1.
         21   -1    0    0  501  502 -0.00000000000E+00 -0.00000000000E+00 -0.33026569407E+03  0.33026569407E+03  0.00000000000E+00 0. -1.
         25    1    1    2    0    0  0.40830483637E+02 -0.56685473147E+02  0.41997375241E+02  0.14922851868E+03  0.12500000000E+03 0.  0.
         25    1    1    2    0    0 -0.38880331159E+02 -0.10000543728E+03  0.44464394047E+02  0.17063074158E+03  0.12500000000E+03 0.  0.
         25    1    1    2    0    0 -0.19501524788E+01  0.15669091042E+03 -0.16653152857E+03  0.26060236859E+03  0.12500000000E+03 0.  0.
</event>
<event>
 5    0  0.5539899E-005  0.3272747E+03  0.7546771E-02  0.1072349E+00
         21   -1    0    0  502  501  0.00000000000E+00  0.00000000000E+00  0.28550137753E+03  0.28550137753E+03  0.00000000000E+00 0.  1.
         21   -1    0    0  501  502 -0.00000000000E+00 -0.00000000000E+00 -0.37516003070E+03  0.37516003070E+03  0.00000000000E+00 0.  1.
         25    1    1    2    0    0  0.13318393886E+02 -0.16680011633E+03 -0.33905198854E+02  0.21159919880E+03  0.12500000000E+03 0.  0.
         25    1    1    2    0    0  0.78375036574E+02 -0.32342711063E+02 -0.11499114809E+03  0.18983324644E+03  0.12500000000E+03 0.  0.
         25    1    1    2    0    0 -0.91693430460E+02  0.19914282739E+03  0.59237693778E+02  0.25922896299E+03  0.12500000000E+03 0.  0.
</event>
<event>
 5    0  0.5539899E-005  0.7320422E+03  0.7546771E-02  0.9663952E-01
         21   -1    0    0  502  501  0.00000000000E+00  0.00000000000E+00  0.12891392881E+04  0.12891392881E+04  0.00000000000E+00 0. -1.
         21   -1    0    0  501  502 -0.00000000000E+00 -0.00000000000E+00 -0.41569270364E+03  0.41569270364E+03  0.00000000000E+00 0. -1.
         25    1    1    2    0    0 -0.12571077190E+03 -0.21429859348E+03  0.44060365179E+02  0.28159083991E+03  0.12500000000E+03 0.  0.
         25    1    1    2    0    0  0.61689827511E+03  0.10900213161E+03  0.44728903570E+03  0.77983166644E+03  0.12500000000E+03 0.  0.
         25    1    1    2    0    0 -0.49118750321E+03  0.10529646187E+03  0.38209718357E+03  0.64340948538E+03  0.12500000000E+03 0.  0.
</event>
<event>
 5    0  0.5539899E-005  0.3085214E+03  0.7546771E-02  0.1081057E+00
         21   -1    0    0  502  501  0.00000000000E+00  0.00000000000E+00  0.48768738037E+03  0.48768738037E+03  0.00000000000E+00 0. -1.
         21   -1    0    0  501  502 -0.00000000000E+00 -0.00000000000E+00 -0.19517718243E+03  0.19517718243E+03  0.00000000000E+00 0. -1.
         25    1    1    2    0    0 -0.11182443941E+03  0.65603408516E+02  0.10995122880E+03  0.21100423022E+03  0.12500000000E+03 0.  0.
         25    1    1    2    0    0  0.57779670633E+02 -0.10899395810E+03  0.25655920209E+03  0.31091123720E+03  0.12500000000E+03 0.  0.
         25    1    1    2    0    0  0.54044768772E+02  0.43390549580E+02 -0.74000232959E+02  0.16094909538E+03  0.12500000000E+03 0.  0.
</event>
<event>
 5    0  0.5539899E-005  0.2774718E+03  0.7546771E-02  0.1097078E+00
         21   -1    0    0  502  501  0.00000000000E+00  0.00000000000E+00  0.92912019806E+03  0.92912019806E+03  0.00000000000E+00 0. -1.
         21   -1    0    0  501  502 -0.00000000000E+00 -0.00000000000E+00 -0.82863957645E+02  0.82863957645E+02  0.00000000000E+00 0. -1.
         25    1    1    2    0    0 -0.47493184593E+02 -0.98041818534E+00  0.14283629376E+02  0.13448266011E+03  0.12500000000E+03 0.  0.
         25    1    1    2    0    0  0.59961558162E+02 -0.44047192625E+02  0.44358523982E+03  0.46682802896E+03  0.12500000000E+03 0.  0.
         25    1    1    2    0    0 -0.12468373569E+02  0.45027610810E+02  0.38838737122E+03  0.41067346663E+03  0.12500000000E+03 0.  0.
</event>
<event>
 5    0  0.5539899E-005  0.2598926E+03  0.7546771E-02  0.1107208E+00
         21   -1    0    0  502  501  0.00000000000E+00  0.00000000000E+00  0.67291269124E+03  0.67291269124E+03  0.00000000000E+00 0. -1.
         21   -1    0    0  501  502 -0.00000000000E+00 -0.00000000000E+00 -0.10037583550E+03  0.10037583550E+03  0.00000000000E+00 0. -1.
         25    1    1    2    0    0  0.15562243417E+03 -0.14899134886E+02  0.21828396160E+03  0.29616416753E+03  0.12500000000E+03 0.  0.
         25    1    1    2    0    0 -0.76956791012E+02  0.68547270763E+02  0.19277698794E+03  0.25181152295E+03  0.12500000000E+03 0.  0.
         25    1    1    2    0    0 -0.78665643160E+02 -0.53648135877E+02  0.16147590621E+03  0.22531283626E+03  0.12500000000E+03 0.  0.
</event>
<event>
 5    0  0.5539899E-005  0.2753620E+03  0.7546771E-02  0.1098249E+00
         21   -1    0    0  502  501  0.00000000000E+00  0.00000000000E+00  0.75114212159E+03  0.75114212159E+03  0.00000000000E+00 0. -1.
         21   -1    0    0  501  502 -0.00000000000E+00 -0.00000000000E+00 -0.10094524440E+03  0.10094524440E+03  0.00000000000E+00 0. -1.
         25    1    1    2    0    0 -0.18890412912E+02 -0.67601596132E+02  0.16201445877E+03  0.21633425145E+03  0.12500000000E+03 0.  0.
         25    1    1    2    0    0  0.90784689416E+02 -0.87697544618E+02  0.13209722171E+03  0.22137613952E+03  0.12500000000E+03 0.  0.
         25    1    1    2    0    0 -0.71894276504E+02  0.15529914075E+03  0.35608519671E+03  0.41437697502E+03  0.12500000000E+03 0.  0.
</event>
<event>
 5    0  0.5539899E-005  0.5711201E+03  0.7546771E-02  0.9967203E-01
         21   -1    0    0  502  501  0.00000000000E+00  0.00000000000E+00  0.40391426060E+03  0.40391426060E+03  0.00000000000E+00 0.  1.
         21   -1    0    0  501  502 -0.00000000000E+00 -0.00000000000E+00 -0.80754316102E+03  0.80754316102E+03  0.00000000000E+00 0.  1.
         25    1    1    2    0    0 -0.14445396363E+03 -0.37802333538E+02  0.18110297927E+03  0.26593091797E+03  0.12500000000E+03 0.  0.
         25    1    1    2    0    0  0.30039529364E+03 -0.11383548735E+02 -0.65219015497E+03  0.72893340976E+03  0.12500000000E+03 0.  0.
         25    1    1    2    0    0 -0.15594133001E+03  0.49185882272E+02  0.67458275278E+02  0.21659309390E+03  0.12500000000E+03 0.  0.
</event>
<event>
 5    0  0.5539899E-005  0.3087911E+03  0.7546771E-02  0.1080927E+00
         21   -1    0    0  502  501  0.00000000000E+00  0.00000000000E+00  0.32619347891E+02  0.32619347891E+02  0.00000000000E+00 0.  1.
         21   -1    0    0  501  502 -0.00000000000E+00 -0.00000000000E+00 -0.29231716819E+04  0.29231716819E+04  0.00000000000E+00 0.  1.
         25    1    1    2    0    0  0.34641077366E+02 -0.76756947714E+02 -0.36245087056E+03  0.39253950990E+03  0.12500000000E+03 0.  0.
         25    1    1    2    0    0 -0.11364733725E+03 -0.76850199161E+02 -0.16127784431E+04  0.16234226119E+04  0.12500000000E+03 0.  0.
         25    1    1    2    0    0  0.79006259879E+02  0.15360714687E+03 -0.91532302033E+03  0.93982890795E+03  0.12500000000E+03 0.  0.
</event>
<event>
 5    0  0.5539899E-005  0.2592824E+03  0.7546771E-02  0.1107575E+00
         21   -1    0    0  502  501  0.00000000000E+00  0.00000000000E+00  0.82121345651E+03  0.82121345651E+03  0.00000000000E+00 0.  1.
         21   -1    0    0  501  502 -0.00000000000E+00 -0.00000000000E+00 -0.81863433201E+02  0.81863433201E+02  0.00000000000E+00 0.  1.
         25    1    1    2    0    0  0.10438493452E+02  0.10797773149E+03  0.47568862492E+03  0.50365942910E+03  0.12500000000E+03 0.  0.
         25    1    1    2    0    0 -0.59367905859E+02 -0.29358176967E+02  0.97544426888E+02  0.17183237768E+03  0.12500000000E+03 0.  0.
         25    1    1    2    0    0  0.48929412407E+02 -0.78619554526E+02  0.16611697149E+03  0.22758508293E+03  0.12500000000E+03 0.  0.
</event>
<event>
 5    0  0.5539899E-005  0.2226455E+03  0.7546771E-02  0.1131926E+00
         21   -1    0    0  502  501  0.00000000000E+00  0.00000000000E+00  0.89379869177E+02  0.89379869177E+02  0.00000000000E+00 0.  1.
         21   -1    0    0  501  502 -0.00000000000E+00 -0.00000000000E+00 -0.55461056947E+03  0.55461056947E+03  0.00000000000E+00 0.  1.
         25    1    1    2    0    0 -0.75394546564E+02  0.24486211258E+02 -0.10414073556E+03  0.18098122830E+03  0.12500000000E+03 0.  0.
         25    1    1    2    0    0  0.20321564618E+02  0.21404536059E+02 -0.24999642131E+03  0.28105930125E+03  0.12500000000E+03 0.  0.
         25    1    1    2    0    0  0.55072981946E+02 -0.45890747317E+02 -0.11109354342E+03  0.18194990909E+03  0.12500000000E+03 0.  0.
</event>
<event>
 5    0  0.5539899E-005  0.4776282E+03  0.7546771E-02  0.1019789E+00
         21   -1    0    0  502  501  0.00000000000E+00  0.00000000000E+00  0.51852435869E+03  0.51852435869E+03  0.00000000000E+00 0. -1.
         21   -1    0    0  501  502 -0.00000000000E+00 -0.00000000000E+00 -0.43995755158E+03  0.43995755158E+03  0.00000000000E+00 0. -1.
         25    1    1    2    0    0 -0.81650758203E+02 -0.13333142950E+03 -0.45395291207E+02  0.20525556965E+03  0.12500000000E+03 0.  0.
         25    1    1    2    0    0 -0.19944335494E+03  0.29396245552E+03 -0.20887710131E+02  0.37716425270E+03  0.12500000000E+03 0.  0.
         25    1    1    2    0    0  0.28109411314E+03 -0.16063102601E+03  0.14484980845E+03  0.37606208792E+03  0.12500000000E+03 0.  0.
</event>
<event>
 5    0  0.5539899E-005  0.2651600E+03  0.7546771E-02  0.1104082E+00
         21   -1    0    0  502  501  0.00000000000E+00  0.00000000000E+00  0.73258616269E+03  0.73258616269E+03  0.00000000000E+00 0.  1.
         21   -1    0    0  501  502 -0.00000000000E+00 -0.00000000000E+00 -0.95974837052E+02  0.95974837052E+02  0.00000000000E+00 0. -1.
         25    1    1    2    0    0  0.32689714892E+02  0.12315243795E+03  0.10659916563E+03  0.20790267566E+03  0.12500000000E+03 0.  0.
         25    1    1    2    0    0 -0.11812792979E+01 -0.10858093057E+03  0.41676453685E+03  0.44845166192E+03  0.12500000000E+03 0.  0.
         25    1    1    2    0    0 -0.31508435594E+02 -0.14571507386E+02  0.11324762316E+03  0.17220666216E+03  0.12500000000E+03 0.  0.
</event>
<event>
 5    0  0.5539899E-005  0.2270121E+03  0.7546771E-02  0.1128761E+00
         21   -1    0    0  502  501  0.00000000000E+00  0.00000000000E+00  0.10870440640E+03  0.10870440640E+03  0.00000000000E+00 0.  1.
         21   -1    0    0  501  502 -0.00000000000E+00 -0.00000000000E+00 -0.47407897924E+03  0.47407897924E+03  0.00000000000E+00 0.  1.
         25    1    1    2    0    0  0.10507848913E+03  0.14483677166E+02 -0.18746380315E+03  0.24903602806E+03  0.12500000000E+03 0.  0.
         25    1    1    2    0    0 -0.37679409683E+02 -0.42635811090E+02 -0.93726033585E+02  0.16627423033E+03  0.12500000000E+03 0.  0.
         25    1    1    2    0    0 -0.67399079451E+02  0.28152133924E+02 -0.84184736107E+02  0.16747312724E+03  0.12500000000E+03 0.  0.
</event>
<event>
 5    0  0.5539899E-005  0.3049254E+03  0.7546771E-02  0.1082804E+00
         21   -1    0    0  502  501  0.00000000000E+00  0.00000000000E+00  0.16721702020E+03  0.16721702020E+03  0.00000000000E+00 0. -1.
         21   -1    0    0  501  502 -0.00000000000E+00 -0.00000000000E+00 -0.55604101462E+03  0.55604101462E+03  0.00000000000E+00 0. -1.
         25    1    1    2    0    0  0.87425051673E+02 -0.38514400708E+02 -0.17091785646E+03  0.23230241578E+03  0.12500000000E+03 0.  0.
         25    1    1    2    0    0  0.31140616501E+02  0.18240520312E+02 -0.27834622016E+03  0.30725245785E+03  0.12500000000E+03 0.  0.
         25    1    1    2    0    0 -0.11856566817E+03  0.20273880395E+02  0.60440082198E+02  0.18370316119E+03  0.12500000000E+03 0.  0.
</event>
<event>
 5    0  0.5539899E-005  0.4080137E+03  0.7546771E-02  0.1041040E+00
         21   -1    0    0  502  501  0.00000000000E+00  0.00000000000E+00  0.45410820645E+03  0.45410820645E+03  0.00000000000E+00 0.  1.
         21   -1    0    0  501  502 -0.00000000000E+00 -0.00000000000E+00 -0.36659797288E+03  0.36659797288E+03  0.00000000000E+00 0.  1.
         25    1    1    2    0    0 -0.30704818269E+02  0.14821462397E+03 -0.28154978440E+01  0.19632444487E+03  0.12500000000E+03 0.  0.
         25    1    1    2    0    0 -0.25605556668E+03 -0.61004769058E+02  0.65633171321E+02  0.29869507571E+03  0.12500000000E+03 0.  0.
         25    1    1    2    0    0  0.28676038495E+03 -0.87209854917E+02  0.24692560090E+02  0.32568665876E+03  0.12500000000E+03 0.  0.
</event>
<event>
 5    0  0.5539899E-005  0.2913722E+03  0.7546771E-02  0.1089635E+00
         21   -1    0    0  502  501  0.00000000000E+00  0.00000000000E+00  0.92556416894E+03  0.92556416894E+03  0.00000000000E+00 0.  1.
         21   -1    0    0  501  502 -0.00000000000E+00 -0.00000000000E+00 -0.91725389747E+02  0.91725389747E+02  0.00000000000E+00 0.  1.
         25    1    1    2    0    0  0.35656639688E+02  0.10139450446E+03  0.22200258026E+03  0.27651833055E+03  0.12500000000E+03 0.  0.
         25    1    1    2    0    0 -0.72798738179E+02  0.95908188437E+02  0.19133791964E+03  0.25832776928E+03  0.12500000000E+03 0.  0.
         25    1    1    2    0    0  0.37142098491E+02 -0.19730269290E+03  0.42049827929E+03  0.48244345886E+03  0.12500000000E+03 0.  0.
</event>
<event>
 5    0  0.5539899E-005  0.3317024E+03  0.7546771E-02  0.1070386E+00
         21   -1    0    0  502  501  0.00000000000E+00  0.00000000000E+00  0.80903059602E+02  0.80903059602E+02  0.00000000000E+00 0.  1.
         21   -1    0    0  501  502 -0.00000000000E+00 -0.00000000000E+00 -0.13599791540E+04  0.13599791540E+04  0.00000000000E+00 0.  1.
         25    1    1    2    0    0 -0.35968245872E+01 -0.40401437206E+02 -0.48334045853E+02  0.14002283122E+03  0.12500000000E+03 0.  0.
         25    1    1    2    0    0  0.21753478740E+02  0.10990253505E+02 -0.97943136688E+02  0.16066069069E+03  0.12500000000E+03 0.  0.
         25    1    1    2    0    0 -0.18156654152E+02  0.29411183702E+02 -0.11327989118E+04  0.11401986917E+04  0.12500000000E+03 0.  0.
</event>
<event>
 5    0  0.5539899E-005  0.5008255E+03  0.7546771E-02  0.1013564E+00
         21   -1    0    0  502  501  0.00000000000E+00  0.00000000000E+00  0.13218497433E+03  0.13218497433E+03  0.00000000000E+00 0.  1.
         21   -1    0    0  501  502 -0.00000000000E+00 -0.00000000000E+00 -0.18975393922E+04  0.18975393922E+04  0.00000000000E+00 0.  1.
         25    1    1    2    0    0  0.89506599347E+02 -0.52921232206E+02  0.23043727376E+02  0.16421967457E+03  0.12500000000E+03 0.  0.
         25    1    1    2    0    0 -0.27213796274E+03  0.24761675610E+01 -0.89768889663E+03  0.94632740492E+03  0.12500000000E+03 0.  0.
         25    1    1    2    0    0  0.18263136339E+03  0.50445064645E+02 -0.89070924857E+03  0.91917728700E+03  0.12500000000E+03 0.  0.
</event>
<event>
 5    0  0.5539899E-005  0.4020991E+03  0.7546771E-02  0.1043055E+00
         21   -1    0    0  502  501  0.00000000000E+00  0.00000000000E+00  0.27552980601E+03  0.27552980601E+03  0.00000000000E+00 0. -1.
         21   -1    0    0  501  502 -0.00000000000E+00 -0.00000000000E+00 -0.58681020122E+03  0.58681020122E+03  0.00000000000E+00 0. -1.
         25    1    1    2    0    0  0.18089813355E+03  0.23668273920E+03 -0.13012931606E+03  0.34828363822E+03  0.12500000000E+03 0.  0.
         25    1    1    2    0    0 -0.12939386854E+03 -0.19902265110E+03  0.19725253590E+02  0.26901091892E+03  0.12500000000E+03 0.  0.
         25    1    1    2    0    0 -0.51504265007E+02 -0.37660088094E+02 -0.20087633275E+03  0.24504545008E+03  0.12500000000E+03 0.  0.
</event>
<event>
 5    0  0.5539899E-005  0.2309638E+03  0.7546771E-02  0.1125963E+00
         21   -1    0    0  502  501  0.00000000000E+00  0.00000000000E+00  0.15176093961E+03  0.15176093961E+03  0.00000000000E+00 0. -1.
         21   -1    0    0  501  502 -0.00000000000E+00 -0.00000000000E+00 -0.35150205398E+03  0.35150205398E+03  0.00000000000E+00 0. -1.
         25    1    1    2    0    0 -0.10727288631E+02 -0.11702841347E+02  0.54881197566E+02  0.13743717497E+03  0.12500000000E+03 0.  0.
         25    1    1    2    0    0  0.30522394949E+02  0.22347870013E+02 -0.93267068826E+02  0.16048298980E+03  0.12500000000E+03 0.  0.
         25    1    1    2    0    0 -0.19795106318E+02 -0.10645028666E+02 -0.16135524311E+03  0.20534282882E+03  0.12500000000E+03 0.  0.
</event>
<event>
 5    0  0.5539899E-005  0.4290262E+03  0.7546771E-02  0.1034168E+00
         21   -1    0    0  502  501  0.00000000000E+00  0.00000000000E+00  0.11679579669E+04  0.11679579669E+04  0.00000000000E+00 0. -1.
         21   -1    0    0  501  502 -0.00000000000E+00 -0.00000000000E+00 -0.15759427503E+03  0.15759427503E+03  0.00000000000E+00 0. -1.
         25    1    1    2    0    0 -0.98051669988E+02 -0.25690944955E+02  0.83895011027E+02  0.18148698993E+03  0.12500000000E+03 0.  0.
         25    1    1    2    0    0  0.26489520314E+03  0.59828116725E+02  0.87775660142E+03  0.92727046946E+03  0.12500000000E+03 0.  0.
         25    1    1    2    0    0 -0.16684353315E+03 -0.34137171770E+02  0.48712079406E+02  0.21679478253E+03  0.12500000000E+03 0.  0.
</event>
<event>
 5    0  0.5539899E-005  0.2948966E+03  0.7546771E-02  0.1087820E+00
         21   -1    0    0  502  501  0.00000000000E+00  0.00000000000E+00  0.38003490267E+02  0.38003490267E+02  0.00000000000E+00 0. -1.
         21   -1    0    0  501  502 -0.00000000000E+00 -0.00000000000E+00 -0.22883168430E+04  0.22883168430E+04  0.00000000000E+00 0. -1.
         25    1    1    2    0    0 -0.11332328363E+02 -0.18813991820E+03 -0.10461178750E+04  0.10702862509E+04  0.12500000000E+03 0.  0.
         25    1    1    2    0    0 -0.27413131693E+02  0.18172240069E+03 -0.84301997477E+03  0.87182692581E+03  0.12500000000E+03 0.  0.
         25    1    1    2    0    0  0.38745460056E+02  0.64175175166E+01 -0.36117550298E+03  0.38420715657E+03  0.12500000000E+03 0.  0.
</event>
<event>
 5    0  0.5539899E-005  0.2485198E+03  0.7546771E-02  0.1114244E+00
         21   -1    0    0  502  501  0.00000000000E+00  0.00000000000E+00  0.12234480663E+03  0.12234480663E+03  0.00000000000E+00 0.  1.
         21   -1    0    0  501  502 -0.00000000000E+00 -0.00000000000E+00 -0.50481994158E+03  0.50481994158E+03  0.00000000000E+00 0.  1.
         25    1    1    2    0    0 -0.76397416484E+02 -0.34111141641E+02 -0.14157786606E+03  0.20656579433E+03  0.12500000000E+03 0.  0.
         25    1    1    2    0    0  0.11496381572E+03  0.28360387917E+02 -0.33627302934E+02  0.17543313834E+03  0.12500000000E+03 0.  0.
         25    1    1    2    0    0 -0.38566399233E+02  0.57507537232E+01 -0.20726996596E+03  0.24516581553E+03  0.12500000000E+03 0.  0.
</event>
<event>
 5    0  0.6710508E-005  0.3811704E+03  0.7546771E-02  0.1050502E+00
         21   -1    0    0  502  501  0.00000000000E+00  0.00000000000E+00  0.36355478100E+03  0.36355478100E+03  0.00000000000E+00 0. -1.
         21   -1    0    0  501  502 -0.00000000000E+00 -0.00000000000E+00 -0.39963964768E+03  0.39963964768E+03  0.00000000000E+00 0. -1.
         25    1    1    2    0    0 -0.10920678629E+03  0.21982634804E+03 -0.12148114809E+03  0.30105217954E+03  0.12500000000E+03 0.  0.
         25    1    1    2    0    0  0.11842865651E+03 -0.17160825498E+03 -0.73617730697E+02  0.25400651593E+03  0.12500000000E+03 0.  0.
         25    1    1    2    0    0 -0.92218702183E+01 -0.48218093063E+02  0.15901401211E+03  0.20813573320E+03  0.12500000000E+03 0.  0.
</event>
<event>
 5    0  0.5539899E-005  0.2847308E+03  0.7546771E-02  0.1093133E+00
         21   -1    0    0  502  501  0.00000000000E+00  0.00000000000E+00  0.19296288357E+04  0.19296288357E+04  0.00000000000E+00 0. -1.
         21   -1    0    0  501  502 -0.00000000000E+00 -0.00000000000E+00 -0.42014090784E+02  0.42014090784E+02  0.00000000000E+00 0. -1.
         25    1    1    2    0    0  0.10385524590E+03  0.12938500098E+03  0.82803000895E+03  0.85368910401E+03  0.12500000000E+03 0.  0.
         25    1    1    2    0    0 -0.32433830918E+01 -0.12100989037E+03  0.35595029469E+03  0.39620641765E+03  0.12500000000E+03 0.  0.
         25    1    1    2    0    0 -0.10061186281E+03 -0.83751106164E+01  0.70363444131E+03  0.72174740486E+03  0.12500000000E+03 0.  0.
</event>
<event>
 5    0  0.5539899E-005  0.2113630E+03  0.7546771E-02  0.1140491E+00
         21   -1    0    0  502  501  0.00000000000E+00  0.00000000000E+00  0.52607847150E+02  0.52607847150E+02  0.00000000000E+00 0. -1.
         21   -1    0    0  501  502 -0.00000000000E+00 -0.00000000000E+00 -0.84919508813E+03  0.84919508813E+03  0.00000000000E+00 0. -1.
         25    1    1    2    0    0 -0.18406302375E+02 -0.23380497761E+01 -0.21805375760E+03  0.25202519646E+03  0.12500000000E+03 0.  0.
         25    1    1    2    0    0 -0.50485656472E+02  0.44896496972E+02 -0.22444193716E+03  0.26563825046E+03  0.12500000000E+03 0.  0.
         25    1    1    2    0    0  0.68891958847E+02 -0.42558447196E+02 -0.35409154622E+03  0.38413948837E+03  0.12500000000E+03 0.  0.
</event>
<event>
 5    0  0.5539899E-005  0.2641841E+03  0.7546771E-02  0.1104655E+00
         21   -1    0    0  502  501  0.00000000000E+00  0.00000000000E+00  0.94978855437E+03  0.94978855437E+03  0.00000000000E+00 0. -1.
         21   -1    0    0  501  502 -0.00000000000E+00 -0.00000000000E+00 -0.73482896004E+02  0.73482896004E+02  0.00000000000E+00 0. -1.
         25    1    1    2    0    0 -0.62397158921E+01 -0.25688807717E+01  0.13588480488E+03  0.18475717415E+03  0.12500000000E+03 0.  0.
         25    1    1    2    0    0  0.84846867551E+02 -0.12670531110E+03  0.38150043043E+03  0.42944243527E+03  0.12500000000E+03 0.  0.
         25    1    1    2    0    0 -0.78607151659E+02  0.12927419187E+03  0.35892042305E+03  0.40907184095E+03  0.12500000000E+03 0.  0.
</event>
<event>
 5    0  0.5539899E-005  0.2891306E+03  0.7546771E-02  0.1090804E+00
         21   -1    0    0  502  501  0.00000000000E+00  0.00000000000E+00  0.10126228669E+03  0.10126228669E+03  0.00000000000E+00 0.  1.
         21   -1    0    0  501  502 -0.00000000000E+00 -0.00000000000E+00 -0.82554418933E+03  0.82554418933E+03  0.00000000000E+00 0.  1.
         25    1    1    2    0    0 -0.10845588811E+03 -0.30802673873E+01 -0.33020700336E+03  0.36936950711E+03  0.12500000000E+03 0.  0.
         25    1    1    2    0    0  0.15319801216E+03  0.45679919485E+02 -0.88179589147E+02  0.22126212038E+03  0.12500000000E+03 0.  0.
         25    1    1    2    0    0 -0.44742124053E+02 -0.42599652098E+02 -0.30589531013E+03  0.33617484853E+03  0.12500000000E+03 0.  0.
</event>
<event>
 5    0  0.5539899E-005  0.2686803E+03  0.7546771E-02  0.1102037E+00
         21   -1    0    0  502  501  0.00000000000E+00  0.00000000000E+00  0.43569159217E+02  0.43569159217E+02  0.00000000000E+00 0.  1.
         21   -1    0    0  501  502 -0.00000000000E+00 -0.00000000000E+00 -0.16568859833E+04  0.16568859833E+04  0.00000000000E+00 0.  1.
         25    1    1    2    0    0 -0.79237765594E+02  0.93170304733E+02 -0.68835647930E+03  0.71022459248E+03  0.12500000000E+03 0.  0.
         25    1    1    2    0    0  0.20845164665E+02  0.56473861751E+02 -0.50239519086E+03  0.52120029332E+03  0.12500000000E+03 0.  0.
         25    1    1    2    0    0  0.58392600930E+02 -0.14964416648E+03 -0.42256515395E+03  0.46903025674E+03  0.12500000000E+03 0.  0.
</event>
<event>
 5    0  0.5539899E-005  0.2647341E+03  0.7546771E-02  0.1104332E+00
         21   -1    0    0  502  501  0.00000000000E+00  0.00000000000E+00  0.35248857035E+03  0.35248857035E+03  0.00000000000E+00 0. -1.
         21   -1    0    0  501  502 -0.00000000000E+00 -0.00000000000E+00 -0.19882674572E+03  0.19882674572E+03  0.00000000000E+00 0. -1.
         25    1    1    2    0    0  0.32777397067E+02 -0.98939350406E+02 -0.25240274187E+02  0.16469797891E+03  0.12500000000E+03 0.  0.
         25    1    1    2    0    0  0.20279406872E+00  0.13846027337E+03  0.36138609936E+02  0.19000601979E+03  0.12500000000E+03 0.  0.
         25    1    1    2    0    0 -0.32980191136E+02 -0.39520922962E+02  0.14276348888E+03  0.19661131737E+03  0.12500000000E+03 0.  0.
</event>
<event>
 5    0  0.5539899E-005  0.2343838E+03  0.7546771E-02  0.1123592E+00
         21   -1    0    0  502  501  0.00000000000E+00  0.00000000000E+00  0.24823099299E+03  0.24823099299E+03  0.00000000000E+00 0. -1.
         21   -1    0    0  501  502 -0.00000000000E+00 -0.00000000000E+00 -0.22130897479E+03  0.22130897479E+03  0.00000000000E+00 0. -1.
         25    1    1    2    0    0  0.57582107764E+02 -0.16184368934E+02  0.95781881670E+02  0.16845415337E+03  0.12500000000E+03 0.  0.
         25    1    1    2    0    0  0.15643361388E+02 -0.41795390724E+02 -0.57454360517E+02  0.14462908761E+03  0.12500000000E+03 0.  0.
         25    1    1    2    0    0 -0.73225469152E+02  0.57979759659E+02 -0.11405502952E+02  0.15645672680E+03  0.12500000000E+03 0.  0.
</event>
<event>
 5    0  0.5539899E-005  0.2577089E+03  0.7546771E-02  0.1108528E+00
         21   -1    0    0  502  501  0.00000000000E+00  0.00000000000E+00  0.80788369729E+02  0.80788369729E+02  0.00000000000E+00 0. -1.
         21   -1    0    0  501  502 -0.00000000000E+00 -0.00000000000E+00 -0.82207220618E+03  0.82207220618E+03  0.00000000000E+00 0. -1.
         25    1    1    2    0    0  0.83717500356E+01 -0.36789822053E+02 -0.25985495435E+03  0.29081467381E+03  0.12500000000E+03 0.  0.
         25    1    1    2    0    0 -0.76154856990E+01 -0.49800995463E+02 -0.43140302373E+03  0.45196427254E+03  0.12500000000E+03 0.  0.
         25    1    1    2    0    0 -0.75626433659E+00  0.86590817516E+02 -0.50025858368E+02  0.16008162955E+03  0.12500000000E+03 0.  0.
</event>
<event>
 5    0  0.5539899E-005  0.3996458E+03  0.7546771E-02  0.1043902E+00
         21   -1    0    0  502  501  0.00000000000E+00  0.00000000000E+00  0.18738491349E+03  0.18738491349E+03  0.00000000000E+00 0.  1.
         21   -1    0    0  501  502 -0.00000000000E+00 -0.00000000000E+00 -0.85234583459E+03  0.85234583459E+03  0.00000000000E+00 0.  1.
         25    1    1    2    0    0 -0.24691604995E+03 -0.17860988093E+03 -0.42320413618E+03  0.53627955972E+03  0.12500000000E+03 0.  0.
         25    1    1    2    0    0  0.19107898506E+03  0.15789767093E+02 -0.12499721545E+03  0.26078688454E+03  0.12500000000E+03 0.  0.
         25    1    1    2    0    0  0.55837064885E+02  0.16282011384E+03 -0.11675956947E+03  0.24266430382E+03  0.12500000000E+03 0.  0.
</event>
<event>
 5    0  0.5539899E-005  0.2480692E+03  0.7546771E-02  0.1114531E+00
         21   -1    0    0  502  501  0.00000000000E+00  0.00000000000E+00  0.13538085389E+04  0.13538085389E+04  0.00000000000E+00 0. -1.
         21   -1    0    0  501  502 -0.00000000000E+00 -0.00000000000E+00 -0.45455713522E+02  0.45455713522E+02  0.00000000000E+00 0. -1.
         25    1    1    2    0    0 -0.37778440367E+02 -0.66546569362E+01  0.67228364314E+03  0.68488085960E+03  0.12500000000E+03 0.  0.
         25    1    1    2    0    0  0.65591696605E+02 -0.59704452223E+02  0.18190815091E+03  0.23787069522E+03  0.12500000000E+03 0.  0.
         25    1    1    2    0    0 -0.27813256238E+02  0.66359109159E+02  0.45416103129E+03  0.47651269756E+03  0.12500000000E+03 0.  0.
</event>
<event>
 5    0  0.5539899E-005  0.3026144E+03  0.7546771E-02  0.1083941E+00
         21   -1    0    0  502  501  0.00000000000E+00  0.00000000000E+00  0.38033282363E+03  0.38033282363E+03  0.00000000000E+00 0. -1.
         21   -1    0    0  501  502 -0.00000000000E+00 -0.00000000000E+00 -0.24077720463E+03  0.24077720463E+03  0.00000000000E+00 0. -1.
         25    1    1    2    0    0  0.19597986316E+00 -0.94784817233E+02  0.17745304454E+03  0.23685181655E+03  0.12500000000E+03 0.  0.
         25    1    1    2    0    0  0.75460715871E+02  0.99774488259E+02  0.82238817387E+02  0.19503202617E+03  0.12500000000E+03 0.  0.
         25    1    1    2    0    0 -0.75656695734E+02 -0.49896710261E+01 -0.12013624293E+03  0.18922618554E+03  0.12500000000E+03 0.  0.
</event>
<event>
 5    0  0.6070478E-005  0.2762625E+03  0.7546771E-02  0.1097748E+00
         21   -1    0    0  502  501  0.00000000000E+00  0.00000000000E+00  0.22451748170E+03  0.22451748170E+03  0.00000000000E+00 0. -1.
         21   -1    0    0  501  502 -0.00000000000E+00 -0.00000000000E+00 -0.33993330338E+03  0.33993330338E+03  0.00000000000E+00 0. -1.
         25    1    1    2    0    0  0.68264010767E+02 -0.93082014213E+02  0.11248213716E+02  0.17051615421E+03  0.12500000000E+03 0.  0.
         25    1    1    2    0    0 -0.49080671566E+02 -0.72106341133E+02 -0.41070355425E+01  0.15247984947E+03  0.12500000000E+03 0.  0.
         25    1    1    2    0    0 -0.19183339201E+02  0.16518835535E+03 -0.12255699986E+03  0.24145478140E+03  0.12500000000E+03 0.  0.
</event>
<event>
 5    0  0.5539899E-005  0.4009889E+03  0.7546771E-02  0.1043438E+00
         21   -1    0    0  502  501  0.00000000000E+00  0.00000000000E+00  0.10261294402E+04  0.10261294402E+04  0.00000000000E+00 0. -1.
         21   -1    0    0  501  502 -0.00000000000E+00 -0.00000000000E+00 -0.15669771326E+03  0.15669771326E+03  0.00000000000E+00 0. -1.
         25    1    1    2    0    0  0.15324495037E+03 -0.19069417401E+03  0.51171841692E+03  0.58080032802E+03  0.12500000000E+03 0.  0.
         25    1    1    2    0    0  0.52554316532E+02 -0.31969998740E+02  0.38904312942E+02  0.14464640532E+03  0.12500000000E+03 0.  0.
         25    1    1    2    0    0 -0.20579926690E+03  0.22266417275E+03  0.31880899705E+03  0.45738042009E+03  0.12500000000E+03 0.  0.
</event>
<event>
 5    0  0.5539899E-005  0.3940853E+03  0.7546771E-02  0.1045847E+00
         21   -1    0    0  502  501  0.00000000000E+00  0.00000000000E+00  0.41383679880E+03  0.41383679880E+03  0.00000000000E+00 0. -1.
         21   -1    0    0  501  502 -0.00000000000E+00 -0.00000000000E+00 -0.37527655509E+03  0.37527655509E+03  0.00000000000E+00 0. -1.
         25    1    1    2    0    0  0.26964018087E+03  0.12992825534E+02 -0.10186239218E+03  0.31444488801E+03  0.12500000000E+03 0.  0.
         25    1    1    2    0    0 -0.28876042926E+03  0.35718818092E+02  0.82141257385E+02  0.32715532341E+03  0.12500000000E+03 0.  0.
         25    1    1    2    0    0  0.19120248387E+02 -0.48711643626E+02  0.58281378505E+02  0.14751314248E+03  0.12500000000E+03 0.  0.
</event>
<event>
 5    0  0.5539899E-005  0.2358347E+03  0.7546771E-02  0.1122599E+00
         21   -1    0    0  502  501  0.00000000000E+00  0.00000000000E+00  0.14979924323E+03  0.14979924323E+03  0.00000000000E+00 0. -1.
         21   -1    0    0  501  502 -0.00000000000E+00 -0.00000000000E+00 -0.37128376586E+03  0.37128376586E+03  0.00000000000E+00 0. -1.
         25    1    1    2    0    0 -0.45928729694E+02  0.20457575848E+01 -0.31286566661E+02  0.13681185105E+03  0.12500000000E+03 0.  0.
         25    1    1    2    0    0  0.13061053682E+03 -0.30292086166E+01 -0.12497063293E+03  0.21979751484E+03  0.12500000000E+03 0.  0.
         25    1    1    2    0    0 -0.84681807130E+02  0.98345103182E+00 -0.65227323040E+02  0.16447364319E+03  0.12500000000E+03 0.  0.
</event>
<event>
 5    0  0.5748299E-005  0.3024493E+03  0.7546771E-02  0.1084023E+00
         21   -1    0    0  502  501  0.00000000000E+00  0.00000000000E+00  0.50175953795E+03  0.50175953795E+03  0.00000000000E+00 0. -1.
         21   -1    0    0  501  502 -0.00000000000E+00 -0.00000000000E+00 -0.18230955130E+03  0.18230955130E+03  0.00000000000E+00 0. -1.
         25    1    1    2    0    0 -0.12607796434E+03 -0.74546012079E+02  0.21198189408E+03  0.28638101268E+03  0.12500000000E+03 0.  0.
         25    1    1    2    0    0  0.25971975976E+02  0.15452108424E+03  0.30130080701E+02  0.20269220699E+03  0.12500000000E+03 0.  0.
         25    1    1    2    0    0  0.10010598836E+03 -0.79975072158E+02  0.77338011873E+02  0.19499586958E+03  0.12500000000E+03 0.  0.
</event>
<event>
 5    0  0.7309997E-005  0.4917533E+03  0.7546771E-02  0.1015954E+00
         21   -1    0    0  502  501  0.00000000000E+00  0.00000000000E+00  0.37352114225E+03  0.37352114225E+03  0.00000000000E+00 0. -1.
         21   -1    0    0  501  502 -0.00000000000E+00 -0.00000000000E+00 -0.64740986132E+03  0.64740986132E+03  0.00000000000E+00 0. -1.
         25    1    1    2    0    0 -0.32019898687E+03  0.18755146324E+03 -0.19312127942E+03  0.43660482260E+03  0.12500000000E+03 0.  0.
         25    1    1    2    0    0  0.14922249782E+03 -0.12993405408E+03  0.14024092982E+03  0.27284195180E+03  0.12500000000E+03 0.  0.
         25    1    1    2    0    0  0.17097648905E+03 -0.57617409157E+02 -0.22100836948E+03  0.31148422918E+03  0.12500000000E+03 0.  0.
</event>
<event>
 5    0  0.5539899E-005  0.3036441E+03  0.7546771E-02  0.1083433E+00
         21   -1    0    0  502  501  0.00000000000E+00  0.00000000000E+00  0.31945648002E+02  0.31945648002E+02  0.00000000000E+00 0. -1.
         21   -1    0    0  501  502 -0.00000000000E+00 -0.00000000000E+00 -0.28861445914E+04  0.28861445914E+04  0.00000000000E+00 0. -1.
         25    1    1    2    0    0 -0.13435908372E+03 -0.15294256199E+02 -0.15920493160E+04  0.16026641264E+04  0.12500000000E+03 0.  0.
         25    1    1    2    0    0  0.58965237410E+02 -0.11039280592E+03 -0.65393212383E+03  0.67743316526E+03  0.12500000000E+03 0.  0.
         25    1    1    2    0    0  0.75393846312E+02  0.12568706212E+03 -0.60821750356E+03  0.63799294767E+03  0.12500000000E+03 0.  0.
</event>
<event>
 5    0  0.5539899E-005  0.3547304E+03  0.7546771E-02  0.1060690E+00
         21   -1    0    0  502  501  0.00000000000E+00  0.00000000000E+00  0.21118028780E+03  0.21118028780E+03  0.00000000000E+00 0. -1.
         21   -1    0    0  501  502 -0.00000000000E+00 -0.00000000000E+00 -0.59585886118E+03  0.59585886118E+03  0.00000000000E+00 0. -1.
         25    1    1    2    0    0 -0.45549365196E+02 -0.20000721264E+03 -0.19824528337E+03  0.31145436609E+03  0.12500000000E+03 0.  0.
         25    1    1    2    0    0 -0.81927086965E+01 -0.67796386335E+02 -0.74653369309E+00  0.14243955837E+03  0.12500000000E+03 0.  0.
         25    1    1    2    0    0  0.53742073893E+02  0.26780359898E+03 -0.18568675632E+03  0.35314522452E+03  0.12500000000E+03 0.  0.
</event>
<event>
 5    0  0.5539899E-005  0.2807319E+03  0.7546771E-02  0.1095290E+00
         21   -1    0    0  502  501  0.00000000000E+00  0.00000000000E+00  0.44088979342E+03  0.44088979342E+03  0.00000000000E+00 0.  1.
         21   -1    0    0  501  502 -0.00000000000E+00 -0.00000000000E+00 -0.17875300668E+03  0.17875300668E+03  0.00000000000E+00 0.  1.
         25    1    1    2    0    0 -0.11965349709E+03 -0.27757971164E+00 -0.32817527964E+02  0.17612219212E+03  0.12500000000E+03 0.  0.
         25    1    1    2    0    0 -0.27452568267E+02  0.34663349954E+02  0.14642342559E+03  0.19753483464E+03  0.12500000000E+03 0.  0.
         25    1    1    2    0    0  0.14710606536E+03 -0.34385770242E+02  0.14853088912E+03  0.24598577333E+03  0.12500000000E+03 0.  0.
</event>
<event>
 5    0  0.5539899E-005  0.3600811E+03  0.7546771E-02  0.1058552E+00
         21   -1    0    0  502  501  0.00000000000E+00  0.00000000000E+00  0.20676934376E+04  0.20676934376E+04  0.00000000000E+00 0.  1.
         21   -1    0    0  501  502 -0.00000000000E+00 -0.00000000000E+00 -0.62706795620E+02  0.62706795620E+02  0.00000000000E+00 0.  1.
         25    1    1    2    0    0  0.25511271194E+03  0.10100820852E+03  0.61695253869E+03  0.68668813080E+03  0.12500000000E+03 0.  0.
         25    1    1    2    0    0 -0.12368288002E+03 -0.12692141782E+01  0.83242984113E+03  0.85080168436E+03  0.12500000000E+03 0.  0.
         25    1    1    2    0    0 -0.13142983192E+03 -0.99738994346E+02  0.55560426221E+03  0.59291041811E+03  0.12500000000E+03 0.  0.
</event>
<event>
 5    0  0.5539899E-005  0.2582969E+03  0.7546771E-02  0.1108171E+00
         21   -1    0    0  502  501  0.00000000000E+00  0.00000000000E+00  0.13898009549E+03  0.13898009549E+03  0.00000000000E+00 0.  1.
         21   -1    0    0  501  502 -0.00000000000E+00 -0.00000000000E+00 -0.48004922287E+03  0.48004922287E+03  0.00000000000E+00 0.  1.
         25    1    1    2    0    0  0.49551086839E+02 -0.12284509087E+03 -0.43036561935E+02  0.18714532380E+03  0.12500000000E+03 0.  0.
         25    1    1    2    0    0 -0.68990068753E+02  0.11716770284E+03 -0.15767748871E+03  0.24284787547E+03  0.12500000000E+03 0.  0.
         25    1    1    2    0    0  0.19438981914E+02  0.56773880305E+01 -0.14035507674E+03  0.18903611909E+03  0.12500000000E+03 0.  0.
</event>
<event>
 5    0  0.5539899E-005  0.4068847E+03  0.7546771E-02  0.1041421E+00
         21   -1    0    0  502  501  0.00000000000E+00  0.00000000000E+00  0.19791383081E+03  0.19791383081E+03  0.00000000000E+00 0.  1.
         21   -1    0    0  501  502 -0.00000000000E+00 -0.00000000000E+00 -0.83650131301E+03  0.83650131301E+03  0.00000000000E+00 0.  1.
         25    1    1    2    0    0 -0.71869829741E+02  0.13035580469E+03 -0.56045884679E+03  0.59320909230E+03  0.12500000000E+03 0.  0.
         25    1    1    2    0    0  0.12867206745E+03  0.52357934015E+02 -0.99398374664E+02  0.21166693431E+03  0.12500000000E+03 0.  0.
         25    1    1    2    0    0 -0.56802237706E+02 -0.18271373871E+03  0.21269739262E+02  0.22953911721E+03  0.12500000000E+03 0.  0.
</event>
<event>
 5    0  0.5539899E-005  0.3098157E+03  0.7546771E-02  0.1080434E+00
         21   -1    0    0  502  501  0.00000000000E+00  0.00000000000E+00  0.32410845726E+03  0.32410845726E+03  0.00000000000E+00 0. -1.
         21   -1    0    0  501  502 -0.00000000000E+00 -0.00000000000E+00 -0.29615317184E+03  0.29615317184E+03  0.00000000000E+00 0. -1.
         25    1    1    2    0    0  0.11589655757E+03  0.69112179268E+01 -0.93318138865E+02  0.19445578426E+03  0.12500000000E+03 0.  0.
         25    1    1    2    0    0 -0.47749733723E+02 -0.29675007598E+02 -0.94367816643E+02  0.16640591325E+03  0.12500000000E+03 0.  0.
         25    1    1    2    0    0 -0.68146823848E+02  0.22763789671E+02  0.21564124092E+03  0.25939993159E+03  0.12500000000E+03 0.  0.
</event>
<event>
 5    0  0.5539899E-005  0.2140673E+03  0.7546771E-02  0.1138385E+00
         21   -1    0    0  502  501  0.00000000000E+00  0.00000000000E+00  0.43164046756E+02  0.43164046756E+02  0.00000000000E+00 0. -1.
         21   -1    0    0  501  502 -0.00000000000E+00 -0.00000000000E+00 -0.10616425445E+04  0.10616425445E+04  0.00000000000E+00 0. -1.
         25    1    1    2    0    0 -0.24454696861E+02  0.62841024804E+02 -0.50231202553E+03  0.52200517008E+03  0.12500000000E+03 0.  0.
         25    1    1    2    0    0 -0.10328929649E+02 -0.30449192873E+02 -0.32325366553E+03  0.34806863176E+03  0.12500000000E+03 0.  0.
         25    1    1    2    0    0  0.34783626511E+02 -0.32391831931E+02 -0.19291280671E+03  0.23473278945E+03  0.12500000000E+03 0.  0.
</event>
<event>
 5    0  0.5539899E-005  0.2815619E+03  0.7546771E-02  0.1094839E+00
         21   -1    0    0  502  501  0.00000000000E+00  0.00000000000E+00  0.11143828586E+04  0.11143828586E+04  0.00000000000E+00 0.  1.
         21   -1    0    0  501  502 -0.00000000000E+00 -0.00000000000E+00 -0.71139940226E+02  0.71139940226E+02  0.00000000000E+00 0.  1.
         25    1    1    2    0    0  0.16727067244E+03 -0.76697356878E+02  0.31395579558E+03  0.38477942252E+03  0.12500000000E+03 0.  0.
         25    1    1    2    0    0 -0.89734467165E+02 -0.19065600702E+02  0.35086434751E+03  0.38359687444E+03  0.12500000000E+03 0.  0.
         25    1    1    2    0    0 -0.77536205275E+02  0.95762957580E+02  0.37842277530E+03  0.41714650189E+03  0.12500000000E+03 0.  0.
</event>
<event>
 5    0  0.5539899E-005  0.3629186E+03  0.7546771E-02  0.1057434E+00
         21   -1    0    0  502  501  0.00000000000E+00  0.00000000000E+00  0.83924923252E+03  0.83924923252E+03  0.00000000000E+00 0. -1.
         21   -1    0    0  501  502 -0.00000000000E+00 -0.00000000000E+00 -0.15693781958E+03  0.15693781958E+03  0.00000000000E+00 0. -1.
         25    1    1    2    0    0  0.24656251256E+03 -0.70245016710E+02  0.10485699692E+03  0.30388719087E+03  0.12500000000E+03 0.  0.
         25    1    1    2    0    0 -0.18946599485E+03  0.40335152963E+02  0.43384027474E+03  0.49129082198E+03  0.12500000000E+03 0.  0.
         25    1    1    2    0    0 -0.57096517704E+02  0.29909863747E+02  0.14361414128E+03  0.20100903925E+03  0.12500000000E+03 0.  0.
</event>
<event>
 5    0  0.5539899E-005  0.3663754E+03  0.7546771E-02  0.1056088E+00
         21   -1    0    0  502  501  0.00000000000E+00  0.00000000000E+00  0.33395898398E+03  0.33395898398E+03  0.00000000000E+00 0. -1.
         21   -1    0    0  501  502 -0.00000000000E+00 -0.00000000000E+00 -0.40193848272E+03  0.40193848272E+03  0.00000000000E+00 0. -1.
         25    1    1    2    0    0  0.11704601273E+02 -0.50559487225E+02 -0.21559767545E+02  0.13705138823E+03  0.12500000000E+03 0.  0.
         25    1    1    2    0    0 -0.90813830974E+01 -0.21892029455E+03  0.95355801837E+02  0.26967813376E+03  0.12500000000E+03 0.  0.
         25    1    1    2    0    0 -0.26232181754E+01  0.26947978178E+03 -0.14177553303E+03  0.32916794471E+03  0.12500000000E+03 0.  0.
</event>
<event>
 5    0  0.5539899E-005  0.2505454E+03  0.7546771E-02  0.1112961E+00
         21   -1    0    0  502  501  0.00000000000E+00  0.00000000000E+00  0.44151597420E+03  0.44151597420E+03  0.00000000000E+00 0.  1.
         21   -1    0    0  501  502 -0.00000000000E+00 -0.00000000000E+00 -0.14217601242E+03  0.14217601242E+03  0.00000000000E+00 0.  1.
         25    1    1    2    0    0 -0.33689657574E+01  0.94031050461E+02  0.61155809746E+02  0.16798280104E+03  0.12500000000E+03 0.  0.
         25    1    1    2    0    0  0.96968956425E+02 -0.70718134047E+00  0.98684311171E+02  0.18645930357E+03  0.12500000000E+03 0.  0.
         25    1    1    2    0    0 -0.93599990667E+02 -0.93323869121E+02  0.13949984086E+03  0.22924988201E+03  0.12500000000E+03 0.  0.
</event>
<event>
 5    0  0.5539899E-005  0.3736531E+03  0.7546771E-02  0.1053305E+00
         21   -1    0    0  502  501  0.00000000000E+00  0.00000000000E+00  0.43145049954E+03  0.43145049954E+03  0.00000000000E+00 0. -1.
         21   -1    0    0  501  502 -0.00000000000E+00 -0.00000000000E+00 -0.32359823003E+03  0.32359823003E+03  0.00000000000E+00 0. -1.
         25    1    1    2    0    0  0.17657304037E+03 -0.43362837032E+02  0.18040401248E+03  0.28500698577E+03  0.12500000000E+03 0.  0.
         25    1    1    2    0    0  0.47785807025E+02  0.51053101695E+02  0.87005982749E+02  0.16758563059E+03  0.12500000000E+03 0.  0.
         25    1    1    2    0    0 -0.22435884740E+03 -0.76902646634E+01 -0.15955772572E+03  0.30245611320E+03  0.12500000000E+03 0.  0.
</event>
<event>
 5    0  0.5539899E-005  0.2713013E+03  0.7546771E-02  0.1100537E+00
         21   -1    0    0  502  501  0.00000000000E+00  0.00000000000E+00  0.10503638193E+03  0.10503638193E+03  0.00000000000E+00 0. -1.
         21   -1    0    0  501  502 -0.00000000000E+00 -0.00000000000E+00 -0.70075122839E+03  0.70075122839E+03  0.00000000000E+00 0. -1.
         25    1    1    2    0    0  0.56603725024E+02  0.59401957800E+02 -0.42946349204E+02  0.15556980166E+03  0.12500000000E+03 0.  0.
         25    1    1    2    0    0  0.38422344212E+02 -0.11539569770E+03 -0.25451199660E+03  0.30853492509E+03  0.12500000000E+03 0.  0.
         25    1    1    2    0    0 -0.95026069236E+02  0.55993739902E+02 -0.29825650065E+03  0.34168288357E+03  0.12500000000E+03 0.  0.
</event>
<event>
 5    0  0.5539899E-005  0.2688511E+03  0.7546771E-02  0.1101939E+00
         21   -1    0    0  502  501  0.00000000000E+00  0.00000000000E+00  0.67772670312E+03  0.67772670312E+03  0.00000000000E+00 0. -1.
         21   -1    0    0  501  502 -0.00000000000E+00 -0.00000000000E+00 -0.10665204366E+03  0.10665204366E+03  0.00000000000E+00 0. -1.
         25    1    1    2    0    0  0.90833072372E+02  0.61461396096E+02  0.40435237275E+03  0.43721160963E+03  0.12500000000E+03 0.  0.
         25    1    1    2    0    0 -0.80078296394E+02  0.26822910846E+02  0.89681741489E+02  0.17549876597E+03  0.12500000000E+03 0.  0.
         25    1    1    2    0    0 -0.10754775978E+02 -0.88284306942E+02  0.77040545218E+02  0.17166837119E+03  0.12500000000E+03 0.  0.
</event>
<event>
 5    0  0.5539899E-005  0.4035711E+03  0.7546771E-02  0.1042550E+00
         21   -1    0    0  502  501  0.00000000000E+00  0.00000000000E+00  0.14094613592E+04  0.14094613592E+04  0.00000000000E+00 0.  1.
         21   -1    0    0  501  502 -0.00000000000E+00 -0.00000000000E+00 -0.11555452906E+03  0.11555452906E+03  0.00000000000E+00 0.  1.
         25    1    1    2    0    0 -0.14381455667E+03 -0.15130664268E+03  0.27383955938E+03  0.36631875615E+03  0.12500000000E+03 0.  0.
         25    1    1    2    0    0  0.25512265726E+03  0.52799348910E+02  0.85927506897E+03  0.90656162816E+03  0.12500000000E+03 0.  0.
         25    1    1    2    0    0 -0.11130810060E+03  0.98507293769E+02  0.16079220176E+03  0.25213550391E+03  0.12500000000E+03 0.  0.
</event>
<event>
 5    0  0.5539899E-005  0.2169662E+03  0.7546771E-02  0.1136165E+00
         21   -1    0    0  502  501  0.00000000000E+00  0.00000000000E+00  0.15086615630E+03  0.15086615630E+03  0.00000000000E+00 0. -1.
         21   -1    0    0  501  502 -0.00000000000E+00 -0.00000000000E+00 -0.31202711266E+03  0.31202711266E+03  0.00000000000E+00 0. -1.
         25    1    1    2    0    0 -0.29814427362E+01  0.20618465781E+02 -0.35926091451E+02  0.13171823784E+03  0.12500000000E+03 0.  0.
         25    1    1    2    0    0 -0.31437568008E+02  0.22911495817E+02  0.19141980993E+02  0.13230522574E+03  0.12500000000E+03 0.  0.
         25    1    1    2    0    0  0.34419010744E+02 -0.43529961597E+02 -0.14437684590E+03  0.19886980537E+03  0.12500000000E+03 0.  0.
</event>
<event>
 5    0  0.5539899E-005  0.2696365E+03  0.7546771E-02  0.1101488E+00
         21   -1    0    0  502  501  0.00000000000E+00  0.00000000000E+00  0.15679035171E+04  0.15679035171E+04  0.00000000000E+00 0.  1.
         21   -1    0    0  501  502 -0.00000000000E+00 -0.00000000000E+00 -0.46370098552E+02  0.46370098552E+02  0.00000000000E+00 0.  1.
         25    1    1    2    0    0  0.70368300018E+02  0.10537446242E+03  0.22794541219E+03  0.28920509317E+03  0.12500000000E+03 0.  0.
         25    1    1    2    0    0 -0.33080848493E+02 -0.31540005746E+02  0.72133452481E+03  0.73351047107E+03  0.12500000000E+03 0.  0.
         25    1    1    2    0    0 -0.37287451525E+02 -0.73834456678E+02  0.57225348160E+03  0.59155805146E+03  0.12500000000E+03 0.  0.
</event>
<event>
 5    0  0.5539899E-005  0.2784771E+03  0.7546771E-02  0.1096524E+00
         21   -1    0    0  502  501  0.00000000000E+00  0.00000000000E+00  0.86361072953E+02  0.86361072953E+02  0.00000000000E+00 0.  1.
         21   -1    0    0  501  502 -0.00000000000E+00 -0.00000000000E+00 -0.89796836573E+03  0.89796836573E+03  0.00000000000E+00 0.  1.
         25    1    1    2    0    0  0.55719213131E+02  0.12098885417E+03 -0.48672857105E+03  0.51987751964E+03  0.12500000000E+03 0.  0.
         25    1    1    2    0    0 -0.11265637808E+03 -0.70630466712E+02 -0.21158488476E+03  0.27941597272E+03  0.12500000000E+03 0.  0.
         25    1    1    2    0    0  0.56937164948E+02 -0.50358387460E+02 -0.11329383696E+03  0.18503594633E+03  0.12500000000E+03 0.  0.
</event>
<event>
 5    0  0.5539899E-005  0.3632709E+03  0.7546771E-02  0.1057296E+00
         21   -1    0    0  502  501  0.00000000000E+00  0.00000000000E+00  0.41348623471E+03  0.41348623471E+03  0.00000000000E+00 0.  1.
         21   -1    0    0  501  502 -0.00000000000E+00 -0.00000000000E+00 -0.31915384437E+03  0.31915384437E+03  0.00000000000E+00 0.  1.
         25    1    1    2    0    0  0.17159207051E+03 -0.10902798475E+03  0.12270563869E+03  0.26835166086E+03  0.12500000000E+03 0.  0.
         25    1    1    2    0    0  0.85623385089E+02 -0.10475323368E+02  0.87564688571E+01  0.15212748674E+03  0.12500000000E+03 0.  0.
         25    1    1    2    0    0 -0.25721545560E+03  0.11950330812E+03 -0.37129717205E+02  0.31216093149E+03  0.12500000000E+03 0.  0.
</event>
<event>
 5    0  0.5539899E-005  0.2189031E+03  0.7546771E-02  0.1134703E+00
         21   -1    0    0  502  501  0.00000000000E+00  0.00000000000E+00  0.86778291972E+02  0.86778291972E+02  0.00000000000E+00 0. -1.
         21   -1    0    0  501  502 -0.00000000000E+00 -0.00000000000E+00 -0.55219542757E+03  0.55219542757E+03  0.00000000000E+00 0. -1.
         25    1    1    2    0    0  0.61093803528E+02  0.19904746530E+02 -0.11251974438E+03  0.18003984181E+03  0.12500000000E+03 0.  0.
         25    1    1    2    0    0 -0.94458647161E+02 -0.18834876473E+02 -0.23994070407E+03  0.28718239860E+03  0.12500000000E+03 0.  0.
         25    1    1    2    0    0  0.33364843632E+02 -0.10698700566E+01 -0.11295668715E+03  0.17175147913E+03  0.12500000000E+03 0.  0.
</event>
<event>
 5    0  0.5539899E-005  0.2641503E+03  0.7546771E-02  0.1104675E+00
         21   -1    0    0  502  501  0.00000000000E+00  0.00000000000E+00  0.70630582607E+03  0.70630582607E+03  0.00000000000E+00 0. -1.
         21   -1    0    0  501  502 -0.00000000000E+00 -0.00000000000E+00 -0.98789166260E+02  0.98789166260E+02  0.00000000000E+00 0. -1.
         25    1    1    2    0    0  0.13004093287E+03  0.48092045564E+02  0.34846435781E+03  0.39531746449E+03  0.12500000000E+03 0.  0.
         25    1    1    2    0    0 -0.33255331459E+02 -0.39328099514E+02  0.19870152117E+03  0.24033291701E+03  0.12500000000E+03 0.  0.
         25    1    1    2    0    0 -0.96785601412E+02 -0.87639460497E+01  0.60350780822E+02  0.16944461082E+03  0.12500000000E+03 0.  0.
</event>
<event>
 5    0  0.5539899E-005  0.3703442E+03  0.7546771E-02  0.1054561E+00
         21   -1    0    0  502  501  0.00000000000E+00  0.00000000000E+00  0.11530574243E+04  0.11530574243E+04  0.00000000000E+00 0.  1.
         21   -1    0    0  501  502 -0.00000000000E+00 -0.00000000000E+00 -0.11894880230E+03  0.11894880230E+03  0.00000000000E+00 0.  1.
         25    1    1    2    0    0  0.11714566033E+03 -0.16979800204E+03  0.59766598596E+03  0.64450298526E+03  0.12500000000E+03 0.  0.
         25    1    1    2    0    0 -0.18415656418E+03  0.19196576447E+01  0.15887460631E+03  0.27346565735E+03  0.12500000000E+03 0.  0.
         25    1    1    2    0    0  0.67010903852E+02  0.16787834439E+03  0.27756802972E+03  0.35403758399E+03  0.12500000000E+03 0.  0.
</event>
<event>
 5    0  0.6480524E-005  0.5682208E+03  0.7546771E-02  0.9973623E-01
         21   -1    0    0  502  501  0.00000000000E+00  0.00000000000E+00  0.13209127450E+04  0.13209127450E+04  0.00000000000E+00 0. -1.
         21   -1    0    0  501  502 -0.00000000000E+00 -0.00000000000E+00 -0.24443319077E+03  0.24443319077E+03  0.00000000000E+00 0. -1.
         25    1    1    2    0    0 -0.32681077352E+03 -0.13998331165E+03  0.78942118268E+03  0.87476363258E+03  0.12500000000E+03 0.  0.
         25    1    1    2    0    0 -0.60655022169E+02  0.53933705885E+02 -0.47735567156E+02  0.15649779780E+03  0.12500000000E+03 0.  0.
         25    1    1    2    0    0  0.38746579569E+03  0.86049605761E+02  0.33479393867E+03  0.53408450535E+03  0.12500000000E+03 0.  0.
</event>
<event>
 5    0  0.5539899E-005  0.3396109E+03  0.7546771E-02  0.1066962E+00
         21   -1    0    0  502  501  0.00000000000E+00  0.00000000000E+00  0.30616251621E+03  0.30616251621E+03  0.00000000000E+00 0.  1.
         21   -1    0    0  501  502 -0.00000000000E+00 -0.00000000000E+00 -0.37671354996E+03  0.37671354996E+03  0.00000000000E+00 0.  1.
         25    1    1    2    0    0 -0.31104363803E+02 -0.45960189478E+02  0.90448306417E+02  0.16396864517E+03  0.12500000000E+03 0.  0.
         25    1    1    2    0    0  0.18401878878E+03 -0.99950328844E+02 -0.11263148533E+03  0.26863327111E+03  0.12500000000E+03 0.  0.
         25    1    1    2    0    0 -0.15291442498E+03  0.14591051832E+03 -0.48367854836E+02  0.25027414989E+03  0.12500000000E+03 0.  0.
</event>
<event>
 5    0  0.5539899E-005  0.3300671E+03  0.7546771E-02  0.1071107E+00
         21   -1    0    0  502  501  0.00000000000E+00  0.00000000000E+00  0.20336160210E+03  0.20336160210E+03  0.00000000000E+00 0. -1.
         21   -1    0    0  501  502 -0.00000000000E+00 -0.00000000000E+00 -0.53571707338E+03  0.53571707338E+03  0.00000000000E+00 0. -1.
         25    1    1    2    0    0 -0.20131215177E+03  0.67042335272E+02 -0.20558186899E+03  0.32079613780E+03  0.12500000000E+03 0.  0.
         25    1    1    2    0    0  0.13109119366E+03 -0.16496634796E+02  0.46538510990E+02  0.18774416907E+03  0.12500000000E+03 0.  0.
         25    1    1    2    0    0  0.70220958107E+02 -0.50545700476E+02 -0.17331211328E+03  0.23053836862E+03  0.12500000000E+03 0.  0.
</event>
<event>
 5    0  0.5539899E-005  0.3573952E+03  0.7546771E-02  0.1059620E+00
         21   -1    0    0  502  501  0.00000000000E+00  0.00000000000E+00  0.11195953690E+03  0.11195953690E+03  0.00000000000E+00 0.  1.
         21   -1    0    0  501  502 -0.00000000000E+00 -0.00000000000E+00 -0.11408701543E+04  0.11408701543E+04  0.00000000000E+00 0.  1.
         25    1    1    2    0    0  0.10098511776E+02 -0.73276717141E+02 -0.47975444164E+03  0.50125919592E+03  0.12500000000E+03 0.  0.
         25    1    1    2    0    0 -0.21205818427E+03  0.91951941287E+02 -0.20637272662E+03  0.33412353302E+03  0.12500000000E+03 0.  0.
         25    1    1    2    0    0  0.20195967249E+03 -0.18675224147E+02 -0.34278344910E+03  0.41744696225E+03  0.12500000000E+03 0.  0.
</event>
<event>
 5    0  0.6294783E-005  0.3488255E+03  0.7546771E-02  0.1063098E+00
         21   -1    0    0  502  501  0.00000000000E+00  0.00000000000E+00  0.69386051384E+03  0.69386051384E+03  0.00000000000E+00 0. -1.
         21   -1    0    0  501  502 -0.00000000000E+00 -0.00000000000E+00 -0.17536556182E+03  0.17536556182E+03  0.00000000000E+00 0. -1.
         25    1    1    2    0    0 -0.88570183796E+02  0.12744443269E+03  0.17247091284E+03  0.26354881266E+03  0.12500000000E+03 0.  0.
         25    1    1    2    0    0 -0.37024076424E+02 -0.18048951198E+03  0.35660974895E+03  0.42040784866E+03  0.12500000000E+03 0.  0.
         25    1    1    2    0    0  0.12559426022E+03  0.53045079283E+02 -0.10585709765E+02  0.18526941433E+03  0.12500000000E+03 0.  0.
</event>
<event>
 5    0  0.5539899E-005  0.2757619E+03  0.7546771E-02  0.1098026E+00
         21   -1    0    0  502  501  0.00000000000E+00  0.00000000000E+00  0.23628012199E+03  0.23628012199E+03  0.00000000000E+00 0.  1.
         21   -1    0    0  501  502 -0.00000000000E+00 -0.00000000000E+00 -0.32184087954E+03  0.32184087954E+03  0.00000000000E+00 0.  1.
         25    1    1    2    0    0 -0.11724424963E+03  0.16105327216E+02 -0.41037953275E+02  0.17695962603E+03  0.12500000000E+03 0.  0.
         25    1    1    2    0    0 -0.64331392755E+02  0.45500500906E+02 -0.36145953993E+02  0.15211953743E+03  0.12500000000E+03 0.  0.
         25    1    1    2    0    0  0.18157564239E+03 -0.61605828122E+02 -0.83768502763E+01  0.22904183807E+03  0.12500000000E+03 0.  0.
</event>
<event>
 5    0  0.5539899E-005  0.3225325E+03  0.7546771E-02  0.1074490E+00
         21   -1    0    0  502  501  0.00000000000E+00  0.00000000000E+00  0.63955197109E+03  0.63955197109E+03  0.00000000000E+00 0.  1.
         21   -1    0    0  501  502 -0.00000000000E+00 -0.00000000000E+00 -0.16265635818E+03  0.16265635818E+03  0.00000000000E+00 0.  1.
         25    1    1    2    0    0 -0.46381907688E+02 -0.50146902501E+02  0.90855734790E+02  0.16895489852E+03  0.12500000000E+03 0.  0.
         25    1    1    2    0    0  0.28203291646E+02 -0.45678374035E+02 -0.68171367337E+02  0.15216528789E+03  0.12500000000E+03 0.  0.
         25    1    1    2    0    0  0.18178616041E+02  0.95825276536E+02  0.45421124546E+03  0.48108814286E+03  0.12500000000E+03 0.  0.
</event>
<event>
 5    0  0.5539899E-005  0.3916316E+03  0.7546771E-02  0.1046716E+00
         21   -1    0    0  502  501  0.00000000000E+00  0.00000000000E+00  0.45394016888E+03  0.45394016888E+03  0.00000000000E+00 0. -1.
         21   -1    0    0  501  502 -0.00000000000E+00 -0.00000000000E+00 -0.33787567437E+03  0.33787567437E+03  0.00000000000E+00 0. -1.
         25    1    1    2    0    0  0.11364876405E+03 -0.15623866526E+03 -0.11137244650E+02  0.23038142354E+03  0.12500000000E+03 0.  0.
         25    1    1    2    0    0 -0.18912820590E+03  0.27284483178E+03  0.11980211138E+03  0.37442132203E+03  0.12500000000E+03 0.  0.
         25    1    1    2    0    0  0.75479441850E+02 -0.11660616652E+03  0.73996277860E+01  0.18701309768E+03  0.12500000000E+03 0.  0.
</event>
<event>
 5    0  0.5539899E-005  0.2730205E+03  0.7546771E-02  0.1099563E+00
         21   -1    0    0  502  501  0.00000000000E+00  0.00000000000E+00  0.47739184139E+03  0.47739184139E+03  0.00000000000E+00 0. -1.
         21   -1    0    0  501  502 -0.00000000000E+00 -0.00000000000E+00 -0.15614053657E+03  0.15614053657E+03  0.00000000000E+00 0. -1.
         25    1    1    2    0    0 -0.25867197791E+02  0.77186804167E+02 -0.34928888289E+02  0.15320555439E+03  0.12500000000E+03 0.  0.
         25    1    1    2    0    0  0.97764424260E+02 -0.80034460828E+02  0.18635876243E+03  0.25752278716E+03  0.12500000000E+03 0.  0.
         25    1    1    2    0    0 -0.71897226469E+02  0.28476566610E+01  0.16982143068E+03  0.22280403641E+03  0.12500000000E+03 0.  0.
</event>
<event>
 5    0  0.5539899E-005  0.4583287E+03  0.7546771E-02  0.1025267E+00
         21   -1    0    0  502  501  0.00000000000E+00  0.00000000000E+00  0.18877389508E+04  0.18877389508E+04  0.00000000000E+00 0.  1.
         21   -1    0    0  501  502 -0.00000000000E+00 -0.00000000000E+00 -0.11127872246E+03  0.11127872246E+03  0.00000000000E+00 0.  1.
         25    1    1    2    0    0  0.27176209629E+03 -0.15552742555E+03  0.61998863512E+03  0.70572963999E+03  0.12500000000E+03 0.  0.
         25    1    1    2    0    0 -0.89002005164E+02  0.20409287637E+02  0.59134145597E+02  0.16570981601E+03  0.12500000000E+03 0.  0.
         25    1    1    2    0    0 -0.18276009112E+03  0.13511813791E+03  0.10973374477E+04  0.11275782173E+04  0.12500000000E+03 0.  0.
</event>
<event>
 5    0  0.5991168E-005  0.3292498E+03  0.7546771E-02  0.1071469E+00
         21   -1    0    0  502  501  0.00000000000E+00  0.00000000000E+00  0.24211831436E+03  0.24211831436E+03  0.00000000000E+00 0.  1.
         21   -1    0    0  501  502 -0.00000000000E+00 -0.00000000000E+00 -0.44773752696E+03  0.44773752696E+03  0.00000000000E+00 0.  1.
         25    1    1    2    0    0 -0.85152771156E+02 -0.94688179651E+02 -0.17046181192E+03  0.24677737969E+03  0.12500000000E+03 0.  0.
         25    1    1    2    0    0 -0.10116904457E+03  0.13872771236E+03 -0.49083834945E+01  0.21243739309E+03  0.12500000000E+03 0.  0.
         25    1    1    2    0    0  0.18632181573E+03 -0.44039532705E+02 -0.30249017177E+02  0.23064106854E+03  0.12500000000E+03 0.  0.
</event>
<event>
 5    0  0.5539899E-005  0.4673274E+03  0.7546771E-02  0.1022677E+00
         21   -1    0    0  502  501  0.00000000000E+00  0.00000000000E+00  0.52915096480E+03  0.52915096480E+03  0.00000000000E+00 0.  1.
         21   -1    0    0  501  502 -0.00000000000E+00 -0.00000000000E+00 -0.41272705556E+03  0.41272705556E+03  0.00000000000E+00 0.  1.
         25    1    1    2    0    0 -0.36766153322E+02  0.10108760878E+03  0.43929213185E+03  0.46922599223E+03  0.12500000000E+03 0.  0.
         25    1    1    2    0    0 -0.13623901134E+02  0.52799690457E+02 -0.93687560298E+02  0.16545626899E+03  0.12500000000E+03 0.  0.
         25    1    1    2    0    0  0.50390054456E+02 -0.15388729924E+03 -0.22918066231E+03  0.30719575914E+03  0.12500000000E+03 0.  0.
</event>
<event>
 5    0  0.5539899E-005  0.4239995E+03  0.7546771E-02  0.1035772E+00
         21   -1    0    0  502  501  0.00000000000E+00  0.00000000000E+00  0.54165447008E+03  0.54165447008E+03  0.00000000000E+00 0. -1.
         21   -1    0    0  501  502 -0.00000000000E+00 -0.00000000000E+00 -0.33190086600E+03  0.33190086600E+03  0.00000000000E+00 0. -1.
         25    1    1    2    0    0 -0.12289151360E+03 -0.95815099786E+02 -0.19160245057E+02  0.20068625377E+03  0.12500000000E+03 0.  0.
         25    1    1    2    0    0  0.18057982496E+03  0.27114432883E+03 -0.60503581896E+01  0.34898413585E+03  0.12500000000E+03 0.  0.
         25    1    1    2    0    0 -0.57688311356E+02 -0.17532922904E+03  0.23496420732E+03  0.32388494646E+03  0.12500000000E+03 0.  0.
</event>
<event>
 5    0  0.8000124E-005  0.3765125E+03  0.7546771E-02  0.1052230E+00
         21   -1    0    0  502  501  0.00000000000E+00  0.00000000000E+00  0.51754098838E+03  0.51754098838E+03  0.00000000000E+00 0.  1.
         21   -1    0    0  501  502 -0.00000000000E+00 -0.00000000000E+00 -0.27391382382E+03  0.27391382382E+03  0.00000000000E+00 0.  1.
         25    1    1    2    0    0  0.91173463350E+02 -0.97589883437E+02  0.25581111900E+03  0.31448483965E+03  0.12500000000E+03 0.  0.
         25    1    1    2    0    0 -0.13267433950E+03  0.22140994797E+03  0.38155257039E+02  0.28931932023E+03  0.12500000000E+03 0.  0.
         25    1    1    2    0    0  0.41500876145E+02 -0.12382006453E+03 -0.50339211476E+02  0.18765065231E+03  0.12500000000E+03 0.  0.
</event>
<event>
 5    0  0.5539899E-005  0.2380738E+03  0.7546771E-02  0.1121083E+00
         21   -1    0    0  502  501  0.00000000000E+00  0.00000000000E+00  0.28958546899E+02  0.28958546899E+02  0.00000000000E+00 0.  1.
         21   -1    0    0  501  502 -0.00000000000E+00 -0.00000000000E+00 -0.19572506076E+04  0.19572506076E+04  0.00000000000E+00 0.  1.
         25    1    1    2    0    0 -0.60458940650E+02  0.77018837938E+02 -0.49015748835E+03  0.51523445953E+03  0.12500000000E+03 0.  0.
         25    1    1    2    0    0  0.83101600364E+02 -0.92822588285E+02 -0.95487349495E+03  0.97104598256E+03  0.12500000000E+03 0.  0.
         25    1    1    2    0    0 -0.22642659714E+02  0.15803750348E+02 -0.48326107736E+03  0.49992871238E+03  0.12500000000E+03 0.  0.
</event>
<event>
 5    0  0.5539899E-005  0.2421093E+03  0.7546771E-02  0.1118396E+00
         21   -1    0    0  502  501  0.00000000000E+00  0.00000000000E+00  0.58372706945E+03  0.58372706945E+03  0.00000000000E+00 0. -1.
         21   -1    0    0  501  502 -0.00000000000E+00 -0.00000000000E+00 -0.10041836852E+03  0.10041836852E+03  0.00000000000E+00 0. -1.
         25    1    1    2    0    0  0.73927875563E+02  0.56814895774E+02  0.14626381569E+03  0.21380216778E+03  0.12500000000E+03 0.  0.
         25    1    1    2    0    0 -0.29005588161E+02 -0.10809137526E+02  0.29376357454E+02  0.13208380664E+03  0.12500000000E+03 0.  0.
         25    1    1    2    0    0 -0.44922287401E+02 -0.46005758248E+02  0.30766852779E+03  0.33825946356E+03  0.12500000000E+03 0.  0.
</event>
<event>
 5    0  0.5539899E-005  0.4151577E+03  0.7546771E-02  0.1038654E+00
         21   -1    0    0  502  501  0.00000000000E+00  0.00000000000E+00  0.41473711395E+03  0.41473711395E+03  0.00000000000E+00 0.  1.
         21   -1    0    0  501  502 -0.00000000000E+00 -0.00000000000E+00 -0.41557875899E+03  0.41557875899E+03  0.00000000000E+00 0.  1.
         25    1    1    2    0    0 -0.41378304821E+02 -0.23447294894E+03 -0.23948907834E+02  0.26997829187E+03  0.12500000000E+03 0.  0.
         25    1    1    2    0    0  0.11280711014E+03  0.33502160417E+03 -0.31928814045E+02  0.37631020253E+03  0.12500000000E+03 0.  0.
         25    1    1    2    0    0 -0.71428805320E+02 -0.10054865523E+03  0.55036076845E+02  0.18402737854E+03  0.12500000000E+03 0.  0.
</event>
<event>
 5    0  0.5539899E-005  0.3040193E+03  0.7546771E-02  0.1083248E+00
         21   -1    0    0  502  501  0.00000000000E+00  0.00000000000E+00  0.26099135768E+03  0.26099135768E+03  0.00000000000E+00 0. -1.
         21   -1    0    0  501  502 -0.00000000000E+00 -0.00000000000E+00 -0.35414109131E+03  0.35414109131E+03  0.00000000000E+00 0. -1.
         25    1    1    2    0    0  0.48300034329E+02 -0.67575327745E+02  0.62848690615E+00  0.15008235483E+03  0.12500000000E+03 0.  0.
         25    1    1    2    0    0 -0.51480675245E+02  0.20921350556E+03 -0.11606891468E+03  0.27480455561E+03  0.12500000000E+03 0.  0.
         25    1    1    2    0    0  0.31806409160E+01 -0.14163817781E+03  0.22290694134E+02  0.19024553854E+03  0.12500000000E+03 0.  0.
</event>
<event>
 5    0  0.5539899E-005  0.3360586E+03  0.7546771E-02  0.1068487E+00
         21   -1    0    0  502  501  0.00000000000E+00  0.00000000000E+00  0.46771972059E+02  0.46771972059E+02  0.00000000000E+00 0.  1.
         21   -1    0    0  501  502 -0.00000000000E+00 -0.00000000000E+00 -0.24145951862E+04  0.24145951862E+04  0.00000000000E+00 0.  1.
         25    1    1    2    0    0 -0.15552685339E+03  0.13288092783E+03 -0.81652722763E+03  0.85099216011E+03  0.12500000000E+03 0.  0.
         25    1    1    2    0    0  0.51149300037E+02  0.61068245186E+02 -0.31137061171E+03  0.34485103929E+03  0.12500000000E+03 0.  0.
         25    1    1    2    0    0  0.10437755336E+03 -0.19394917302E+03 -0.12399253748E+04  0.12655239588E+04  0.12500000000E+03 0.  0.
</event>
<event>
 5    0  0.5539899E-005  0.7597903E+03  0.7546771E-02  0.9620115E-01
         21   -1    0    0  502  501  0.00000000000E+00  0.00000000000E+00  0.89990802955E+03  0.89990802955E+03  0.00000000000E+00 0.  1.
         21   -1    0    0  501  502 -0.00000000000E+00 -0.00000000000E+00 -0.64148929750E+03  0.64148929750E+03  0.00000000000E+00 0.  1.
         25    1    1    2    0    0  0.40219091373E+03 -0.24253684991E+03 -0.45457228457E+02  0.48813216885E+03  0.12500000000E+03 0.  0.
         25    1    1    2    0    0  0.25553577108E+03  0.68458061135E+01  0.90588146974E+01  0.28469713291E+03  0.12500000000E+03 0.  0.
         25    1    1    2    0    0 -0.65772668481E+03  0.23569104379E+03  0.29481714581E+03  0.76856802529E+03  0.12500000000E+03 0.  0.
</event>
<event>
 5    0  0.5539899E-005  0.4313568E+03  0.7546771E-02  0.1033432E+00
         21   -1    0    0  502  501  0.00000000000E+00  0.00000000000E+00  0.26533903197E+03  0.26533903197E+03  0.00000000000E+00 0. -1.
         21   -1    0    0  501  502 -0.00000000000E+00 -0.00000000000E+00 -0.70124884775E+03  0.70124884775E+03  0.00000000000E+00 0.  1.
         25    1    1    2    0    0 -0.93958761617E+02 -0.16714608416E+02 -0.36858213890E+03  0.40073110703E+03  0.12500000000E+03 0.  0.
         25    1    1    2    0    0 -0.55321064055E+02  0.17598862808E+03  0.11917912407E+03  0.25270750079E+03  0.12500000000E+03 0.  0.
         25    1    1    2    0    0  0.14927982567E+03 -0.15927401966E+03 -0.18650680095E+03  0.31314927190E+03  0.12500000000E+03 0.  0.
</event>
<event>
 5    0  0.5539899E-005  0.2706105E+03  0.7546771E-02  0.1100931E+00
         21   -1    0    0  502  501  0.00000000000E+00  0.00000000000E+00  0.20513020801E+03  0.20513020801E+03  0.00000000000E+00 0.  1.
         21   -1    0    0  501  502 -0.00000000000E+00 -0.00000000000E+00 -0.35699294924E+03  0.35699294924E+03  0.00000000000E+00 0.  1.
         25    1    1    2    0    0 -0.13135449806E+03  0.65112074805E+02 -0.15974025795E+03  0.25027092611E+03  0.12500000000E+03 0.  0.
         25    1    1    2    0    0  0.89007840709E+02  0.15340871982E+02 -0.17535066112E+02  0.15521023357E+03  0.12500000000E+03 0.  0.
         25    1    1    2    0    0  0.42346657354E+02 -0.80452946787E+02  0.25412582828E+02  0.15664199757E+03  0.12500000000E+03 0.  0.
</event>
<event>
 5    0  0.5539899E-005  0.2371477E+03  0.7546771E-02  0.1121708E+00
         21   -1    0    0  502  501  0.00000000000E+00  0.00000000000E+00  0.52119320069E+03  0.52119320069E+03  0.00000000000E+00 0. -1.
         21   -1    0    0  501  502 -0.00000000000E+00 -0.00000000000E+00 -0.10790435459E+03  0.10790435459E+03  0.00000000000E+00 0. -1.
         25    1    1    2    0    0  0.46181891460E+02 -0.22698723548E+02  0.15878541241E+03  0.20853250668E+03  0.12500000000E+03 0.  0.
         25    1    1    2    0    0 -0.13032116597E+03  0.28925767834E+02  0.15657304378E+03  0.24074971315E+03  0.12500000000E+03 0.  0.
         25    1    1    2    0    0  0.84139274506E+02 -0.62270442864E+01  0.97930389913E+02  0.17981533545E+03  0.12500000000E+03 0.  0.
</event>
<event>
 5    0  0.5539899E-005  0.2793567E+03  0.7546771E-02  0.1096041E+00
         21   -1    0    0  502  501  0.00000000000E+00  0.00000000000E+00  0.93860334001E+02  0.93860334001E+02  0.00000000000E+00 0. -1.
         21   -1    0    0  501  502 -0.00000000000E+00 -0.00000000000E+00 -0.83144961243E+03  0.83144961243E+03  0.00000000000E+00 0. -1.
         25    1    1    2    0    0  0.10528284578E+03 -0.34384762618E+02 -0.50595933357E+03  0.53281013198E+03  0.12500000000E+03 0.  0.
         25    1    1    2    0    0  0.30129796098E+02  0.32066336727E+02 -0.93592468029E+02  0.16223626178E+03  0.12500000000E+03 0.  0.
         25    1    1    2    0    0 -0.13541264188E+03  0.23184258914E+01 -0.13803747683E+03  0.23026355267E+03  0.12500000000E+03 0.  0.
</event>
<event>
 5    0  0.5539899E-005  0.2376359E+03  0.7546771E-02  0.1121378E+00
         21   -1    0    0  502  501  0.00000000000E+00  0.00000000000E+00  0.29284177662E+03  0.29284177662E+03  0.00000000000E+00 0. -1.
         21   -1    0    0  501  502 -0.00000000000E+00 -0.00000000000E+00 -0.19283734654E+03  0.19283734654E+03  0.00000000000E+00 0. -1.
         25    1    1    2    0    0  0.65962718996E+01  0.44865806229E+02  0.73102656311E+02  0.15174139096E+03  0.12500000000E+03 0.  0.
         25    1    1    2    0    0 -0.52187403697E+02  0.74019648294E+02  0.15663813515E+02  0.15515407984E+03  0.12500000000E+03 0.  0.
         25    1    1    2    0    0  0.45591131797E+02 -0.11888545452E+03  0.11237960252E+02  0.17878365235E+03  0.12500000000E+03 0.  0.
</event>
<event>
 5    0  0.5539899E-005  0.2827876E+03  0.7546771E-02  0.1094176E+00
         21   -1    0    0  502  501  0.00000000000E+00  0.00000000000E+00  0.12703596329E+03  0.12703596329E+03  0.00000000000E+00 0.  1.
         21   -1    0    0  501  502 -0.00000000000E+00 -0.00000000000E+00 -0.62949764912E+03  0.62949764912E+03  0.00000000000E+00 0.  1.
         25    1    1    2    0    0  0.72993514622E+02  0.12396866065E+03 -0.14964384160E+03  0.24231087745E+03  0.12500000000E+03 0.  0.
         25    1    1    2    0    0 -0.10735655405E+03  0.22847997307E+02 -0.22702035936E+03  0.28144396288E+03  0.12500000000E+03 0.  0.
         25    1    1    2    0    0  0.34363039424E+02 -0.14681665796E+03 -0.12579748486E+03  0.23277877208E+03  0.12500000000E+03 0.  0.
</event>
<event>
 5    0  0.5539899E-005  0.3728690E+03  0.7546771E-02  0.1053601E+00
         21   -1    0    0  502  501  0.00000000000E+00  0.00000000000E+00  0.21459046552E+03  0.21459046552E+03  0.00000000000E+00 0. -1.
         21   -1    0    0  501  502 -0.00000000000E+00 -0.00000000000E+00 -0.64789142956E+03  0.64789142956E+03  0.00000000000E+00 0. -1.
         25    1    1    2    0    0 -0.14319358610E+03  0.33115609883E+02  0.73318257289E+02  0.20640158325E+03  0.12500000000E+03 0.  0.
         25    1    1    2    0    0  0.92553100422E+02 -0.11301987463E+03 -0.92644456119E+02  0.21341875201E+03  0.12500000000E+03 0.  0.
         25    1    1    2    0    0  0.50640485677E+02  0.79904264750E+02 -0.41397476521E+03  0.44266155982E+03  0.12500000000E+03 0.  0.
</event>
<event>
 5    0  0.5539899E-005  0.2265758E+03  0.7546771E-02  0.1129073E+00
         21   -1    0    0  502  501  0.00000000000E+00  0.00000000000E+00  0.52795082394E+02  0.52795082394E+02  0.00000000000E+00 0. -1.
         21   -1    0    0  501  502 -0.00000000000E+00 -0.00000000000E+00 -0.97237415047E+03  0.97237415047E+03  0.00000000000E+00 0. -1.
         25    1    1    2    0    0 -0.51124609285E+02  0.73537724608E+02 -0.25638552467E+03  0.29896498102E+03  0.12500000000E+03 0.  0.
         25    1    1    2    0    0  0.70734110044E+02 -0.72865340700E+02 -0.45402056425E+03  0.48173887633E+03  0.12500000000E+03 0.  0.
         25    1    1    2    0    0 -0.19609500759E+02 -0.67238390793E+00 -0.20917297915E+03  0.24446537552E+03  0.12500000000E+03 0.  0.
</event>
<event>
 5    0  0.5539899E-005  0.6428150E+03  0.7546771E-02  0.9820356E-01
         21   -1    0    0  502  501  0.00000000000E+00  0.00000000000E+00  0.63412261698E+03  0.63412261698E+03  0.00000000000E+00 0.  1.
         21   -1    0    0  501  502 -0.00000000000E+00 -0.00000000000E+00 -0.65162650861E+03  0.65162650861E+03  0.00000000000E+00 0.  1.
         25    1    1    2    0    0 -0.23872413048E+02 -0.12200266171E+03  0.23265275602E+03  0.29190211793E+03  0.12500000000E+03 0.  0.
         25    1    1    2    0    0 -0.22081048053E+03  0.36252172231E+03 -0.40250664679E+03  0.59817712107E+03  0.12500000000E+03 0.  0.
         25    1    1    2    0    0  0.24468289358E+03 -0.24051906060E+03  0.15234999915E+03  0.39566988660E+03  0.12500000000E+03 0.  0.
</event>
<event>
 5    0  0.5539899E-005  0.4869556E+03  0.7546771E-02  0.1017241E+00
         21   -1    0    0  502  501  0.00000000000E+00  0.00000000000E+00  0.24135517740E+03  0.24135517740E+03  0.00000000000E+00 0.  1.
         21   -1    0    0  501  502 -0.00000000000E+00 -0.00000000000E+00 -0.98247651440E+03  0.98247651440E+03  0.00000000000E+00 0.  1.
         25    1    1    2    0    0  0.13685283493E+03 -0.23556089514E+03 -0.66627736332E+03  0.73059438721E+03  0.12500000000E+03 0.  0.
         25    1    1    2    0    0  0.75042456617E+02  0.10881916992E+02  0.18161923622E+02  0.14732495336E+03  0.12500000000E+03 0.  0.
         25    1    1    2    0    0 -0.21189529155E+03  0.22467897815E+03 -0.93005897295E+02  0.34591235123E+03  0.12500000000E+03 0.  0.
</event>
<event>
 5    0  0.5539899E-005  0.3649740E+03  0.7546771E-02  0.1056632E+00
         21   -1    0    0  502  501  0.00000000000E+00  0.00000000000E+00  0.76888202689E+03  0.76888202689E+03  0.00000000000E+00 0.  1.
         21   -1    0    0  501  502 -0.00000000000E+00 -0.00000000000E+00 -0.17324639283E+03  0.17324639283E+03  0.00000000000E+00 0.  1.
         25    1    1    2    0    0 -0.21347975694E+03  0.48882210686E+02  0.37710084626E+03  0.45364427186E+03  0.12500000000E+03 0.  0.
         25    1    1    2    0    0  0.12548582657E+03 -0.16083700025E+03  0.74839598254E+02  0.25068146877E+03  0.12500000000E+03 0.  0.
         25    1    1    2    0    0  0.87993930370E+02  0.11195478956E+03  0.14369518954E+03  0.23780267910E+03  0.12500000000E+03 0.  0.
</event>
<event>
 5    0  0.5539899E-005  0.2659395E+03  0.7546771E-02  0.1103626E+00
         21   -1    0    0  502  501  0.00000000000E+00  0.00000000000E+00  0.17304175722E+03  0.17304175722E+03  0.00000000000E+00 0. -1.
         21   -1    0    0  501  502 -0.00000000000E+00 -0.00000000000E+00 -0.40870955778E+03  0.40870955778E+03  0.00000000000E+00 0. -1.
         25    1    1    2    0    0 -0.11577225624E+03  0.63288996891E+02  0.17173124210E+02  0.18256130104E+03  0.12500000000E+03 0.  0.
         25    1    1    2    0    0  0.96224688135E+02 -0.73047102630E+02 -0.19020535800E+03  0.25767838098E+03  0.12500000000E+03 0.  0.
         25    1    1    2    0    0  0.19547568100E+02  0.97581057393E+01 -0.62635566763E+02  0.14151163298E+03  0.12500000000E+03 0.  0.
</event>
<event>
 5    0  0.5539899E-005  0.2968493E+03  0.7546771E-02  0.1086826E+00
         21   -1    0    0  502  501  0.00000000000E+00  0.00000000000E+00  0.12714882257E+03  0.12714882257E+03  0.00000000000E+00 0. -1.
         21   -1    0    0  501  502 -0.00000000000E+00 -0.00000000000E+00 -0.69304202646E+03  0.69304202646E+03  0.00000000000E+00 0. -1.
         25    1    1    2    0    0 -0.52347512862E+02  0.21102910648E+02 -0.21090505425E+03  0.25157809294E+03  0.12500000000E+03 0.  0.
         25    1    1    2    0    0  0.36470040234E+02  0.16295365006E+03 -0.10482022504E+03  0.23344428774E+03  0.12500000000E+03 0.  0.
         25    1    1    2    0    0  0.15877472629E+02 -0.18405656071E+03 -0.25016792460E+03  0.33516846835E+03  0.12500000000E+03 0.  0.
</event>
<event>
 5    0  0.5539899E-005  0.3452121E+03  0.7546771E-02  0.1064598E+00
         21   -1    0    0  502  501  0.00000000000E+00  0.00000000000E+00  0.11865327291E+03  0.11865327291E+03  0.00000000000E+00 0.  1.
         21   -1    0    0  501  502 -0.00000000000E+00 -0.00000000000E+00 -0.10043665657E+04  0.10043665657E+04  0.00000000000E+00 0.  1.
         25    1    1    2    0    0  0.12523065435E+03  0.21189432885E+03 -0.48847399493E+03  0.56108267405E+03  0.12500000000E+03 0.  0.
         25    1    1    2    0    0 -0.24170727162E+02  0.52406587434E+00 -0.16590498258E+03  0.20912666483E+03  0.12500000000E+03 0.  0.
         25    1    1    2    0    0 -0.10105992718E+03 -0.21241839473E+03 -0.23133431528E+03  0.35281049974E+03  0.12500000000E+03 0.  0.
</event>
<event>
 5    0  0.5539899E-005  0.1986829E+03  0.7546771E-02  0.1150855E+00
         21   -1    0    0  502  501  0.00000000000E+00  0.00000000000E+00  0.83347389163E+03  0.83347389163E+03  0.00000000000E+00 0.  1.
         21   -1    0    0  501  502 -0.00000000000E+00 -0.00000000000E+00 -0.47361870590E+02  0.47361870590E+02  0.00000000000E+00 0.  1.
         25    1    1    2    0    0  0.21884292800E+02  0.49137573377E+02  0.33830022110E+03  0.36464429652E+03  0.12500000000E+03 0.  0.
         25    1    1    2    0    0 -0.80303866966E+00 -0.25481786442E+02  0.21205707903E+03  0.24747357652E+03  0.12500000000E+03 0.  0.
         25    1    1    2    0    0 -0.21081254130E+02 -0.23655786935E+02  0.23575472092E+03  0.26871788918E+03  0.12500000000E+03 0.  0.
</event>
<event>
 5    0  0.5539899E-005  0.2518498E+03  0.7546771E-02  0.1112141E+00
         21   -1    0    0  502  501  0.00000000000E+00  0.00000000000E+00  0.13647399424E+04  0.13647399424E+04  0.00000000000E+00 0.  1.
         21   -1    0    0  501  502 -0.00000000000E+00 -0.00000000000E+00 -0.46476492998E+02  0.46476492998E+02  0.00000000000E+00 0.  1.
         25    1    1    2    0    0 -0.12858731485E+03  0.17428656255E+01  0.26933577636E+03  0.32358074039E+03  0.12500000000E+03 0.  0.
         25    1    1    2    0    0  0.86572552335E+02  0.12517395996E+02  0.63004633183E+03  0.64825525240E+03  0.12500000000E+03 0.  0.
         25    1    1    2    0    0  0.42014762516E+02 -0.14260261622E+02  0.41888134126E+03  0.43938044265E+03  0.12500000000E+03 0.  0.
</event>
<event>
 5    0  0.5539899E-005  0.3104555E+03  0.7546771E-02  0.1080128E+00
         21   -1    0    0  502  501  0.00000000000E+00  0.00000000000E+00  0.38005195456E+03  0.38005195456E+03  0.00000000000E+00 0.  1.
         21   -1    0    0  501  502 -0.00000000000E+00 -0.00000000000E+00 -0.25360379871E+03  0.25360379871E+03  0.00000000000E+00 0.  1.
         25    1    1    2    0    0  0.97333103246E+02  0.96911304461E+02  0.24248055320E+02  0.18729255753E+03  0.12500000000E+03 0.  0.
         25    1    1    2    0    0 -0.52983693037E+02  0.11937154626E+03  0.40898822857E+02  0.18534980846E+03  0.12500000000E+03 0.  0.
         25    1    1    2    0    0 -0.44349410209E+02 -0.21628285072E+03  0.61301277667E+02  0.26101338729E+03  0.12500000000E+03 0.  0.
</event>
<event>
 5    0  0.5539899E-005  0.2534756E+03  0.7546771E-02  0.1111128E+00
         21   -1    0    0  502  501  0.00000000000E+00  0.00000000000E+00  0.64590750348E+02  0.64590750348E+02  0.00000000000E+00 0.  1.
         21   -1    0    0  501  502 -0.00000000000E+00 -0.00000000000E+00 -0.99472228932E+03  0.99472228932E+03  0.00000000000E+00 0.  1.
         25    1    1    2    0    0  0.88822561390E+02 -0.73627838450E+02 -0.25632472567E+03  0.30763268844E+03  0.12500000000E+03 0.  0.
         25    1    1    2    0    0 -0.49760291053E+02  0.10879166903E+03 -0.23123769098E+03  0.28880371110E+03  0.12500000000E+03 0.  0.
         25    1    1    2    0    0 -0.39062270337E+02 -0.35163830577E+02 -0.44256912233E+03  0.46287664013E+03  0.12500000000E+03 0.  0.
</event>
<event>
 5    0  0.5539899E-005  0.5316751E+03  0.7546771E-02  0.1005827E+00
         21   -1    0    0  502  501  0.00000000000E+00  0.00000000000E+00  0.13460204083E+04  0.13460204083E+04  0.00000000000E+00 0.  1.
         21   -1    0    0  501  502 -0.00000000000E+00 -0.00000000000E+00 -0.21001051464E+03  0.21001051464E+03  0.00000000000E+00 0.  1.
         25    1    1    2    0    0  0.58935519056E+02 -0.39773203282E+03  0.33936511468E+03  0.54079371890E+03  0.12500000000E+03 0.  0.
         25    1    1    2    0    0 -0.15848035851E+03  0.41987710284E+03  0.55381063369E+03  0.72370161221E+03  0.12500000000E+03 0.  0.
         25    1    1    2    0    0  0.99544839457E+02 -0.22145070023E+02  0.24283414532E+03  0.29153559186E+03  0.12500000000E+03 0.  0.
</event>
<event>
 5    0  0.5539899E-005  0.2860327E+03  0.7546771E-02  0.1092439E+00
         21   -1    0    0  502  501  0.00000000000E+00  0.00000000000E+00  0.34754017458E+03  0.34754017458E+03  0.00000000000E+00 0. -1.
         21   -1    0    0  501  502 -0.00000000000E+00 -0.00000000000E+00 -0.23541073615E+03  0.23541073615E+03  0.00000000000E+00 0. -1.
         25    1    1    2    0    0  0.50263729269E+02 -0.56176968744E+02  0.18948023418E+03  0.23918623172E+03  0.12500000000E+03 0.  0.
         25    1    1    2    0    0  0.16337726228E+01  0.59354507414E+02  0.60067477389E+02  0.15085996355E+03  0.12500000000E+03 0.  0.
         25    1    1    2    0    0 -0.51897501892E+02 -0.31775386699E+01 -0.13741827314E+03  0.19290471546E+03  0.12500000000E+03 0.  0.
</event>
<event>
 5    0  0.6958230E-005  0.4292435E+03  0.7546771E-02  0.1034099E+00
         21   -1    0    0  502  501  0.00000000000E+00  0.00000000000E+00  0.67342099697E+03  0.67342099697E+03  0.00000000000E+00 0. -1.
         21   -1    0    0  501  502 -0.00000000000E+00 -0.00000000000E+00 -0.27360290513E+03  0.27360290513E+03  0.00000000000E+00 0. -1.
         25    1    1    2    0    0 -0.19225424377E+03  0.73183357919E+02  0.25585974851E+03  0.35129291059E+03  0.12500000000E+03 0.  0.
         25    1    1    2    0    0  0.11850047525E+03  0.72779411591E+02  0.28879300963E+03  0.34404303189E+03  0.12500000000E+03 0.  0.
         25    1    1    2    0    0  0.73753768522E+02 -0.14596276951E+03 -0.14483466629E+03  0.25168795961E+03  0.12500000000E+03 0.  0.
</event>
<event>
 5    0  0.5539899E-005  0.3109921E+03  0.7546771E-02  0.1079871E+00
         21   -1    0    0  502  501  0.00000000000E+00  0.00000000000E+00  0.45534016299E+03  0.45534016299E+03  0.00000000000E+00 0. -1.
         21   -1    0    0  501  502 -0.00000000000E+00 -0.00000000000E+00 -0.21240397417E+03  0.21240397417E+03  0.00000000000E+00 0. -1.
         25    1    1    2    0    0 -0.11970683708E+03  0.76029700765E+02 -0.42631978118E+02  0.19378526208E+03  0.12500000000E+03 0.  0.
         25    1    1    2    0    0 -0.61552791536E+02 -0.68779755972E+02  0.91207600454E+02  0.18017554595E+03  0.12500000000E+03 0.  0.
         25    1    1    2    0    0  0.18125962862E+03 -0.72499447931E+01  0.19436056649E+03  0.29378332912E+03  0.12500000000E+03 0.  0.
</event>
<event>
 5    0  0.6150651E-005  0.3337106E+03  0.7546771E-02  0.1069507E+00
         21   -1    0    0  502  501  0.00000000000E+00  0.00000000000E+00  0.39535299517E+03  0.39535299517E+03  0.00000000000E+00 0.  1.
         21   -1    0    0  501  502 -0.00000000000E+00 -0.00000000000E+00 -0.28167939445E+03  0.28167939445E+03  0.00000000000E+00 0.  1.
         25    1    1    2    0    0 -0.22638551718E+02 -0.66396469644E+02  0.22410942344E+03  0.26602824827E+03  0.12500000000E+03 0.  0.
         25    1    1    2    0    0  0.15359509772E+03 -0.51361671856E+01 -0.29889202653E+02  0.20034020738E+03  0.12500000000E+03 0.  0.
         25    1    1    2    0    0 -0.13095654600E+03  0.71532636830E+02 -0.80546620059E+02  0.21066393397E+03  0.12500000000E+03 0.  0.
</event>
<event>
 5    0  0.5582590E-005  0.3875585E+03  0.7546771E-02  0.1048175E+00
         21   -1    0    0  502  501  0.00000000000E+00  0.00000000000E+00  0.53938144252E+03  0.53938144252E+03  0.00000000000E+00 0.  1.
         21   -1    0    0  501  502 -0.00000000000E+00 -0.00000000000E+00 -0.27847000819E+03  0.27847000819E+03  0.00000000000E+00 0.  1.
         25    1    1    2    0    0 -0.52076048261E+02 -0.21874394075E+00  0.24511200446E+03  0.28003010085E+03  0.12500000000E+03 0.  0.
         25    1    1    2    0    0 -0.19904850450E+03  0.75816275791E+02  0.21440905524E+01  0.24697775597E+03  0.12500000000E+03 0.  0.
         25    1    1    2    0    0  0.25112455276E+03 -0.75597531850E+02  0.13655339314E+02  0.29084359390E+03  0.12500000000E+03 0.  0.
</event>
<event>
 5    0  0.5539899E-005  0.3310390E+03  0.7546771E-02  0.1070678E+00
         21   -1    0    0  502  501  0.00000000000E+00  0.00000000000E+00  0.10804030351E+03  0.10804030351E+03  0.00000000000E+00 0. -1.
         21   -1    0    0  501  502 -0.00000000000E+00 -0.00000000000E+00 -0.10143145325E+04  0.10143145325E+04  0.00000000000E+00 0. -1.
         25    1    1    2    0    0 -0.81834456094E+02 -0.35209989642E+02 -0.39091911022E+02  0.15839759809E+03  0.12500000000E+03 0.  0.
         25    1    1    2    0    0  0.14285002931E+03 -0.68859700161E+02 -0.67656896652E+03  0.70605832311E+03  0.12500000000E+03 0.  0.
         25    1    1    2    0    0 -0.61015573216E+02  0.10406968980E+03 -0.19061335149E+03  0.25789891484E+03  0.12500000000E+03 0.  0.
</event>
<event>
 5    0  0.5539899E-005  0.6949155E+03  0.7546771E-02  0.9725967E-01
         21   -1    0    0  502  501  0.00000000000E+00  0.00000000000E+00  0.17189266306E+04  0.17189266306E+04  0.00000000000E+00 0. -1.
         21   -1    0    0  501  502 -0.00000000000E+00 -0.00000000000E+00 -0.28093553108E+03  0.28093553108E+03  0.00000000000E+00 0. -1.
         25    1    1    2    0    0  0.14957764372E+03 -0.54966806431E+03  0.25793645390E+03  0.63770264753E+03  0.12500000000E+03 0.  0.
         25    1    1    2    0    0 -0.17941049546E+03  0.48277502611E+03  0.84975628078E+03  0.10014841928E+04  0.12500000000E+03 0.  0.
         25    1    1    2    0    0  0.29832851741E+02  0.66893038199E+02  0.33029836483E+03  0.36067532133E+03  0.12500000000E+03 0.  0.
</event>
<event>
 5    0  0.5539899E-005  0.6116444E+03  0.7546771E-02  0.9881538E-01
         21   -1    0    0  502  501  0.00000000000E+00  0.00000000000E+00  0.24744018481E+03  0.24744018481E+03  0.00000000000E+00 0.  1.
         21   -1    0    0  501  502 -0.00000000000E+00 -0.00000000000E+00 -0.15119163918E+04  0.15119163918E+04  0.00000000000E+00 0.  1.
         25    1    1    2    0    0  0.17167533995E+01 -0.18566625321E+03 -0.12636173082E+04  0.12832882008E+04  0.12500000000E+03 0.  0.
         25    1    1    2    0    0  0.16272787473E+03  0.11671829203E+02  0.10037586889E+02  0.20577255881E+03  0.12500000000E+03 0.  0.
         25    1    1    2    0    0 -0.16444462813E+03  0.17399442401E+03 -0.10896485764E+02  0.27029581704E+03  0.12500000000E+03 0.  0.
</event>
<event>
 5    0  0.5539899E-005  0.4441279E+03  0.7546771E-02  0.1029488E+00
         21   -1    0    0  502  501  0.00000000000E+00  0.00000000000E+00  0.11458365822E+04  0.11458365822E+04  0.00000000000E+00 0. -1.
         21   -1    0    0  501  502 -0.00000000000E+00 -0.00000000000E+00 -0.17214458475E+03  0.17214458475E+03  0.00000000000E+00 0. -1.
         25    1    1    2    0    0  0.17783919520E+03  0.43968619479E+02  0.63710620470E+03  0.67460309436E+03  0.12500000000E+03 0.  0.
         25    1    1    2    0    0  0.11878325332E+03  0.15699876955E+02  0.25113561222E+03  0.30504105155E+03  0.12500000000E+03 0.  0.
         25    1    1    2    0    0 -0.29662244852E+03 -0.59668496434E+02  0.85450180489E+02  0.33833702100E+03  0.12500000000E+03 0.  0.
</event>
<event>
 5    0  0.5539899E-005  0.5327772E+03  0.7546771E-02  0.1005561E+00
         21   -1    0    0  502  501  0.00000000000E+00  0.00000000000E+00  0.33311593759E+03  0.33311593759E+03  0.00000000000E+00 0. -1.
         21   -1    0    0  501  502 -0.00000000000E+00 -0.00000000000E+00 -0.85211035107E+03  0.85211035107E+03  0.00000000000E+00 0. -1.
         25    1    1    2    0    0  0.34760826922E+03 -0.31422283517E+03 -0.24090433615E+03  0.54150475358E+03  0.12500000000E+03 0.  0.
         25    1    1    2    0    0 -0.11335057199E+03  0.20125278491E+01 -0.10548494000E+03  0.19900873098E+03  0.12500000000E+03 0.  0.
         25    1    1    2    0    0 -0.23425769723E+03  0.31221030732E+03 -0.17260513733E+03  0.44471280411E+03  0.12500000000E+03 0.  0.
</event>
<event>
 5    0  0.5539899E-005  0.4383580E+03  0.7546771E-02  0.1031252E+00
         21   -1    0    0  502  501  0.00000000000E+00  0.00000000000E+00  0.10779966572E+03  0.10779966572E+03  0.00000000000E+00 0.  1.
         21   -1    0    0  501  502 -0.00000000000E+00 -0.00000000000E+00 -0.17825445297E+04  0.17825445297E+04  0.00000000000E+00 0.  1.
         25    1    1    2    0    0 -0.15440802333E+03 -0.16694402529E+03 -0.20562206172E+03  0.33108545350E+03  0.12500000000E+03 0.  0.
         25    1    1    2    0    0 -0.21608843741E+02  0.25814555336E+03 -0.77645420505E+03  0.82801702965E+03  0.12500000000E+03 0.  0.
         25    1    1    2    0    0  0.17601686707E+03 -0.91201528072E+02 -0.69266859722E+03  0.73124171229E+03  0.12500000000E+03 0.  0.
</event>
<event>
 5    0  0.5539899E-005  0.2572211E+03  0.7546771E-02  0.1108824E+00
         21   -1    0    0  502  501  0.00000000000E+00  0.00000000000E+00  0.43133166341E+03  0.43133166341E+03  0.00000000000E+00 0. -1.
         21   -1    0    0  501  502 -0.00000000000E+00 -0.00000000000E+00 -0.15339169433E+03  0.15339169433E+03  0.00000000000E+00 0. -1.
         25    1    1    2    0    0  0.73144453046E+02 -0.39604883720E+02  0.77588395478E+02  0.16900774224E+03  0.12500000000E+03 0.  0.
         25    1    1    2    0    0 -0.64970981891E+02  0.47106859188E+00 -0.35971648692E+02  0.14539742055E+03  0.12500000000E+03 0.  0.
         25    1    1    2    0    0 -0.81734711552E+01  0.39133815128E+02  0.23632322230E+03  0.27031819494E+03  0.12500000000E+03 0.  0.
</event>
<event>
 5    0  0.5539899E-005  0.4968423E+03  0.7546771E-02  0.1014606E+00
         21   -1    0    0  502  501  0.00000000000E+00  0.00000000000E+00  0.44580141672E+03  0.44580141672E+03  0.00000000000E+00 0.  1.
         21   -1    0    0  501  502 -0.00000000000E+00 -0.00000000000E+00 -0.55372700286E+03  0.55372700286E+03  0.00000000000E+00 0.  1.
         25    1    1    2    0    0 -0.76717368276E+02  0.19829960516E+02  0.37448968838E+03  0.40267394829E+03  0.12500000000E+03 0.  0.
         25    1    1    2    0    0  0.34690368513E+02  0.59109112039E+02 -0.39522540703E+03  0.42014929627E+03  0.12500000000E+03 0.  0.
         25    1    1    2    0    0  0.42026999762E+02 -0.78939072555E+02 -0.87189867493E+02  0.17670517502E+03  0.12500000000E+03 0.  0.
</event>
<event>
 5    0  0.5539899E-005  0.2616903E+03  0.7546771E-02  0.1106132E+00
         21   -1    0    0  502  501  0.00000000000E+00  0.00000000000E+00  0.29415780538E+03  0.29415780538E+03  0.00000000000E+00 0.  1.
         21   -1    0    0  501  502 -0.00000000000E+00 -0.00000000000E+00 -0.23280643870E+03  0.23280643870E+03  0.00000000000E+00 0.  1.
         25    1    1    2    0    0  0.67117809946E+02  0.49144099607E+02  0.45549698650E+02  0.15690671746E+03  0.12500000000E+03 0.  0.
         25    1    1    2    0    0  0.23623814652E+02  0.68816456036E+02 -0.66260127165E+02  0.15908863470E+03  0.12500000000E+03 0.  0.
         25    1    1    2    0    0 -0.90741624598E+02 -0.11796055564E+03  0.82061795198E+02  0.21096889191E+03  0.12500000000E+03 0.  0.
</event>
<event>
 5    0  0.5539899E-005  0.3303063E+03  0.7546771E-02  0.1071001E+00
         21   -1    0    0  502  501  0.00000000000E+00  0.00000000000E+00  0.45167250472E+02  0.45167250472E+02  0.00000000000E+00 0. -1.
         21   -1    0    0  501  502 -0.00000000000E+00 -0.00000000000E+00 -0.24155167154E+04  0.24155167154E+04  0.00000000000E+00 0. -1.
         25    1    1    2    0    0  0.17031295957E+03 -0.68022054876E+02 -0.11484361877E+04  0.11696855054E+04  0.12500000000E+03 0.  0.
         25    1    1    2    0    0 -0.96326513046E+02  0.17368281725E+03 -0.75937627634E+03  0.79480931499E+03  0.12500000000E+03 0.  0.
         25    1    1    2    0    0 -0.73986446529E+02 -0.10566076237E+03 -0.46253700080E+03  0.49618914547E+03  0.12500000000E+03 0.  0.
</event>
<event>
 5    0  0.5539899E-005  0.8344489E+03  0.7546771E-02  0.9511450E-01
         21   -1    0    0  502  501  0.00000000000E+00  0.00000000000E+00  0.77017747282E+03  0.77017747282E+03  0.00000000000E+00 0.  1.
         21   -1    0    0  501  502 -0.00000000000E+00 -0.00000000000E+00 -0.90408381676E+03  0.90408381676E+03  0.00000000000E+00 0.  1.
         25    1    1    2    0    0 -0.27023133941E+03 -0.63174563893E+02  0.28690841012E+03  0.41827913899E+03  0.12500000000E+03 0.  0.
         25    1    1    2    0    0  0.22482881646E+01 -0.25282360079E+03  0.30218145164E+03  0.41335633252E+03  0.12500000000E+03 0.  0.
         25    1    1    2    0    0  0.26798305124E+03  0.31599816468E+03 -0.72299620569E+03  0.84262581807E+03  0.12500000000E+03 0.  0.
</event>
<event>
 5    0  0.6159188E-005  0.2898992E+03  0.7546771E-02  0.1090402E+00
         21   -1    0    0  502  501  0.00000000000E+00  0.00000000000E+00  0.37560795813E+03  0.37560795813E+03  0.00000000000E+00 0. -1.
         21   -1    0    0  501  502 -0.00000000000E+00 -0.00000000000E+00 -0.22374809333E+03  0.22374809333E+03  0.00000000000E+00 0. -1.
         25    1    1    2    0    0  0.32146961503E+01  0.11072652863E+02  0.11692604551E+03  0.17155068648E+03  0.12500000000E+03 0.  0.
         25    1    1    2    0    0 -0.84493156245E+02  0.12823552216E+03  0.88423202460E+02  0.21685733866E+03  0.12500000000E+03 0.  0.
         25    1    1    2    0    0  0.81278460094E+02 -0.13930817502E+03 -0.53489383167E+02  0.21094802633E+03  0.12500000000E+03 0.  0.
</event>
<event>
 5    0  0.5539899E-005  0.2547508E+03  0.7546771E-02  0.1110339E+00
         21   -1    0    0  502  501  0.00000000000E+00  0.00000000000E+00  0.22795948905E+04  0.22795948905E+04  0.00000000000E+00 0.  1.
         21   -1    0    0  501  502 -0.00000000000E+00 -0.00000000000E+00 -0.28469084382E+02  0.28469084382E+02  0.00000000000E+00 0.  1.
         25    1    1    2    0    0 -0.28885244803E+01 -0.12994606583E+03  0.62687664058E+03  0.65229873992E+03  0.12500000000E+03 0.  0.
         25    1    1    2    0    0 -0.74666063599E+02  0.60376212938E+02  0.72881300356E+03  0.74566326334E+03  0.12500000000E+03 0.  0.
         25    1    1    2    0    0  0.77554588079E+02  0.69569852889E+02  0.89543616196E+03  0.91010197160E+03  0.12500000000E+03 0.  0.
</event>
<event>
 5    0  0.5539899E-005  0.2580406E+03  0.7546771E-02  0.1108326E+00
         21   -1    0    0  502  501  0.00000000000E+00  0.00000000000E+00  0.26582124625E+03  0.26582124625E+03  0.00000000000E+00 0.  1.
         21   -1    0    0  501  502 -0.00000000000E+00 -0.00000000000E+00 -0.25048777890E+03  0.25048777890E+03  0.00000000000E+00 0.  1.
         25    1    1    2    0    0  0.12352707556E+02 -0.16429328258E+03  0.22038944294E+02  0.20797977582E+03  0.12500000000E+03 0.  0.
         25    1    1    2    0    0  0.26621361735E+02  0.10060145729E+03 -0.43265040585E+01  0.16270546625E+03  0.12500000000E+03 0.  0.
         25    1    1    2    0    0 -0.38974069291E+02  0.63691825289E+02 -0.23789728879E+01  0.14562378308E+03  0.12500000000E+03 0.  0.
</event>
<event>
 5    0  0.5539899E-005  0.4074445E+03  0.7546771E-02  0.1041232E+00
         21   -1    0    0  502  501  0.00000000000E+00  0.00000000000E+00  0.11256944908E+03  0.11256944908E+03  0.00000000000E+00 0.  1.
         21   -1    0    0  501  502 -0.00000000000E+00 -0.00000000000E+00 -0.14747434313E+04  0.14747434313E+04  0.00000000000E+00 0.  1.
         25    1    1    2    0    0 -0.33767520032E+02 -0.13095715936E+03 -0.66692643551E+02  0.19586457490E+03  0.12500000000E+03 0.  0.
         25    1    1    2    0    0 -0.10986167105E+03 -0.37726876286E+02 -0.18283273310E+03  0.25009140779E+03  0.12500000000E+03 0.  0.
         25    1    1    2    0    0  0.14362919108E+03  0.16868403564E+03 -0.11126486055E+04  0.11413568976E+04  0.12500000000E+03 0.  0.
</event>
<event>
 5    0  0.5539899E-005  0.5390640E+03  0.7546771E-02  0.1004057E+00
         21   -1    0    0  502  501  0.00000000000E+00  0.00000000000E+00  0.81814391148E+03  0.81814391148E+03  0.00000000000E+00 0.  1.
         21   -1    0    0  501  502 -0.00000000000E+00 -0.00000000000E+00 -0.35518202309E+03  0.35518202309E+03  0.00000000000E+00 0.  1.
         25    1    1    2    0    0 -0.75255930393E+02 -0.12417789851E+03 -0.41847875951E+02  0.19611183101E+03  0.12500000000E+03 0.  0.
         25    1    1    2    0    0  0.12315113223E+03  0.19104896917E+03 -0.15396716400E+03  0.30165675458E+03  0.12500000000E+03 0.  0.
         25    1    1    2    0    0 -0.47895201834E+02 -0.66871070659E+02  0.65877692834E+03  0.67555734898E+03  0.12500000000E+03 0.  0.
</event>
<event>
 5    0  0.5539899E-005  0.3959124E+03  0.7546771E-02  0.1045204E+00
         21   -1    0    0  502  501  0.00000000000E+00  0.00000000000E+00  0.33015097433E+03  0.33015097433E+03  0.00000000000E+00 0. -1.
         21   -1    0    0  501  502 -0.00000000000E+00 -0.00000000000E+00 -0.47477267641E+03  0.47477267641E+03  0.00000000000E+00 0. -1.
         25    1    1    2    0    0 -0.59103164073E+02 -0.59598824306E+02 -0.16210071175E+03  0.22123933785E+03  0.12500000000E+03 0.  0.
         25    1    1    2    0    0 -0.17657888311E+03 -0.13108067193E+03  0.34643044880E+02  0.25531820357E+03  0.12500000000E+03 0.  0.
         25    1    1    2    0    0  0.23568204718E+03  0.19067949624E+03 -0.17164035201E+02  0.32836610932E+03  0.12500000000E+03 0.  0.
</event>
<event>
 5    0  0.5539899E-005  0.2589634E+03  0.7546771E-02  0.1107768E+00
         21   -1    0    0  502  501  0.00000000000E+00  0.00000000000E+00  0.14124084664E+03  0.14124084664E+03  0.00000000000E+00 0. -1.
         21   -1    0    0  501  502 -0.00000000000E+00 -0.00000000000E+00 -0.47480618025E+03  0.47480618025E+03  0.00000000000E+00 0. -1.
         25    1    1    2    0    0  0.85684452443E+02  0.46849711051E+02 -0.49105729999E+02  0.16605147857E+03  0.12500000000E+03 0.  0.
         25    1    1    2    0    0  0.56662893022E+01 -0.22476804518E+02 -0.26259245868E+03  0.29174837263E+03  0.12500000000E+03 0.  0.
         25    1    1    2    0    0 -0.91350741745E+02 -0.24372906533E+02 -0.21867144931E+02  0.15824717570E+03  0.12500000000E+03 0.  0.
</event>
<event>
 5    0  0.5539899E-005  0.3167091E+03  0.7546771E-02  0.1077174E+00
         21   -1    0    0  502  501  0.00000000000E+00  0.00000000000E+00  0.47339987347E+02  0.47339987347E+02  0.00000000000E+00 0. -1.
         21   -1    0    0  501  502 -0.00000000000E+00 -0.00000000000E+00 -0.21188141394E+04  0.21188141394E+04  0.00000000000E+00 0. -1.
         25    1    1    2    0    0  0.22010123269E+03  0.38198755954E+02 -0.54910255990E+03  0.60584017602E+03  0.12500000000E+03 0.  0.
         25    1    1    2    0    0 -0.13307427850E+03 -0.85887945288E+01 -0.94138980567E+03  0.95896939326E+03  0.12500000000E+03 0.  0.
         25    1    1    2    0    0 -0.87026954194E+02 -0.29609961426E+02 -0.58098178651E+03  0.60134455749E+03  0.12500000000E+03 0.  0.
</event>
<event>
 5    0  0.5539899E-005  0.4019610E+03  0.7546771E-02  0.1043103E+00
         21   -1    0    0  502  501  0.00000000000E+00  0.00000000000E+00  0.11341335034E+04  0.11341335034E+04  0.00000000000E+00 0. -1.
         21   -1    0    0  501  502 -0.00000000000E+00 -0.00000000000E+00 -0.14246354661E+03  0.14246354661E+03  0.00000000000E+00 0. -1.
         25    1    1    2    0    0  0.95604957795E+02 -0.26030679514E+02  0.10500065451E+03  0.19096607468E+03  0.12500000000E+03 0.  0.
         25    1    1    2    0    0  0.96981012138E+02  0.27886205758E+02 -0.90977252878E+01  0.16090595325E+03  0.12500000000E+03 0.  0.
         25    1    1    2    0    0 -0.19258596993E+03 -0.18555262438E+01  0.89576702755E+03  0.92472502206E+03  0.12500000000E+03 0.  0.
</event>
<event>
 5    0  0.5856621E-005  0.2815654E+03  0.7546771E-02  0.1094837E+00
         21   -1    0    0  502  501  0.00000000000E+00  0.00000000000E+00  0.16373955349E+03  0.16373955349E+03  0.00000000000E+00 0.  1.
         21   -1    0    0  501  502 -0.00000000000E+00 -0.00000000000E+00 -0.48417801458E+03  0.48417801458E+03  0.00000000000E+00 0.  1.
         25    1    1    2    0    0 -0.15854553636E+03 -0.32844215220E+02 -0.33855691887E+02  0.20733219105E+03  0.12500000000E+03 0.  0.
         25    1    1    2    0    0  0.92505215768E+02  0.82191071429E+02 -0.10355803273E+03  0.20411235463E+03  0.12500000000E+03 0.  0.
         25    1    1    2    0    0  0.66040320588E+02 -0.49346856208E+02 -0.18302473647E+03  0.23647302240E+03  0.12500000000E+03 0.  0.
</event>
<event>
 5    0  0.5539899E-005  0.4335979E+03  0.7546771E-02  0.1032729E+00
         21   -1    0    0  502  501  0.00000000000E+00  0.00000000000E+00  0.81159698762E+02  0.81159698762E+02  0.00000000000E+00 0.  1.
         21   -1    0    0  501  502 -0.00000000000E+00 -0.00000000000E+00 -0.23165085904E+04  0.23165085904E+04  0.00000000000E+00 0.  1.
         25    1    1    2    0    0  0.83071256880E+02 -0.26967060211E+03 -0.42762828412E+03  0.52736516451E+03  0.12500000000E+03 0.  0.
         25    1    1    2    0    0 -0.26868463904E+02  0.30264744427E+03 -0.10726480433E+04  0.11218360908E+04  0.12500000000E+03 0.  0.
         25    1    1    2    0    0 -0.56202792977E+02 -0.32976842158E+02 -0.73507256418E+03  0.74846703378E+03  0.12500000000E+03 0.  0.
</event>
<event>
 5    0  0.5539899E-005  0.2001746E+03  0.7546771E-02  0.1149592E+00
         21   -1    0    0  502  501  0.00000000000E+00  0.00000000000E+00  0.48805264086E+03  0.48805264086E+03  0.00000000000E+00 0. -1.
         21   -1    0    0  501  502 -0.00000000000E+00 -0.00000000000E+00 -0.82101494662E+02  0.82101494662E+02  0.00000000000E+00 0. -1.
         25    1    1    2    0    0 -0.10010745341E+02  0.29891307381E+02  0.15931214362E+03  0.20493673263E+03  0.12500000000E+03 0.  0.
         25    1    1    2    0    0 -0.26203673491E+02 -0.50936672825E+02  0.12338289468E+03  0.18474175447E+03  0.12500000000E+03 0.  0.
         25    1    1    2    0    0  0.36214418832E+02  0.21045365444E+02  0.12325610789E+03  0.18047564842E+03  0.12500000000E+03 0.  0.
</event>
<event>
 5    0  0.5539899E-005  0.2493437E+03  0.7546771E-02  0.1113720E+00
         21   -1    0    0  502  501  0.00000000000E+00  0.00000000000E+00  0.34431295344E+02  0.34431295344E+02  0.00000000000E+00 0.  1.
         21   -1    0    0  501  502 -0.00000000000E+00 -0.00000000000E+00 -0.18056916953E+04  0.18056916953E+04  0.00000000000E+00 0.  1.
         25    1    1    2    0    0  0.89894336769E+01 -0.89471092923E+01 -0.63557363741E+03  0.64787322004E+03  0.12500000000E+03 0.  0.
         25    1    1    2    0    0  0.77708217852E+02  0.10663251898E+03 -0.59480657623E+03  0.62195572539E+03  0.12500000000E+03 0.  0.
         25    1    1    2    0    0 -0.86697651529E+02 -0.97685409690E+02 -0.54088018637E+03  0.57029404526E+03  0.12500000000E+03 0.  0.
</event>
<event>
 5    0  0.5539899E-005  0.2016770E+03  0.7546771E-02  0.1148332E+00
         21   -1    0    0  502  501  0.00000000000E+00  0.00000000000E+00  0.66007791034E+02  0.66007791034E+02  0.00000000000E+00 0. -1.
         21   -1    0    0  501  502 -0.00000000000E+00 -0.00000000000E+00 -0.61619422167E+03  0.61619422167E+03  0.00000000000E+00 0. -1.
         25    1    1    2    0    0 -0.30630842578E+02 -0.40107247024E+02 -0.25355872173E+03  0.28716522273E+03  0.12500000000E+03 0.  0.
         25    1    1    2    0    0 -0.59831937084E+01  0.69395946952E+01 -0.12465887072E+03  0.17677327465E+03  0.12500000000E+03 0.  0.
         25    1    1    2    0    0  0.36614036286E+02  0.33167652329E+02 -0.17196883819E+03  0.21826351533E+03  0.12500000000E+03 0.  0.
</event>
<event>
 5    0  0.5539899E-005  0.2830473E+03  0.7546771E-02  0.1094036E+00
         21   -1    0    0  502  501  0.00000000000E+00  0.00000000000E+00  0.29931464128E+03  0.29931464128E+03  0.00000000000E+00 0. -1.
         21   -1    0    0  501  502 -0.00000000000E+00 -0.00000000000E+00 -0.26766410277E+03  0.26766410277E+03  0.00000000000E+00 0. -1.
         25    1    1    2    0    0  0.15930729061E+03  0.54107491669E+02  0.21668812073E+02  0.21071537892E+03  0.12500000000E+03 0.  0.
         25    1    1    2    0    0 -0.14845474125E+03  0.31382313883E+02  0.42164521065E+02  0.20106343939E+03  0.12500000000E+03 0.  0.
         25    1    1    2    0    0 -0.10852549360E+02 -0.85489805552E+02 -0.32182794630E+02  0.15519992574E+03  0.12500000000E+03 0.  0.
</event>
<event>
 5    0  0.5539899E-005  0.2961590E+03  0.7546771E-02  0.1087177E+00
         21   -1    0    0  502  501  0.00000000000E+00  0.00000000000E+00  0.47136580639E+02  0.47136580639E+02  0.00000000000E+00 0.  1.
         21   -1    0    0  501  502 -0.00000000000E+00 -0.00000000000E+00 -0.18607664925E+04  0.18607664925E+04  0.00000000000E+00 0.  1.
         25    1    1    2    0    0  0.14013671077E+02  0.15088998517E+03 -0.96337496043E+03  0.98319910750E+03  0.12500000000E+03 0.  0.
         25    1    1    2    0    0  0.84583972121E+02 -0.64898011183E+02 -0.26200522095E+03  0.30925383749E+03  0.12500000000E+03 0.  0.
         25    1    1    2    0    0 -0.98597643198E+02 -0.85991973986E+02 -0.58824973051E+03  0.61545012818E+03  0.12500000000E+03 0.  0.
</event>
<event>
 5    0  0.5550115E-005  0.3091045E+03  0.7546771E-02  0.1080776E+00
         21   -1    0    0  502  501  0.00000000000E+00  0.00000000000E+00  0.97437417451E+02  0.97437417451E+02  0.00000000000E+00 0. -1.
         21   -1    0    0  501  502 -0.00000000000E+00 -0.00000000000E+00 -0.98058422657E+03  0.98058422657E+03  0.00000000000E+00 0. -1.
         25    1    1    2    0    0  0.26819373662E+02  0.97193608944E+02 -0.97615798301E+02  0.18793541577E+03  0.12500000000E+03 0.  0.
         25    1    1    2    0    0 -0.84767158616E+02  0.97491372497E+02 -0.32121313791E+03  0.36809362784E+03  0.12500000000E+03 0.  0.
         25    1    1    2    0    0  0.57947784954E+02 -0.19468498144E+03 -0.46431787290E+03  0.52199260040E+03  0.12500000000E+03 0.  0.
</event>
<event>
 5    0  0.5539899E-005  0.4321985E+03  0.7546771E-02  0.1033168E+00
         21   -1    0    0  502  501  0.00000000000E+00  0.00000000000E+00  0.44064978941E+03  0.44064978941E+03  0.00000000000E+00 0.  1.
         21   -1    0    0  501  502 -0.00000000000E+00 -0.00000000000E+00 -0.42390934023E+03  0.42390934023E+03  0.00000000000E+00 0.  1.
         25    1    1    2    0    0 -0.10562000327E+03 -0.16369909107E+03  0.17375813903E+03  0.28943024788E+03  0.12500000000E+03 0.  0.
         25    1    1    2    0    0  0.27512549004E+03  0.12973968454E+03 -0.15058461477E+03  0.36170035557E+03  0.12500000000E+03 0.  0.
         25    1    1    2    0    0 -0.16950548677E+03  0.33959406531E+02 -0.64330750758E+01  0.21342852619E+03  0.12500000000E+03 0.  0.
</event>
<event>
 5    0  0.5539899E-005  0.3093900E+03  0.7546771E-02  0.1080639E+00
         21   -1    0    0  502  501  0.00000000000E+00  0.00000000000E+00  0.67968976869E+03  0.67968976869E+03  0.00000000000E+00 0.  1.
         21   -1    0    0  501  502 -0.00000000000E+00 -0.00000000000E+00 -0.14083218481E+03  0.14083218481E+03  0.00000000000E+00 0.  1.
         25    1    1    2    0    0  0.29306222354E+02 -0.92102795197E+02  0.95859313653E+02  0.18481284470E+03  0.12500000000E+03 0.  0.
         25    1    1    2    0    0 -0.16199355427E+03 -0.28123947397E+02  0.10092600290E+03  0.22987806790E+03  0.12500000000E+03 0.  0.
         25    1    1    2    0    0  0.13268733192E+03  0.12022674259E+03  0.34207226733E+03  0.40583104090E+03  0.12500000000E+03 0.  0.
</event>
<event>
 5    0  0.5539899E-005  0.3352746E+03  0.7546771E-02  0.1068827E+00
         21   -1    0    0  502  501  0.00000000000E+00  0.00000000000E+00  0.46839140004E+03  0.46839140004E+03  0.00000000000E+00 0. -1.
         21   -1    0    0  501  502 -0.00000000000E+00 -0.00000000000E+00 -0.23998965579E+03  0.23998965579E+03  0.00000000000E+00 0. -1.
         25    1    1    2    0    0  0.13793481158E+03  0.67221543451E+02 -0.39361460416E+02  0.20178967445E+03  0.12500000000E+03 0.  0.
         25    1    1    2    0    0 -0.10363559685E+03 -0.86743418795E+01 -0.40086514971E+02  0.16747390789E+03  0.12500000000E+03 0.  0.
         25    1    1    2    0    0 -0.34299214730E+02 -0.58547201571E+02  0.30784971963E+03  0.33911747348E+03  0.12500000000E+03 0.  0.
</event>
<event>
 5    0  0.5539899E-005  0.3167569E+03  0.7546771E-02  0.1077152E+00
         21   -1    0    0  502  501  0.00000000000E+00  0.00000000000E+00  0.90157330046E+03  0.90157330046E+03  0.00000000000E+00 0.  1.
         21   -1    0    0  501  502 -0.00000000000E+00 -0.00000000000E+00 -0.11128869951E+03  0.11128869951E+03  0.00000000000E+00 0.  1.
         25    1    1    2    0    0 -0.82782241388E+01 -0.68691684419E+02  0.21960186148E+01  0.14288771466E+03  0.12500000000E+03 0.  0.
         25    1    1    2    0    0  0.82611032096E+01 -0.98005188302E+02  0.37414946871E+03  0.40655391733E+03  0.12500000000E+03 0.  0.
         25    1    1    2    0    0  0.17120929203E-01  0.16669687272E+03  0.41393911362E+03  0.46342036798E+03  0.12500000000E+03 0.  0.
</event>
<event>
 5    0  0.5539899E-005  0.4872791E+03  0.7546771E-02  0.1017154E+00
         21   -1    0    0  502  501  0.00000000000E+00  0.00000000000E+00  0.44012720653E+03  0.44012720653E+03  0.00000000000E+00 0.  1.
         21   -1    0    0  501  502 -0.00000000000E+00 -0.00000000000E+00 -0.53948244468E+03  0.53948244468E+03  0.00000000000E+00 0.  1.
         25    1    1    2    0    0 -0.14028784659E+03 -0.35127422501E+02 -0.90273354367E+02  0.21139747922E+03  0.12500000000E+03 0.  0.
         25    1    1    2    0    0  0.26180685769E+03  0.15694805816E+03 -0.27377294623E+03  0.42866321254E+03  0.12500000000E+03 0.  0.
         25    1    1    2    0    0 -0.12151901110E+03 -0.12182063566E+03  0.26469106244E+03  0.33954895946E+03  0.12500000000E+03 0.  0.
</event>
<event>
 5    0  0.5539899E-005  0.2395471E+03  0.7546771E-02  0.1120095E+00
         21   -1    0    0  502  501  0.00000000000E+00  0.00000000000E+00  0.12200143983E+03  0.12200143983E+03  0.00000000000E+00 0.  1.
         21   -1    0    0  501  502 -0.00000000000E+00 -0.00000000000E+00 -0.47034551622E+03  0.47034551622E+03  0.00000000000E+00 0.  1.
         25    1    1    2    0    0  0.53026481267E+02  0.83919062858E+02 -0.14224625626E+03  0.21380648785E+03  0.12500000000E+03 0.  0.
         25    1    1    2    0    0  0.30754115692E+02 -0.10427489696E+03 -0.10839709787E+03  0.19797474737E+03  0.12500000000E+03 0.  0.
         25    1    1    2    0    0 -0.83780596959E+02  0.20355834103E+02 -0.97700722261E+02  0.18056572083E+03  0.12500000000E+03 0.  0.
</event>
<event>
 5    0  0.5539899E-005  0.5553912E+03  0.7546771E-02  0.1000254E+00
         21   -1    0    0  502  501  0.00000000000E+00  0.00000000000E+00  0.41327892997E+03  0.41327892997E+03  0.00000000000E+00 0. -1.
         21   -1    0    0  501  502 -0.00000000000E+00 -0.00000000000E+00 -0.74637096567E+03  0.74637096567E+03  0.00000000000E+00 0. -1.
         25    1    1    2    0    0  0.24708154137E+03  0.18980737711E+03  0.60498904444E+02  0.34111764236E+03  0.12500000000E+03 0.  0.
         25    1    1    2    0    0  0.99052015942E+02  0.12764918431E+03 -0.22549512485E+03  0.30426742752E+03  0.12500000000E+03 0.  0.
         25    1    1    2    0    0 -0.34613355732E+03 -0.31745656142E+03 -0.16809581529E+03  0.51426482575E+03  0.12500000000E+03 0.  0.
</event>
<event>
 5    0  0.5539899E-005  0.3022264E+03  0.7546771E-02  0.1084133E+00
         21   -1    0    0  502  501  0.00000000000E+00  0.00000000000E+00  0.30703859073E+03  0.30703859073E+03  0.00000000000E+00 0. -1.
         21   -1    0    0  501  502 -0.00000000000E+00 -0.00000000000E+00 -0.29748958070E+03  0.29748958070E+03  0.00000000000E+00 0. -1.
         25    1    1    2    0    0 -0.96466980507E+02  0.40932429969E+02 -0.83170243662E+00  0.16311662662E+03  0.12500000000E+03 0.  0.
         25    1    1    2    0    0  0.10004725902E+03 -0.74720265794E+02 -0.15243437716E+03  0.23335340473E+03  0.12500000000E+03 0.  0.
         25    1    1    2    0    0 -0.35802785168E+01  0.33787835825E+02  0.16281508963E+03  0.20805814008E+03  0.12500000000E+03 0.  0.
</event>
<event>
 5    0  0.5539899E-005  0.3164359E+03  0.7546771E-02  0.1077301E+00
         21   -1    0    0  502  501  0.00000000000E+00  0.00000000000E+00  0.86140437675E+02  0.86140437675E+02  0.00000000000E+00 0.  1.
         21   -1    0    0  501  502 -0.00000000000E+00 -0.00000000000E+00 -0.11624235914E+04  0.11624235914E+04  0.00000000000E+00 0.  1.
         25    1    1    2    0    0 -0.76594980054E+02  0.18870826573E+03 -0.70488616904E+03  0.74428966930E+03  0.12500000000E+03 0.  0.
         25    1    1    2    0    0  0.34259192599E+02 -0.97775942400E+02 -0.26865327282E+03  0.31390031568E+03  0.12500000000E+03 0.  0.
         25    1    1    2    0    0  0.42335787455E+02 -0.90932323333E+02 -0.10274371182E+03  0.19037404404E+03  0.12500000000E+03 0.  0.
</event>
<event>
 5    0  0.5539899E-005  0.2704310E+03  0.7546771E-02  0.1101033E+00
         21   -1    0    0  502  501  0.00000000000E+00  0.00000000000E+00  0.14585702971E+03  0.14585702971E+03  0.00000000000E+00 0. -1.
         21   -1    0    0  501  502 -0.00000000000E+00 -0.00000000000E+00 -0.50140143249E+03  0.50140143249E+03  0.00000000000E+00 0. -1.
         25    1    1    2    0    0  0.66320989403E+02 -0.30833079478E+01 -0.15131937740E+03  0.20719684940E+03  0.12500000000E+03 0.  0.
         25    1    1    2    0    0  0.57753743680E+01 -0.13739553220E+03 -0.12330227694E+03  0.22302317978E+03  0.12500000000E+03 0.  0.
         25    1    1    2    0    0 -0.72096363771E+02  0.14047884015E+03 -0.80922748440E+02  0.21703843304E+03  0.12500000000E+03 0.  0.
</event>
<event>
 5    0  0.5539899E-005  0.2683599E+03  0.7546771E-02  0.1102222E+00
         21   -1    0    0  502  501  0.00000000000E+00  0.00000000000E+00  0.97722341443E+02  0.97722341443E+02  0.00000000000E+00 0.  1.
         21   -1    0    0  501  502 -0.00000000000E+00 -0.00000000000E+00 -0.73695588119E+03  0.73695588119E+03  0.00000000000E+00 0.  1.
         25    1    1    2    0    0  0.45714842180E+02  0.84235047248E+01 -0.83242711729E+01  0.13362296104E+03  0.12500000000E+03 0.  0.
         25    1    1    2    0    0  0.52755348196E+01 -0.19247505771E+02 -0.12718352121E+03  0.17944064705E+03  0.12500000000E+03 0.  0.
         25    1    1    2    0    0 -0.50990377000E+02  0.10824001046E+02 -0.50372574736E+03  0.52161461454E+03  0.12500000000E+03 0.  0.
</event>
<event>
 5    0  0.5539899E-005  0.2866646E+03  0.7546771E-02  0.1092104E+00
         21   -1    0    0  502  501  0.00000000000E+00  0.00000000000E+00  0.13216179915E+03  0.13216179915E+03  0.00000000000E+00 0. -1.
         21   -1    0    0  501  502 -0.00000000000E+00 -0.00000000000E+00 -0.62178786083E+03  0.62178786083E+03  0.00000000000E+00 0. -1.
         25    1    1    2    0    0 -0.14089686998E+03 -0.54312648636E+02 -0.24375413939E+03  0.31279845307E+03  0.12500000000E+03 0.  0.
         25    1    1    2    0    0  0.38862631668E+02 -0.16232301089E+02 -0.22895948499E+03  0.26423708579E+03  0.12500000000E+03 0.  0.
         25    1    1    2    0    0  0.10203423831E+03  0.70544949725E+02 -0.16912437294E+02  0.17691412113E+03  0.12500000000E+03 0.  0.
</event>
<event>
 5    0  0.5539899E-005  0.5183094E+03  0.7546771E-02  0.1009107E+00
         21   -1    0    0  502  501  0.00000000000E+00  0.00000000000E+00  0.10205310863E+04  0.10205310863E+04  0.00000000000E+00 0. -1.
         21   -1    0    0  501  502 -0.00000000000E+00 -0.00000000000E+00 -0.26324000710E+03  0.26324000710E+03  0.00000000000E+00 0. -1.
         25    1    1    2    0    0 -0.25154632572E+03 -0.13621018850E+03 -0.33606642600E+02  0.31397957873E+03  0.12500000000E+03 0.  0.
         25    1    1    2    0    0  0.22192656111E+03  0.97940865420E+02  0.78993995233E+03  0.83574753361E+03  0.12500000000E+03 0.  0.
         25    1    1    2    0    0  0.29619764614E+02  0.38269323080E+02  0.95776950438E+00  0.13404398109E+03  0.12500000000E+03 0.  0.
</event>
<event>
 5    0  0.5539899E-005  0.2478217E+03  0.7546771E-02  0.1114689E+00
         21   -1    0    0  502  501  0.00000000000E+00  0.00000000000E+00  0.18165766961E+03  0.18165766961E+03  0.00000000000E+00 0.  1.
         21   -1    0    0  501  502 -0.00000000000E+00 -0.00000000000E+00 -0.33808436071E+03  0.33808436071E+03  0.00000000000E+00 0.  1.
         25    1    1    2    0    0 -0.10231793278E+02 -0.12870342809E+03  0.17393466734E+02  0.18054582433E+03  0.12500000000E+03 0.  0.
         25    1    1    2    0    0  0.37224551980E+02  0.49722051867E+02 -0.10024882477E+03  0.17185103020E+03  0.12500000000E+03 0.  0.
         25    1    1    2    0    0 -0.26992758702E+02  0.78981376226E+02 -0.73571333055E+02  0.16734517579E+03  0.12500000000E+03 0.  0.
</event>
<event>
 5    0  0.5637418E-005  0.3200587E+03  0.7546771E-02  0.1075622E+00
         21   -1    0    0  502  501  0.00000000000E+00  0.00000000000E+00  0.52597177796E+03  0.52597177796E+03  0.00000000000E+00 0. -1.
         21   -1    0    0  501  502 -0.00000000000E+00 -0.00000000000E+00 -0.19475864717E+03  0.19475864717E+03  0.00000000000E+00 0. -1.
         25    1    1    2    0    0  0.14228172527E+03 -0.46417634523E+02  0.19562452486E+03  0.27621122510E+03  0.12500000000E+03 0.  0.
         25    1    1    2    0    0 -0.17184240883E+03  0.13977062312E+03  0.35474682805E+02  0.25680555617E+03  0.12500000000E+03 0.  0.
         25    1    1    2    0    0  0.29560683552E+02 -0.93352988597E+02  0.10011392311E+03  0.18771364387E+03  0.12500000000E+03 0.  0.
</event>
<event>
 5    0  0.5539899E-005  0.6368897E+03  0.7546771E-02  0.9831696E-01
         21   -1    0    0  502  501  0.00000000000E+00  0.00000000000E+00  0.13918099998E+04  0.13918099998E+04  0.00000000000E+00 0.  1.
         21   -1    0    0  501  502 -0.00000000000E+00 -0.00000000000E+00 -0.29143953526E+03  0.29143953526E+03  0.00000000000E+00 0.  1.
         25    1    1    2    0    0 -0.11216854498E+03  0.29592394998E+03  0.11245165237E+04  0.11748681538E+04  0.12500000000E+03 0.  0.
         25    1    1    2    0    0  0.17769423766E+03 -0.27624947573E+03 -0.70670643474E+02  0.35848061982E+03  0.12500000000E+03 0.  0.
         25    1    1    2    0    0 -0.65525692676E+02 -0.19674474249E+02  0.46524584273E+02  0.14990076144E+03  0.12500000000E+03 0.  0.
</event>
<event>
 5    0  0.5539899E-005  0.2551743E+03  0.7546771E-02  0.1110078E+00
         21   -1    0    0  502  501  0.00000000000E+00  0.00000000000E+00  0.42550982027E+03  0.42550982027E+03  0.00000000000E+00 0. -1.
         21   -1    0    0  501  502 -0.00000000000E+00 -0.00000000000E+00 -0.15302565839E+03  0.15302565839E+03  0.00000000000E+00 0. -1.
         25    1    1    2    0    0 -0.22107053819E+02  0.52478513545E+02  0.10146702198E+03  0.17077257614E+03  0.12500000000E+03 0.  0.
         25    1    1    2    0    0 -0.53144646782E+02  0.30240897813E+02  0.19371302567E+03  0.23851331555E+03  0.12500000000E+03 0.  0.
         25    1    1    2    0    0  0.75251700601E+02 -0.82719411359E+02 -0.22695885756E+02  0.16924958697E+03  0.12500000000E+03 0.  0.
</event>
<event>
 5    0  0.5539899E-005  0.2940525E+03  0.7546771E-02  0.1088252E+00
         21   -1    0    0  502  501  0.00000000000E+00  0.00000000000E+00  0.17480292553E+04  0.17480292553E+04  0.00000000000E+00 0.  1.
         21   -1    0    0  501  502 -0.00000000000E+00 -0.00000000000E+00 -0.49465346482E+02  0.49465346482E+02  0.00000000000E+00 0.  1.
         25    1    1    2    0    0  0.25235004147E+02  0.14800063103E+03  0.36535645474E+03  0.41430825630E+03  0.12500000000E+03 0.  0.
         25    1    1    2    0    0 -0.10902099541E+03 -0.14101078117E+03  0.80459697838E+03  0.83352919293E+03  0.12500000000E+03 0.  0.
         25    1    1    2    0    0  0.83785991259E+02 -0.69898498554E+01  0.52861047565E+03  0.54965715251E+03  0.12500000000E+03 0.  0.
</event>
<event>
 5    0  0.5539899E-005  0.3348249E+03  0.7546771E-02  0.1069022E+00
         21   -1    0    0  502  501  0.00000000000E+00  0.00000000000E+00  0.69150341894E+03  0.69150341894E+03  0.00000000000E+00 0. -1.
         21   -1    0    0  501  502 -0.00000000000E+00 -0.00000000000E+00 -0.16212173233E+03  0.16212173233E+03  0.00000000000E+00 0. -1.
         25    1    1    2    0    0  0.53576280797E+02 -0.17085131172E+03  0.41298795198E+03  0.46716660525E+03  0.12500000000E+03 0.  0.
         25    1    1    2    0    0  0.75184419477E+02  0.61029991693E+02  0.50171696238E+02  0.16589019236E+03  0.12500000000E+03 0.  0.
         25    1    1    2    0    0 -0.12876070027E+03  0.10982132003E+03  0.66222038391E+02  0.22056835366E+03  0.12500000000E+03 0.  0.
</event>
<event>
 5    0  0.5539899E-005  0.2994353E+03  0.7546771E-02  0.1085523E+00
         21   -1    0    0  502  501  0.00000000000E+00  0.00000000000E+00  0.10912560630E+03  0.10912560630E+03  0.00000000000E+00 0.  1.
         21   -1    0    0  501  502 -0.00000000000E+00 -0.00000000000E+00 -0.82163555750E+03  0.82163555750E+03  0.00000000000E+00 0.  1.
         25    1    1    2    0    0 -0.10552720152E+03  0.91990487579E+02 -0.13891170541E+03  0.23349454376E+03  0.12500000000E+03 0.  0.
         25    1    1    2    0    0 -0.13061780187E+01 -0.16825704202E+03 -0.24893440568E+03  0.32543121642E+03  0.12500000000E+03 0.  0.
         25    1    1    2    0    0  0.10683337953E+03  0.76266554441E+02 -0.32466384011E+03  0.37183540362E+03  0.12500000000E+03 0.  0.
</event>
<event>
 5    0  0.5539899E-005  0.6460778E+03  0.7546771E-02  0.9814167E-01
         21   -1    0    0  502  501  0.00000000000E+00  0.00000000000E+00  0.27195648779E+03  0.27195648779E+03  0.00000000000E+00 0.  1.
         21   -1    0    0  501  502 -0.00000000000E+00 -0.00000000000E+00 -0.15348652452E+04  0.15348652452E+04  0.00000000000E+00 0.  1.
         25    1    1    2    0    0 -0.11928015610E+03  0.11392986060E+03 -0.36167742458E+03  0.41670532541E+03  0.12500000000E+03 0.  0.
         25    1    1    2    0    0 -0.39007225189E+03  0.18926903614E+03 -0.41988861355E+03  0.61636886483E+03  0.12500000000E+03 0.  0.
         25    1    1    2    0    0  0.50935240799E+03 -0.30319889674E+03 -0.48134271926E+03  0.77374754274E+03  0.12500000000E+03 0.  0.
</event>
<event>
 5    0  0.5539899E-005  0.6291545E+03  0.7546771E-02  0.9846700E-01
         21   -1    0    0  502  501  0.00000000000E+00  0.00000000000E+00  0.14777551746E+04  0.14777551746E+04  0.00000000000E+00 0. -1.
         21   -1    0    0  501  502 -0.00000000000E+00 -0.00000000000E+00 -0.26786262778E+03  0.26786262778E+03  0.00000000000E+00 0. -1.
         25    1    1    2    0    0 -0.11977893074E+03  0.10792106966E+03  0.41904775414E+03  0.46606863204E+03  0.12500000000E+03 0.  0.
         25    1    1    2    0    0 -0.21264400448E+03  0.30472390930E+03  0.10880874261E+03  0.40686419848E+03  0.12500000000E+03 0.  0.
         25    1    1    2    0    0  0.33242293522E+03 -0.41264497895E+03  0.68203605007E+03  0.87268497186E+03  0.12500000000E+03 0.  0.
</event>
<event>
 5    0  0.5539899E-005  0.2652439E+03  0.7546771E-02  0.1104033E+00
         21   -1    0    0  502  501  0.00000000000E+00  0.00000000000E+00  0.12895972479E+03  0.12895972479E+03  0.00000000000E+00 0. -1.
         21   -1    0    0  501  502 -0.00000000000E+00 -0.00000000000E+00 -0.54555285477E+03  0.54555285477E+03  0.00000000000E+00 0. -1.
         25    1    1    2    0    0 -0.47810085491E+02  0.12486246496E+03 -0.57724233614E+02  0.19192062572E+03  0.12500000000E+03 0.  0.
         25    1    1    2    0    0  0.62557706218E+02 -0.17235506455E+02 -0.24165132747E+03  0.27969786084E+03  0.12500000000E+03 0.  0.
         25    1    1    2    0    0 -0.14747620727E+02 -0.10762695851E+03 -0.11721756890E+03  0.20289409300E+03  0.12500000000E+03 0.  0.
</event>
<event>
 5    0  0.5539899E-005  0.3721712E+03  0.7546771E-02  0.1053866E+00
         21   -1    0    0  502  501  0.00000000000E+00  0.00000000000E+00  0.18192270979E+03  0.18192270979E+03  0.00000000000E+00 0. -1.
         21   -1    0    0  501  502 -0.00000000000E+00 -0.00000000000E+00 -0.76137509908E+03  0.76137509908E+03  0.00000000000E+00 0. -1.
         25    1    1    2    0    0 -0.19943797228E+03 -0.13228984391E+03 -0.42598536596E+03  0.50434575402E+03  0.12500000000E+03 0.  0.
         25    1    1    2    0    0  0.17027952667E+02 -0.30464274338E+02 -0.87649479170E+02  0.15660604836E+03  0.12500000000E+03 0.  0.
         25    1    1    2    0    0  0.18241001961E+03  0.16275411825E+03 -0.65817544168E+02  0.28234600649E+03  0.12500000000E+03 0.  0.
</event>
<event>
 5    0  0.5539899E-005  0.4188095E+03  0.7546771E-02  0.1037454E+00
         21   -1    0    0  502  501  0.00000000000E+00  0.00000000000E+00  0.13987321865E+04  0.13987321865E+04  0.00000000000E+00 0. -1.
         21   -1    0    0  501  502 -0.00000000000E+00 -0.00000000000E+00 -0.12540028446E+03  0.12540028446E+03  0.00000000000E+00 0. -1.
         25    1    1    2    0    0  0.67903024570E+02 -0.29888155802E+03  0.64102508169E+03  0.72144241754E+03  0.12500000000E+03 0.  0.
         25    1    1    2    0    0 -0.13948201406E+03  0.28965489532E+03  0.49609844097E+03  0.60422996761E+03  0.12500000000E+03 0.  0.
         25    1    1    2    0    0  0.71578989494E+02  0.92266627073E+01  0.13620837935E+03  0.19846008578E+03  0.12500000000E+03 0.  0.
</event>
<event>
 5    0  0.5539899E-005  0.3307113E+03  0.7546771E-02  0.1070823E+00
         21   -1    0    0  502  501  0.00000000000E+00  0.00000000000E+00  0.11540630487E+04  0.11540630487E+04  0.00000000000E+00 0. -1.
         21   -1    0    0  501  502 -0.00000000000E+00 -0.00000000000E+00 -0.94769467143E+02  0.94769467143E+02  0.00000000000E+00 0. -1.
         25    1    1    2    0    0  0.45703641706E+02  0.16811238377E+03  0.97577695881E+02  0.23557801930E+03  0.12500000000E+03 0.  0.
         25    1    1    2    0    0 -0.70681129010E+02 -0.92727461472E+02  0.51107080004E+03  0.53889940319E+03  0.12500000000E+03 0.  0.
         25    1    1    2    0    0  0.24977487303E+02 -0.75384922296E+02  0.45064508562E+03  0.47435509334E+03  0.12500000000E+03 0.  0.
</event>
<event>
 5    0  0.5539899E-005  0.4830702E+03  0.7546771E-02  0.1018295E+00
         21   -1    0    0  502  501  0.00000000000E+00  0.00000000000E+00  0.24174780002E+03  0.24174780002E+03  0.00000000000E+00 0. -1.
         21   -1    0    0  501  502 -0.00000000000E+00 -0.00000000000E+00 -0.96529020049E+03  0.96529020049E+03  0.00000000000E+00 0. -1.
         25    1    1    2    0    0  0.20608988549E+03  0.11210535899E+03 -0.65106944921E+03  0.70324752407E+03  0.12500000000E+03 0.  0.
         25    1    1    2    0    0 -0.33620781623E+01  0.29939089666E+02 -0.16704392198E+03  0.21079925173E+03  0.12500000000E+03 0.  0.
         25    1    1    2    0    0 -0.20272780733E+03 -0.14204444866E+03  0.94570970712E+02  0.29299122472E+03  0.12500000000E+03 0.  0.
</event>
<event>
 5    0  0.5539899E-005  0.2580467E+03  0.7546771E-02  0.1108323E+00
         21   -1    0    0  502  501  0.00000000000E+00  0.00000000000E+00  0.40583024650E+03  0.40583024650E+03  0.00000000000E+00 0. -1.
         21   -1    0    0  501  502 -0.00000000000E+00 -0.00000000000E+00 -0.16407871958E+03  0.16407871958E+03  0.00000000000E+00 0. -1.
         25    1    1    2    0    0 -0.43938110724E+02 -0.61849957796E+01  0.21910881475E+03  0.25612981952E+03  0.12500000000E+03 0.  0.
         25    1    1    2    0    0  0.48455993958E+02  0.87263949637E+02  0.36504680737E+02  0.16407489745E+03  0.12500000000E+03 0.  0.
         25    1    1    2    0    0 -0.45178832340E+01 -0.81078953857E+02 -0.13861968571E+02  0.14970424911E+03  0.12500000000E+03 0.  0.
</event>
<event>
 5    0  0.5539899E-005  0.2691647E+03  0.7546771E-02  0.1101759E+00
         21   -1    0    0  502  501  0.00000000000E+00  0.00000000000E+00  0.27024920242E+04  0.27024920242E+04  0.00000000000E+00 0.  1.
         21   -1    0    0  501  502 -0.00000000000E+00 -0.00000000000E+00 -0.26808450882E+02  0.26808450882E+02  0.00000000000E+00 0.  1.
         25    1    1    2    0    0 -0.13567831298E+03  0.91673445979E+02  0.85373077344E+03  0.87823337379E+03  0.12500000000E+03 0.  0.
         25    1    1    2    0    0  0.73996680366E+02 -0.98816291409E+02  0.12523760259E+04  0.12646386355E+04  0.12500000000E+03 0.  0.
         25    1    1    2    0    0  0.61681632610E+02  0.71428454308E+01  0.56957677396E+03  0.58642846578E+03  0.12500000000E+03 0.  0.
</event>
<event>
 5    0  0.5539899E-005  0.4241337E+03  0.7546771E-02  0.1035729E+00
         21   -1    0    0  502  501  0.00000000000E+00  0.00000000000E+00  0.16570248139E+03  0.16570248139E+03  0.00000000000E+00 0.  1.
         21   -1    0    0  501  502 -0.00000000000E+00 -0.00000000000E+00 -0.10856169567E+04  0.10856169567E+04  0.00000000000E+00 0.  1.
         25    1    1    2    0    0 -0.46333797900E+02 -0.17279319055E+03 -0.14707332244E+03  0.26317269938E+03  0.12500000000E+03 0.  0.
         25    1    1    2    0    0 -0.23416614995E+03  0.63641931594E+02 -0.46855486741E+03  0.54226630451E+03  0.12500000000E+03 0.  0.
         25    1    1    2    0    0  0.28049994785E+03  0.10915125895E+03 -0.30428628548E+03  0.44588043420E+03  0.12500000000E+03 0.  0.
</event>
<event>
 5    0  0.5539899E-005  0.3113993E+03  0.7546771E-02  0.1079677E+00
         21   -1    0    0  502  501  0.00000000000E+00  0.00000000000E+00  0.25122086565E+03  0.25122086565E+03  0.00000000000E+00 0. -1.
         21   -1    0    0  501  502 -0.00000000000E+00 -0.00000000000E+00 -0.38599310802E+03  0.38599310802E+03  0.00000000000E+00 0. -1.
         25    1    1    2    0    0  0.10538397131E+03  0.13120250301E+03  0.62835537431E+02  0.21884511183E+03  0.12500000000E+03 0.  0.
         25    1    1    2    0    0 -0.15783706755E+03 -0.10458567454E+03 -0.93535693256E+02  0.24540706820E+03  0.12500000000E+03 0.  0.
         25    1    1    2    0    0  0.52453096238E+02 -0.26616828470E+02 -0.10407208654E+03  0.17296179364E+03  0.12500000000E+03 0.  0.
</event>
<event>
 5    0  0.5539899E-005  0.3509510E+03  0.7546771E-02  0.1062225E+00
         21   -1    0    0  502  501  0.00000000000E+00  0.00000000000E+00  0.19005532767E+04  0.19005532767E+04  0.00000000000E+00 0.  1.
         21   -1    0    0  501  502 -0.00000000000E+00 -0.00000000000E+00 -0.64805666552E+02  0.64805666552E+02  0.00000000000E+00 0.  1.
         25    1    1    2    0    0 -0.18692055602E+02  0.73634619070E+02  0.11457690641E+03  0.18580720532E+03  0.12500000000E+03 0.  0.
         25    1    1    2    0    0 -0.46071713079E+02  0.66741901307E+02  0.22270106823E+03  0.26795120811E+03  0.12500000000E+03 0.  0.
         25    1    1    2    0    0  0.64763768681E+02 -0.14037652038E+03  0.14984696355E+04  0.15116005298E+04  0.12500000000E+03 0.  0.
</event>
<event>
 5    0  0.5539899E-005  0.3912143E+03  0.7546771E-02  0.1046865E+00
         21   -1    0    0  502  501  0.00000000000E+00  0.00000000000E+00  0.41430689545E+03  0.41430689545E+03  0.00000000000E+00 0.  1.
         21   -1    0    0  501  502 -0.00000000000E+00 -0.00000000000E+00 -0.36940878187E+03  0.36940878187E+03  0.00000000000E+00 0.  1.
         25    1    1    2    0    0  0.28224697662E+02 -0.12918765994E+03  0.27675518577E+03  0.33121672344E+03  0.12500000000E+03 0.  0.
         25    1    1    2    0    0 -0.75205719227E+02 -0.26130110825E+02 -0.19411131534E+03  0.24421892973E+03  0.12500000000E+03 0.  0.
         25    1    1    2    0    0  0.46981021564E+02  0.15531777076E+03 -0.37745756853E+02  0.20828002416E+03  0.12500000000E+03 0.  0.
</event>
<event>
 5    0  0.5539899E-005  0.3018271E+03  0.7546771E-02  0.1084331E+00
         21   -1    0    0  502  501  0.00000000000E+00  0.00000000000E+00  0.10948046197E+04  0.10948046197E+04  0.00000000000E+00 0.  1.
         21   -1    0    0  501  502 -0.00000000000E+00 -0.00000000000E+00 -0.83210823815E+02  0.83210823815E+02  0.00000000000E+00 0.  1.
         25    1    1    2    0    0  0.84575614575E+02  0.13042816152E+03  0.44793493849E+03  0.49034197150E+03  0.12500000000E+03 0.  0.
         25    1    1    2    0    0 -0.16526744388E+02 -0.12032256392E+03  0.96514412570E+02  0.19922521051E+03  0.12500000000E+03 0.  0.
         25    1    1    2    0    0 -0.68048870188E+02 -0.10105597602E+02  0.46714444486E+03  0.48844826154E+03  0.12500000000E+03 0.  0.
</event>
<event>
 5    0  0.5539899E-005  0.4894140E+03  0.7546771E-02  0.1016580E+00
         21   -1    0    0  502  501  0.00000000000E+00  0.00000000000E+00  0.38177598069E+03  0.38177598069E+03  0.00000000000E+00 0. -1.
         21   -1    0    0  501  502 -0.00000000000E+00 -0.00000000000E+00 -0.62739951600E+03  0.62739951600E+03  0.00000000000E+00 0. -1.
         25    1    1    2    0    0  0.27690580761E+03  0.23896785428E+03  0.31455941109E+02  0.38781044068E+03  0.12500000000E+03 0.  0.
         25    1    1    2    0    0 -0.33232639909E+03 -0.13462399331E+03 -0.22622819176E+03  0.44200525998E+03  0.12500000000E+03 0.  0.
         25    1    1    2    0    0  0.55420591484E+02 -0.10434386097E+03 -0.50851284655E+02  0.17935979603E+03  0.12500000000E+03 0.  0.
</event>
<event>
 5    0  0.5539899E-005  0.3080450E+03  0.7546771E-02  0.1081287E+00
         21   -1    0    0  502  501  0.00000000000E+00  0.00000000000E+00  0.24965357075E+03  0.24965357075E+03  0.00000000000E+00 0. -1.
         21   -1    0    0  501  502 -0.00000000000E+00 -0.00000000000E+00 -0.38009370277E+03  0.38009370277E+03  0.00000000000E+00 0. -1.
         25    1    1    2    0    0  0.83401686234E+02  0.10365756790E+02 -0.66975146712E+02  0.16484526216E+03  0.12500000000E+03 0.  0.
         25    1    1    2    0    0  0.26486634271E+02 -0.65763142431E+01 -0.20815646645E+03  0.24433359210E+03  0.12500000000E+03 0.  0.
         25    1    1    2    0    0 -0.10988832051E+03 -0.37894425468E+01  0.14469148114E+03  0.22056841926E+03  0.12500000000E+03 0.  0.
</event>
<event>
 5    0  0.5539899E-005  0.3686806E+03  0.7546771E-02  0.1055199E+00
         21   -1    0    0  502  501  0.00000000000E+00  0.00000000000E+00  0.46102100072E+03  0.46102100072E+03  0.00000000000E+00 0. -1.
         21   -1    0    0  501  502 -0.00000000000E+00 -0.00000000000E+00 -0.29483554480E+03  0.29483554480E+03  0.00000000000E+00 0. -1.
         25    1    1    2    0    0 -0.19205889547E+02 -0.16887770120E+03  0.24307440969E+03  0.32186753921E+03  0.12500000000E+03 0.  0.
         25    1    1    2    0    0  0.48446214035E+02 -0.46986907226E+02  0.52524667341E+02  0.15145509494E+03  0.12500000000E+03 0.  0.
         25    1    1    2    0    0 -0.29240324488E+02  0.21586460842E+03 -0.12941362111E+03  0.28253391137E+03  0.12500000000E+03 0.  0.
</event>
<event>
 5    0  0.6207507E-005  0.3444434E+03  0.7546771E-02  0.1064919E+00
         21   -1    0    0  502  501  0.00000000000E+00  0.00000000000E+00  0.25467799274E+03  0.25467799274E+03  0.00000000000E+00 0.  1.
         21   -1    0    0  501  502 -0.00000000000E+00 -0.00000000000E+00 -0.46584810383E+03  0.46584810383E+03  0.00000000000E+00 0.  1.
         25    1    1    2    0    0  0.20871178975E+03 -0.74192716213E+02 -0.13963159071E+03  0.29015022220E+03  0.12500000000E+03 0.  0.
         25    1    1    2    0    0 -0.90142245851E+02 -0.52210721322E+02  0.66718543610E+02  0.17586343557E+03  0.12500000000E+03 0.  0.
         25    1    1    2    0    0 -0.11856954390E+03  0.12640343753E+03 -0.13825706399E+03  0.25451243880E+03  0.12500000000E+03 0.  0.
</event>
<event>
 5    0  0.5539899E-005  0.4062071E+03  0.7546771E-02  0.1041651E+00
         21   -1    0    0  502  501  0.00000000000E+00  0.00000000000E+00  0.20774778694E+03  0.20774778694E+03  0.00000000000E+00 0.  1.
         21   -1    0    0  501  502 -0.00000000000E+00 -0.00000000000E+00 -0.79425237023E+03  0.79425237023E+03  0.00000000000E+00 0.  1.
         25    1    1    2    0    0 -0.55568039097E+01  0.23167230766E+03  0.40109613626E+02  0.26633947757E+03  0.12500000000E+03 0.  0.
         25    1    1    2    0    0  0.44114831131E+02 -0.20486585589E+02 -0.26393453962E+03  0.29606124319E+03  0.12500000000E+03 0.  0.
         25    1    1    2    0    0 -0.38558027221E+02 -0.21118572208E+03 -0.36267965729E+03  0.43959943640E+03  0.12500000000E+03 0.  0.
</event>
<event>
 5    0  0.5539899E-005  0.4176604E+03  0.7546771E-02  0.1037830E+00
         21   -1    0    0  502  501  0.00000000000E+00  0.00000000000E+00  0.90819354259E+03  0.90819354259E+03  0.00000000000E+00 0. -1.
         21   -1    0    0  501  502 -0.00000000000E+00 -0.00000000000E+00 -0.19207383934E+03  0.19207383934E+03  0.00000000000E+00 0. -1.
         25    1    1    2    0    0  0.14561991549E+03  0.32608405168E+02  0.13217392445E+03  0.23529431395E+03  0.12500000000E+03 0.  0.
         25    1    1    2    0    0 -0.15278171428E+03 -0.28157171546E+03  0.22664273402E+03  0.41184561677E+03  0.12500000000E+03 0.  0.
         25    1    1    2    0    0  0.71617987872E+01  0.24896331029E+03  0.35730304478E+03  0.45312745121E+03  0.12500000000E+03 0.  0.
</event>
<event>
 5    0  0.9907024E-005  0.5086474E+03  0.7546771E-02  0.1011546E+00
         21   -1    0    0  502  501  0.00000000000E+00  0.00000000000E+00  0.31198378914E+03  0.31198378914E+03  0.00000000000E+00 0.  1.
         21   -1    0    0  501  502 -0.00000000000E+00 -0.00000000000E+00 -0.82928085885E+03  0.82928085885E+03  0.00000000000E+00 0.  1.
         25    1    1    2    0    0  0.11392324046E+03  0.78640244887E+02  0.10256699926E+03  0.21285624767E+03  0.12500000000E+03 0.  0.
         25    1    1    2    0    0 -0.30375355085E+03 -0.19251564613E+03 -0.18176286868E+03  0.42189007346E+03  0.12500000000E+03 0.  0.
         25    1    1    2    0    0  0.18983031039E+03  0.11387540125E+03 -0.43810120029E+03  0.50651832686E+03  0.12500000000E+03 0.  0.
</event>
<event>
 5    0  0.5539899E-005  0.6321117E+03  0.7546771E-02  0.9840937E-01
         21   -1    0    0  502  501  0.00000000000E+00  0.00000000000E+00  0.53824830592E+03  0.53824830592E+03  0.00000000000E+00 0. -1.
         21   -1    0    0  501  502 -0.00000000000E+00 -0.00000000000E+00 -0.74234371422E+03  0.74234371422E+03  0.00000000000E+00 0. -1.
         25    1    1    2    0    0 -0.10023898054E+03 -0.17275009666E+03  0.28636258636E+03  0.37083551608E+03  0.12500000000E+03 0.  0.
         25    1    1    2    0    0 -0.87125237510E+02 -0.75550019989E+02  0.12353843699E+03  0.21020313495E+03  0.12500000000E+03 0.  0.
         25    1    1    2    0    0  0.18736421805E+03  0.24830011665E+03 -0.61399643166E+03  0.69955336910E+03  0.12500000000E+03 0.  0.
</event>
<event>
 5    0  0.5539899E-005  0.2533611E+03  0.7546771E-02  0.1111199E+00
         21   -1    0    0  502  501  0.00000000000E+00  0.00000000000E+00  0.86525621559E+02  0.86525621559E+02  0.00000000000E+00 0. -1.
         21   -1    0    0  501  502 -0.00000000000E+00 -0.00000000000E+00 -0.74188279855E+03  0.74188279855E+03  0.00000000000E+00 0. -1.
         25    1    1    2    0    0  0.67185062106E+02  0.29820980714E+02 -0.23560393636E+03  0.27665382392E+03  0.12500000000E+03 0.  0.
         25    1    1    2    0    0 -0.69580242778E+02 -0.49223537257E+02 -0.39480248631E+03  0.42279826159E+03  0.12500000000E+03 0.  0.
         25    1    1    2    0    0  0.23951806719E+01  0.19402556543E+02 -0.24950754312E+02  0.12895633459E+03  0.12500000000E+03 0.  0.
</event>
<event>
 5    0  0.5539899E-005  0.3258724E+03  0.7546771E-02  0.1072978E+00
         21   -1    0    0  502  501  0.00000000000E+00  0.00000000000E+00  0.70538535788E+03  0.70538535788E+03  0.00000000000E+00 0. -1.
         21   -1    0    0  501  502 -0.00000000000E+00 -0.00000000000E+00 -0.15054585525E+03  0.15054585525E+03  0.00000000000E+00 0. -1.
         25    1    1    2    0    0 -0.89643253176E+02 -0.11403745275E+03  0.72683271387E+02  0.20481286925E+03  0.12500000000E+03 0.  0.
         25    1    1    2    0    0  0.63821742577E+02 -0.47486149813E+02  0.25691027878E+02  0.15037678731E+03  0.12500000000E+03 0.  0.
         25    1    1    2    0    0  0.25821510599E+02  0.16152360257E+03  0.45646520336E+03  0.50074155657E+03  0.12500000000E+03 0.  0.
</event>
<event>
 5    0  0.5539899E-005  0.2991168E+03  0.7546771E-02  0.1085683E+00
         21   -1    0    0  502  501  0.00000000000E+00  0.00000000000E+00  0.60154497478E+03  0.60154497478E+03  0.00000000000E+00 0. -1.
         21   -1    0    0  501  502 -0.00000000000E+00 -0.00000000000E+00 -0.14873515723E+03  0.14873515723E+03  0.00000000000E+00 0. -1.
         25    1    1    2    0    0  0.11370518579E+03 -0.10477299806E+03  0.33033911112E+03  0.38555826893E+03  0.12500000000E+03 0.  0.
         25    1    1    2    0    0 -0.82699300521E+02  0.53150440079E+02 -0.26418028419E+02  0.16120501175E+03  0.12500000000E+03 0.  0.
         25    1    1    2    0    0 -0.31005885268E+02  0.51622557985E+02  0.14888873485E+03  0.20351685134E+03  0.12500000000E+03 0.  0.
</event>
<event>
 5    0  0.5539899E-005  0.3224807E+03  0.7546771E-02  0.1074513E+00
         21   -1    0    0  502  501  0.00000000000E+00  0.00000000000E+00  0.21522504542E+03  0.21522504542E+03  0.00000000000E+00 0. -1.
         21   -1    0    0  501  502 -0.00000000000E+00 -0.00000000000E+00 -0.48318626796E+03  0.48318626796E+03  0.00000000000E+00 0. -1.
         25    1    1    2    0    0  0.65196943684E+02 -0.13018269053E+03  0.64148045992E+02  0.20233177255E+03  0.12500000000E+03 0.  0.
         25    1    1    2    0    0  0.14547889761E+02  0.16593635001E+03 -0.24059762967E+03  0.31821177344E+03  0.12500000000E+03 0.  0.
         25    1    1    2    0    0 -0.79744833445E+02 -0.35753659485E+02 -0.91511638865E+02  0.17786776739E+03  0.12500000000E+03 0.  0.
</event>
<event>
 5    0  0.5539899E-005  0.2846412E+03  0.7546771E-02  0.1093181E+00
         21   -1    0    0  502  501  0.00000000000E+00  0.00000000000E+00  0.72293188105E+03  0.72293188105E+03  0.00000000000E+00 0.  1.
         21   -1    0    0  501  502 -0.00000000000E+00 -0.00000000000E+00 -0.11207226369E+03  0.11207226369E+03  0.00000000000E+00 0.  1.
         25    1    1    2    0    0 -0.78846114806E+02 -0.12384432157E+03  0.37904949032E+03  0.42527360830E+03  0.12500000000E+03 0.  0.
         25    1    1    2    0    0 -0.54864113629E+01  0.33720903034E+01  0.26489954137E+02  0.12793822483E+03  0.12500000000E+03 0.  0.
         25    1    1    2    0    0  0.84332526169E+02  0.12047223127E+03  0.20532017291E+03  0.28179231161E+03  0.12500000000E+03 0.  0.
</event>
<event>
 5    0  0.5539899E-005  0.2322788E+03  0.7546771E-02  0.1125046E+00
         21   -1    0    0  502  501  0.00000000000E+00  0.00000000000E+00  0.45510543785E+03  0.45510543785E+03  0.00000000000E+00 0.  1.
         21   -1    0    0  501  502 -0.00000000000E+00 -0.00000000000E+00 -0.11855153312E+03  0.11855153312E+03  0.00000000000E+00 0.  1.
         25    1    1    2    0    0 -0.28792147817E+02 -0.52312522591E+02  0.89443373410E+02  0.16489604253E+03  0.12500000000E+03 0.  0.
         25    1    1    2    0    0 -0.19947090134E+02  0.66126998911E+02  0.19429378805E+02  0.14412899483E+03  0.12500000000E+03 0.  0.
         25    1    1    2    0    0  0.48739237951E+02 -0.13814476320E+02  0.22768115252E+03  0.26463193361E+03  0.12500000000E+03 0.  0.
</event>
<event>
 5    0  0.5539899E-005  0.4422539E+03  0.7546771E-02  0.1030058E+00
         21   -1    0    0  502  501  0.00000000000E+00  0.00000000000E+00  0.31511566451E+03  0.31511566451E+03  0.00000000000E+00 0. -1.
         21   -1    0    0  501  502 -0.00000000000E+00 -0.00000000000E+00 -0.62068798613E+03  0.62068798613E+03  0.00000000000E+00 0. -1.
         25    1    1    2    0    0 -0.18754803739E+03  0.94116063767E+02  0.13221566276E+03  0.27773743224E+03  0.12500000000E+03 0.  0.
         25    1    1    2    0    0  0.13506604115E+03 -0.11758708587E+03 -0.46867046225E+03  0.51705566472E+03  0.12500000000E+03 0.  0.
         25    1    1    2    0    0  0.52481996246E+02  0.23471022102E+02  0.30882477863E+02  0.14101055367E+03  0.12500000000E+03 0.  0.
</event>
<event>
 5    0  0.5539899E-005  0.5426803E+03  0.7546771E-02  0.1003202E+00
         21   -1    0    0  502  501  0.00000000000E+00  0.00000000000E+00  0.73607912597E+03  0.73607912597E+03  0.00000000000E+00 0. -1.
         21   -1    0    0  501  502 -0.00000000000E+00 -0.00000000000E+00 -0.40009551891E+03  0.40009551891E+03  0.00000000000E+00 0. -1.
         25    1    1    2    0    0 -0.28795400452E+03  0.94321644520E+02  0.33687402453E+03  0.47002466929E+03  0.12500000000E+03 0.  0.
         25    1    1    2    0    0  0.41925110197E+03 -0.30807422306E+01  0.85159544678E+02  0.44571080930E+03  0.12500000000E+03 0.  0.
         25    1    1    2    0    0 -0.13129709745E+03 -0.91240902289E+02 -0.86049962141E+02  0.22043916629E+03  0.12500000000E+03 0.  0.
</event>
<event>
 5    0  0.5539899E-005  0.2929506E+03  0.7546771E-02  0.1088819E+00
         21   -1    0    0  502  501  0.00000000000E+00  0.00000000000E+00  0.54766009350E+02  0.54766009350E+02  0.00000000000E+00 0. -1.
         21   -1    0    0  501  502 -0.00000000000E+00 -0.00000000000E+00 -0.15670316679E+04  0.15670316679E+04  0.00000000000E+00 0. -1.
         25    1    1    2    0    0 -0.37415434124E+02  0.15899472876E+03 -0.37100934326E+03  0.42420769827E+03  0.12500000000E+03 0.  0.
         25    1    1    2    0    0  0.91917389174E+02 -0.11232282849E+03 -0.86545398769E+03  0.88639766980E+03  0.12500000000E+03 0.  0.
         25    1    1    2    0    0 -0.54501955050E+02 -0.46671900273E+02 -0.27580232760E+03  0.31119230917E+03  0.12500000000E+03 0.  0.
</event>
<event>
 5    0  0.5539899E-005  0.3382067E+03  0.7546771E-02  0.1067562E+00
         21   -1    0    0  502  501  0.00000000000E+00  0.00000000000E+00  0.56504115776E+03  0.56504115776E+03  0.00000000000E+00 0.  1.
         21   -1    0    0  501  502 -0.00000000000E+00 -0.00000000000E+00 -0.20243441064E+03  0.20243441064E+03  0.00000000000E+00 0.  1.
         25    1    1    2    0    0  0.22610750324E+02 -0.75739678992E+02  0.19457121124E+03  0.24439865230E+03  0.12500000000E+03 0.  0.
         25    1    1    2    0    0  0.53172558369E+02 -0.14025095742E+03 -0.27409339826E+02  0.19716471269E+03  0.12500000000E+03 0.  0.
         25    1    1    2    0    0 -0.75783308693E+02  0.21599063641E+03  0.19544487571E+03  0.32591220341E+03  0.12500000000E+03 0.  0.
</event>
<event>
 5    0  0.5539899E-005  0.2693532E+03  0.7546771E-02  0.1101650E+00
         21   -1    0    0  502  501  0.00000000000E+00  0.00000000000E+00  0.80073057335E+03  0.80073057335E+03  0.00000000000E+00 0. -1.
         21   -1    0    0  501  502 -0.00000000000E+00 -0.00000000000E+00 -0.90606202298E+02  0.90606202298E+02  0.00000000000E+00 0. -1.
         25    1    1    2    0    0 -0.80541033935E+02  0.12954022279E+03  0.39020145769E+03  0.43720670747E+03  0.12500000000E+03 0.  0.
         25    1    1    2    0    0  0.10097281215E+03 -0.77969770334E+02  0.22678365001E+03  0.28867043110E+03  0.12500000000E+03 0.  0.
         25    1    1    2    0    0 -0.20431778212E+02 -0.51570452451E+02  0.93139263350E+02  0.16545963709E+03  0.12500000000E+03 0.  0.
</event>
<event>
 5    0  0.5660143E-005  0.3516453E+03  0.7546771E-02  0.1061942E+00
         21   -1    0    0  502  501  0.00000000000E+00  0.00000000000E+00  0.87108127949E+03  0.87108127949E+03  0.00000000000E+00 0.  1.
         21   -1    0    0  501  502 -0.00000000000E+00 -0.00000000000E+00 -0.14195505383E+03  0.14195505383E+03  0.00000000000E+00 0.  1.
         25    1    1    2    0    0 -0.11647472824E+03 -0.63800833985E+02 -0.35451134023E+02  0.18579206560E+03  0.12500000000E+03 0.  0.
         25    1    1    2    0    0  0.10935243167E+03 -0.16090340564E+02  0.42673500383E+03  0.45819713756E+03  0.12500000000E+03 0.  0.
         25    1    1    2    0    0  0.71222965769E+01  0.79891174549E+02  0.33784235584E+03  0.36904713016E+03  0.12500000000E+03 0.  0.
</event>
<event>
 5    0  0.5539899E-005  0.2904815E+03  0.7546771E-02  0.1090098E+00
         21   -1    0    0  502  501  0.00000000000E+00  0.00000000000E+00  0.30647713114E+03  0.30647713114E+03  0.00000000000E+00 0. -1.
         21   -1    0    0  501  502 -0.00000000000E+00 -0.00000000000E+00 -0.27532069307E+03  0.27532069307E+03  0.00000000000E+00 0. -1.
         25    1    1    2    0    0 -0.16614031249E+03  0.35618495350E+01 -0.16762253650E+02  0.20861750490E+03  0.12500000000E+03 0.  0.
         25    1    1    2    0    0  0.47831975729E+02 -0.96050479931E+02 -0.20833843312E+02  0.16605011781E+03  0.12500000000E+03 0.  0.
         25    1    1    2    0    0  0.11830833676E+03  0.92488630396E+02  0.68752535034E+02  0.20713020150E+03  0.12500000000E+03 0.  0.
</event>
<event>
 5    0  0.5539899E-005  0.8486898E+03  0.7546771E-02  0.9492097E-01
         21   -1    0    0  502  501  0.00000000000E+00  0.00000000000E+00  0.46059261299E+03  0.46059261299E+03  0.00000000000E+00 0.  1.
         21   -1    0    0  501  502 -0.00000000000E+00 -0.00000000000E+00 -0.15637990553E+04  0.15637990553E+04  0.00000000000E+00 0.  1.
         25    1    1    2    0    0 -0.71878949888E+03 -0.21451636181E+02 -0.42980133470E+03  0.84703760466E+03  0.12500000000E+03 0.  0.
         25    1    1    2    0    0  0.75133844560E+03 -0.12223881614E+03 -0.51522386337E+03  0.92764886536E+03  0.12500000000E+03 0.  0.
         25    1    1    2    0    0 -0.32548946716E+02  0.14369045232E+03 -0.15818124425E+03  0.24970519829E+03  0.12500000000E+03 0.  0.
</event>
<event>
 5    0  0.5539899E-005  0.2853772E+03  0.7546771E-02  0.1092788E+00
         21   -1    0    0  502  501  0.00000000000E+00  0.00000000000E+00  0.94003842510E+03  0.94003842510E+03  0.00000000000E+00 0. -1.
         21   -1    0    0  501  502 -0.00000000000E+00 -0.00000000000E+00 -0.86634891496E+02  0.86634891496E+02  0.00000000000E+00 0. -1.
         25    1    1    2    0    0  0.80898603293E+02  0.10118329669E+03  0.54321241493E+03  0.57226512325E+03  0.12500000000E+03 0.  0.
         25    1    1    2    0    0  0.10825394136E+02 -0.28560665529E+01  0.21159805195E+03  0.24601642600E+03  0.12500000000E+03 0.  0.
         25    1    1    2    0    0 -0.91723997430E+02 -0.98327230140E+02  0.98593066715E+02  0.20839176734E+03  0.12500000000E+03 0.  0.
</event>
<event>
 5    0  0.5539899E-005  0.2494193E+03  0.7546771E-02  0.1113672E+00
         21   -1    0    0  502  501  0.00000000000E+00  0.00000000000E+00  0.80854302480E+02  0.80854302480E+02  0.00000000000E+00 0. -1.
         21   -1    0    0  501  502 -0.00000000000E+00 -0.00000000000E+00 -0.76940866907E+03  0.76940866907E+03  0.00000000000E+00 0. -1.
         25    1    1    2    0    0  0.47650590502E+02 -0.54704524809E+02 -0.85452301439E+02  0.16789955221E+03  0.12500000000E+03 0.  0.
         25    1    1    2    0    0  0.68443455439E+02  0.10221082840E+02 -0.27390177634E+03  0.30892743518E+03  0.12500000000E+03 0.  0.
         25    1    1    2    0    0 -0.11609404594E+03  0.44483441969E+02 -0.32920028882E+03  0.37343598416E+03  0.12500000000E+03 0.  0.
</event>
<event>
 5    0  0.5539899E-005  0.4398662E+03  0.7546771E-02  0.1030788E+00
         21   -1    0    0  502  501  0.00000000000E+00  0.00000000000E+00  0.10671591907E+04  0.10671591907E+04  0.00000000000E+00 0. -1.
         21   -1    0    0  501  502 -0.00000000000E+00 -0.00000000000E+00 -0.18130589248E+03  0.18130589248E+03  0.00000000000E+00 0. -1.
         25    1    1    2    0    0 -0.67577696343E+02  0.55184530005E+02 -0.79794732822E+02  0.17205893403E+03  0.12500000000E+03 0.  0.
         25    1    1    2    0    0  0.19182665551E+03 -0.14843591321E+03  0.49420708431E+03  0.56453195505E+03  0.12500000000E+03 0.  0.
         25    1    1    2    0    0 -0.12424895916E+03  0.93251383200E+02  0.47144094671E+03  0.51187419407E+03  0.12500000000E+03 0.  0.
</event>
<event>
 5    0  0.5539899E-005  0.2707946E+03  0.7546771E-02  0.1100826E+00
         21   -1    0    0  502  501  0.00000000000E+00  0.00000000000E+00  0.38091505856E+03  0.38091505856E+03  0.00000000000E+00 0.  1.
         21   -1    0    0  501  502 -0.00000000000E+00 -0.00000000000E+00 -0.19250942525E+03  0.19250942525E+03  0.00000000000E+00 0.  1.
         25    1    1    2    0    0 -0.43207444645E+02  0.11062009605E+03  0.81407114903E+02  0.19067198871E+03  0.12500000000E+03 0.  0.
         25    1    1    2    0    0  0.72122716574E+02 -0.45488857468E+02 -0.59592444090E+02  0.16262589521E+03  0.12500000000E+03 0.  0.
         25    1    1    2    0    0 -0.28915271929E+02 -0.65131238584E+02  0.16659096249E+03  0.22012659988E+03  0.12500000000E+03 0.  0.
</event>
<event>
 5    0  0.5539899E-005  0.2753641E+03  0.7546771E-02  0.1098248E+00
         21   -1    0    0  502  501  0.00000000000E+00  0.00000000000E+00  0.49522317642E+02  0.49522317642E+02  0.00000000000E+00 0.  1.
         21   -1    0    0  501  502 -0.00000000000E+00 -0.00000000000E+00 -0.15311362268E+04  0.15311362268E+04  0.00000000000E+00 0.  1.
         25    1    1    2    0    0 -0.11786990599E+03 -0.97734843354E+02 -0.35228962968E+03  0.40395345960E+03  0.12500000000E+03 0.  0.
         25    1    1    2    0    0  0.70687563027E+02  0.33555507882E+02 -0.30055012466E+03  0.33478064626E+03  0.12500000000E+03 0.  0.
         25    1    1    2    0    0  0.47182342964E+02  0.64179335472E+02 -0.82877415481E+03  0.84192443857E+03  0.12500000000E+03 0.  0.
</event>
<event>
 5    0  0.5539899E-005  0.3806066E+03  0.7546771E-02  0.1050710E+00
         21   -1    0    0  502  501  0.00000000000E+00  0.00000000000E+00  0.11128016839E+03  0.11128016839E+03  0.00000000000E+00 0. -1.
         21   -1    0    0  501  502 -0.00000000000E+00 -0.00000000000E+00 -0.13017715717E+04  0.13017715717E+04  0.00000000000E+00 0. -1.
         25    1    1    2    0    0 -0.14866916398E+03 -0.20884013040E+02 -0.89008011601E+02  0.21467670681E+03  0.12500000000E+03 0.  0.
         25    1    1    2    0    0  0.25673254598E+03 -0.15558968327E+02 -0.52823094075E+03  0.60067179760E+03  0.12500000000E+03 0.  0.
         25    1    1    2    0    0 -0.10806338201E+03  0.36442981366E+02 -0.57325245092E+03  0.59770323566E+03  0.12500000000E+03 0.  0.
</event>
<event>
 5    0  0.5539899E-005  0.2481384E+03  0.7546771E-02  0.1114487E+00
         21   -1    0    0  502  501  0.00000000000E+00  0.00000000000E+00  0.10772429565E+03  0.10772429565E+03  0.00000000000E+00 0. -1.
         21   -1    0    0  501  502 -0.00000000000E+00 -0.00000000000E+00 -0.57157645283E+03  0.57157645283E+03  0.00000000000E+00 0. -1.
         25    1    1    2    0    0 -0.38698005541E+02 -0.67983373543E+02 -0.20685850158E+03  0.25403683668E+03  0.12500000000E+03 0.  0.
         25    1    1    2    0    0 -0.62042333557E+01 -0.41605112668E+02 -0.20790523844E+03  0.24620939479E+03  0.12500000000E+03 0.  0.
         25    1    1    2    0    0  0.44902238897E+02  0.10958848621E+03 -0.49088417162E+02  0.17905451703E+03  0.12500000000E+03 0.  0.
</event>
<event>
 5    0  0.5539899E-005  0.2739988E+03  0.7546771E-02  0.1099013E+00
         21   -1    0    0  502  501  0.00000000000E+00  0.00000000000E+00  0.18048987676E+03  0.18048987676E+03  0.00000000000E+00 0. -1.
         21   -1    0    0  501  502 -0.00000000000E+00 -0.00000000000E+00 -0.41595330946E+03  0.41595330946E+03  0.00000000000E+00 0.  1.
         25    1    1    2    0    0 -0.17394041494E+03  0.71116024190E+01 -0.39150283804E+02  0.21786139529E+03  0.12500000000E+03 0.  0.
         25    1    1    2    0    0  0.28965027285E+02 -0.18370267003E+02 -0.10170632575E+03  0.16475926746E+03  0.12500000000E+03 0.  0.
         25    1    1    2    0    0  0.14497538765E+03  0.11258664584E+02 -0.94606823151E+02  0.21382252346E+03  0.12500000000E+03 0.  0.
</event>
<event>
 5    0  0.5539899E-005  0.2693775E+03  0.7546771E-02  0.1101636E+00
         21   -1    0    0  502  501  0.00000000000E+00  0.00000000000E+00  0.54751088622E+02  0.54751088622E+02  0.00000000000E+00 0.  1.
         21   -1    0    0  501  502 -0.00000000000E+00 -0.00000000000E+00 -0.13253476652E+04  0.13253476652E+04  0.00000000000E+00 0.  1.
         25    1    1    2    0    0  0.73331584168E+02 -0.19647775732E+02 -0.11909780738E+03  0.18860764579E+03  0.12500000000E+03 0.  0.
         25    1    1    2    0    0 -0.54470952943E+01  0.55318203933E+02 -0.78341700484E+03  0.79527163787E+03  0.12500000000E+03 0.  0.
         25    1    1    2    0    0 -0.67884488874E+02 -0.35670428201E+02 -0.36808176433E+03  0.39621947013E+03  0.12500000000E+03 0.  0.
</event>
<event>
 5    0  0.5539899E-005  0.4887414E+03  0.7546771E-02  0.1016760E+00
         21   -1    0    0  502  501  0.00000000000E+00  0.00000000000E+00  0.36962851839E+03  0.36962851839E+03  0.00000000000E+00 0. -1.
         21   -1    0    0  501  502 -0.00000000000E+00 -0.00000000000E+00 -0.64623831655E+03  0.64623831655E+03  0.00000000000E+00 0. -1.
         25    1    1    2    0    0 -0.71587512353E+02  0.28577864878E+02  0.18888392088E+03  0.23925635175E+03  0.12500000000E+03 0.  0.
         25    1    1    2    0    0 -0.16534556554E+03  0.13100027243E+03 -0.38997400999E+02  0.24828617502E+03  0.12500000000E+03 0.  0.
         25    1    1    2    0    0  0.23693307789E+03 -0.15957813730E+03 -0.42649631804E+03  0.52832430817E+03  0.12500000000E+03 0.  0.
</event>
<event>
 5    0  0.5539899E-005  0.3134325E+03  0.7546771E-02  0.1078712E+00
         21   -1    0    0  502  501  0.00000000000E+00  0.00000000000E+00  0.31470194065E+03  0.31470194065E+03  0.00000000000E+00 0. -1.
         21   -1    0    0  501  502 -0.00000000000E+00 -0.00000000000E+00 -0.31216824475E+03  0.31216824475E+03  0.00000000000E+00 0. -1.
         25    1    1    2    0    0  0.64499046235E+02 -0.12489926054E+03  0.64339292734E+01  0.18821888241E+03  0.12500000000E+03 0.  0.
         25    1    1    2    0    0 -0.21283550932E+02  0.19012184279E+03 -0.11326561167E+03  0.25505568693E+03  0.12500000000E+03 0.  0.
         25    1    1    2    0    0 -0.43215495303E+02 -0.65222582251E+02  0.10936537830E+03  0.18359561607E+03  0.12500000000E+03 0.  0.
</event>
<event>
 5    0  0.5539899E-005  0.6168441E+03  0.7546771E-02  0.9871063E-01
         21   -1    0    0  502  501  0.00000000000E+00  0.00000000000E+00  0.22971963029E+04  0.22971963029E+04  0.00000000000E+00 0. -1.
         21   -1    0    0  501  502 -0.00000000000E+00 -0.00000000000E+00 -0.16563521372E+03  0.16563521372E+03  0.00000000000E+00 0. -1.
         25    1    1    2    0    0 -0.25888760355E+03  0.49111911744E+03  0.89383474440E+03  0.10596161235E+04  0.12500000000E+03 0.  0.
         25    1    1    2    0    0  0.10060119687E+03 -0.43612593035E+02  0.25002539378E+03  0.30026714209E+03  0.12500000000E+03 0.  0.
         25    1    1    2    0    0  0.15828640667E+03 -0.44750652441E+03  0.98770095097E+03  0.11029482510E+04  0.12500000000E+03 0.  0.
</event>
<event>
 5    0  0.5539899E-005  0.3761124E+03  0.7546771E-02  0.1052380E+00
         21   -1    0    0  502  501  0.00000000000E+00  0.00000000000E+00  0.10412635474E+04  0.10412635474E+04  0.00000000000E+00 0. -1.
         21   -1    0    0  501  502 -0.00000000000E+00 -0.00000000000E+00 -0.13585469116E+03  0.13585469116E+03  0.00000000000E+00 0. -1.
         25    1    1    2    0    0  0.15026081004E+03 -0.17846104674E+03  0.23003917943E+03  0.35067032995E+03  0.12500000000E+03 0.  0.
         25    1    1    2    0    0 -0.11465781531E+03  0.17061510209E+03  0.65092823479E+03  0.69396577330E+03  0.12500000000E+03 0.  0.
         25    1    1    2    0    0 -0.35602994735E+02  0.78459446453E+01  0.24441442008E+02  0.13248213528E+03  0.12500000000E+03 0.  0.
</event>
<event>
 5    0  0.5539899E-005  0.3027716E+03  0.7546771E-02  0.1083863E+00
         21   -1    0    0  502  501  0.00000000000E+00  0.00000000000E+00  0.65518293972E+02  0.65518293972E+02  0.00000000000E+00 0.  1.
         21   -1    0    0  501  502 -0.00000000000E+00 -0.00000000000E+00 -0.13991610453E+04  0.13991610453E+04  0.00000000000E+00 0.  1.
         25    1    1    2    0    0 -0.50897531246E+02  0.48383018870E+02 -0.12987798612E+03  0.19345481767E+03  0.12500000000E+03 0.  0.
         25    1    1    2    0    0 -0.53026827552E+02  0.86922125413E+02 -0.27582509444E+03  0.31948674942E+03  0.12500000000E+03 0.  0.
         25    1    1    2    0    0  0.10392435880E+03 -0.13530514428E+03 -0.92793967073E+03  0.95173777215E+03  0.12500000000E+03 0.  0.
</event>
<event>
 5    0  0.5539899E-005  0.4426155E+03  0.7546771E-02  0.1029947E+00
         21   -1    0    0  502  501  0.00000000000E+00  0.00000000000E+00  0.28958543435E+03  0.28958543435E+03  0.00000000000E+00 0.  1.
         21   -1    0    0  501  502 -0.00000000000E+00 -0.00000000000E+00 -0.67651347384E+03  0.67651347384E+03  0.00000000000E+00 0.  1.
         25    1    1    2    0    0  0.29278713643E+03  0.23001667701E+03 -0.17349054507E+03  0.42936691557E+03  0.12500000000E+03 0.  0.
         25    1    1    2    0    0 -0.14994621722E+02 -0.68470211467E+02 -0.30956161814E+02  0.14661613995E+03  0.12500000000E+03 0.  0.
         25    1    1    2    0    0 -0.27779251471E+03 -0.16154646554E+03 -0.18248133260E+03  0.39011585267E+03  0.12500000000E+03 0.  0.
</event>
<event>
 5    0  0.5539899E-005  0.2794513E+03  0.7546771E-02  0.1095989E+00
         21   -1    0    0  502  501  0.00000000000E+00  0.00000000000E+00  0.29047941038E+04  0.29047941038E+04  0.00000000000E+00 0.  1.
         21   -1    0    0  501  502 -0.00000000000E+00 -0.00000000000E+00 -0.26884188795E+02  0.26884188795E+02  0.00000000000E+00 0.  1.
         25    1    1    2    0    0 -0.26731751569E+02  0.18531468182E+03  0.12594825910E+04  0.12794442211E+04  0.12500000000E+03 0.  0.
         25    1    1    2    0    0  0.44159096462E+02 -0.71670706614E+02  0.54492410637E+03  0.56537951651E+03  0.12500000000E+03 0.  0.
         25    1    1    2    0    0 -0.17427344893E+02 -0.11364397520E+03  0.10735032176E+04  0.10868545550E+04  0.12500000000E+03 0.  0.
</event>
<event>
 5    0  0.5539899E-005  0.6085735E+03  0.7546771E-02  0.9887777E-01
         21   -1    0    0  502  501  0.00000000000E+00  0.00000000000E+00  0.56732898144E+03  0.56732898144E+03  0.00000000000E+00 0.  1.
         21   -1    0    0  501  502 -0.00000000000E+00 -0.00000000000E+00 -0.65281638005E+03  0.65281638005E+03  0.00000000000E+00 0.  1.
         25    1    1    2    0    0  0.52910916696E+03  0.10008560979E+03 -0.15344914715E+03  0.57371184457E+03  0.12500000000E+03 0.  0.
         25    1    1    2    0    0 -0.11598883254E+03  0.18363120134E+02 -0.58707204641E+02  0.18127920270E+03  0.12500000000E+03 0.  0.
         25    1    1    2    0    0 -0.41312033442E+03 -0.11844872992E+03  0.12666895317E+03  0.46515431421E+03  0.12500000000E+03 0.  0.
</event>
<event>
 5    0  0.5539899E-005  0.3152707E+03  0.7546771E-02  0.1077847E+00
         21   -1    0    0  502  501  0.00000000000E+00  0.00000000000E+00  0.81375310492E+02  0.81375310492E+02  0.00000000000E+00 0. -1.
         21   -1    0    0  501  502 -0.00000000000E+00 -0.00000000000E+00 -0.12214465319E+04  0.12214465319E+04  0.00000000000E+00 0. -1.
         25    1    1    2    0    0 -0.10917567998E+03  0.10374820192E+03 -0.24862960931E+03  0.31642487438E+03  0.12500000000E+03 0.  0.
         25    1    1    2    0    0 -0.62355757119E+01 -0.90888432117E+02 -0.11850609251E+03  0.19485451870E+03  0.12500000000E+03 0.  0.
         25    1    1    2    0    0  0.11541125569E+03 -0.12859769807E+02 -0.77293551962E+03  0.79154244934E+03  0.12500000000E+03 0.  0.
</event>
<event>
 5    0  0.5539899E-005  0.3273594E+03  0.7546771E-02  0.1072311E+00
         21   -1    0    0  502  501  0.00000000000E+00  0.00000000000E+00  0.16146438890E+03  0.16146438890E+03  0.00000000000E+00 0. -1.
         21   -1    0    0  501  502 -0.00000000000E+00 -0.00000000000E+00 -0.66370156669E+03  0.66370156669E+03  0.00000000000E+00 0. -1.
         25    1    1    2    0    0 -0.16556959191E+03  0.50780671233E+02 -0.61872166334E+02  0.22236261219E+03  0.12500000000E+03 0.  0.
         25    1    1    2    0    0 -0.34891105407E+02 -0.23926931220E+01 -0.40713801106E+02  0.13603575933E+03  0.12500000000E+03 0.  0.
         25    1    1    2    0    0  0.20046069731E+03 -0.48387978111E+02 -0.39965121035E+03  0.46676758406E+03  0.12500000000E+03 0.  0.
</event>
<event>
 5    0  0.5733619E-005  0.3056289E+03  0.7546771E-02  0.1082460E+00
         21   -1    0    0  502  501  0.00000000000E+00  0.00000000000E+00  0.13672009410E+03  0.13672009410E+03  0.00000000000E+00 0.  1.
         21   -1    0    0  501  502 -0.00000000000E+00 -0.00000000000E+00 -0.68321351011E+03  0.68321351011E+03  0.00000000000E+00 0.  1.
         25    1    1    2    0    0 -0.77793180708E+02 -0.76730319733E+01 -0.33106094890E+03  0.36240447882E+03  0.12500000000E+03 0.  0.
         25    1    1    2    0    0 -0.74834233309E+01  0.10720624790E+03 -0.22173840790E+03  0.27630074693E+03  0.12500000000E+03 0.  0.
         25    1    1    2    0    0  0.85276604039E+02 -0.99533215928E+02  0.63059407893E+01  0.18122837846E+03  0.12500000000E+03 0.  0.
</event>
<event>
 5    0  0.5539899E-005  0.4010789E+03  0.7546771E-02  0.1043407E+00
         21   -1    0    0  502  501  0.00000000000E+00  0.00000000000E+00  0.83653209685E+02  0.83653209685E+02  0.00000000000E+00 0.  1.
         21   -1    0    0  501  502 -0.00000000000E+00 -0.00000000000E+00 -0.19229899425E+04  0.19229899425E+04  0.00000000000E+00 0.  1.
         25    1    1    2    0    0 -0.57063220755E+02 -0.30203876664E+03 -0.63236153158E+03  0.71413565542E+03  0.12500000000E+03 0.  0.
         25    1    1    2    0    0  0.75373066155E+02  0.37912732261E+02 -0.25221726993E+03  0.29386565913E+03  0.12500000000E+03 0.  0.
         25    1    1    2    0    0 -0.18309845400E+02  0.26412603438E+03 -0.95475793132E+03  0.99864183764E+03  0.12500000000E+03 0.  0.
</event>
<event>
 5    0  0.5539899E-005  0.2865533E+03  0.7546771E-02  0.1092163E+00
         21   -1    0    0  502  501  0.00000000000E+00  0.00000000000E+00  0.66480218591E+03  0.66480218591E+03  0.00000000000E+00 0. -1.
         21   -1    0    0  501  502 -0.00000000000E+00 -0.00000000000E+00 -0.12351459586E+03  0.12351459586E+03  0.00000000000E+00 0. -1.
         25    1    1    2    0    0 -0.90243301072E+02  0.44590586849E+02  0.20349467512E+03  0.25916646509E+03  0.12500000000E+03 0.  0.
         25    1    1    2    0    0  0.88592853483E+01 -0.16958527718E+03  0.15054516230E+03  0.25908782115E+03  0.12500000000E+03 0.  0.
         25    1    1    2    0    0  0.81384015724E+02  0.12499469033E+03  0.18724775263E+03  0.27006249553E+03  0.12500000000E+03 0.  0.
</event>
<event>
 5    0  0.5539899E-005  0.6351594E+03  0.7546771E-02  0.9835032E-01
         21   -1    0    0  502  501  0.00000000000E+00  0.00000000000E+00  0.10294403182E+04  0.10294403182E+04  0.00000000000E+00 0.  1.
         21   -1    0    0  501  502 -0.00000000000E+00 -0.00000000000E+00 -0.39189008559E+03  0.39189008559E+03  0.00000000000E+00 0. -1.
         25    1    1    2    0    0  0.18028058708E+02 -0.31621890366E+03  0.50767935511E+03  0.61129594596E+03  0.12500000000E+03 0.  0.
         25    1    1    2    0    0 -0.53939954617E+02 -0.19922989420E+03 -0.54474465427E+02  0.24737529552E+03  0.12500000000E+03 0.  0.
         25    1    1    2    0    0  0.35911895909E+02  0.51544879787E+03  0.18434534294E+03  0.56265916233E+03  0.12500000000E+03 0.  0.
</event>
<event>
 5    0  0.5539899E-005  0.2739548E+03  0.7546771E-02  0.1099037E+00
         21   -1    0    0  502  501  0.00000000000E+00  0.00000000000E+00  0.14506829811E+03  0.14506829811E+03  0.00000000000E+00 0.  1.
         21   -1    0    0  501  502 -0.00000000000E+00 -0.00000000000E+00 -0.51735115982E+03  0.51735115982E+03  0.00000000000E+00 0.  1.
         25    1    1    2    0    0 -0.86035504782E+02  0.13170685197E+03 -0.30164310557E+02  0.20318387872E+03  0.12500000000E+03 0.  0.
         25    1    1    2    0    0  0.70013140328E+02 -0.41769022073E+02 -0.13992876156E+03  0.20457651218E+03  0.12500000000E+03 0.  0.
         25    1    1    2    0    0  0.16022364454E+02 -0.89937829900E+02 -0.20218978959E+03  0.25465906704E+03  0.12500000000E+03 0.  0.
</event>
<event>
 5    0  0.5539899E-005  0.2771387E+03  0.7546771E-02  0.1097262E+00
         21   -1    0    0  502  501  0.00000000000E+00  0.00000000000E+00  0.28237568435E+03  0.28237568435E+03  0.00000000000E+00 0. -1.
         21   -1    0    0  501  502 -0.00000000000E+00 -0.00000000000E+00 -0.27199874588E+03  0.27199874588E+03  0.00000000000E+00 0. -1.
         25    1    1    2    0    0 -0.67707621016E+02 -0.55624357175E+02  0.20004610985E+02  0.15395965548E+03  0.12500000000E+03 0.  0.
         25    1    1    2    0    0  0.24448982563E+02  0.11860757054E+03  0.11455716888E+03  0.20835991332E+03  0.12500000000E+03 0.  0.
         25    1    1    2    0    0  0.43258638452E+02 -0.62983213367E+02 -0.12418484139E+03  0.19205486143E+03  0.12500000000E+03 0.  0.
</event>
<event>
 5    0  0.5539899E-005  0.4308495E+03  0.7546771E-02  0.1033592E+00
         21   -1    0    0  502  501  0.00000000000E+00  0.00000000000E+00  0.30784253478E+03  0.30784253478E+03  0.00000000000E+00 0.  1.
         21   -1    0    0  501  502 -0.00000000000E+00 -0.00000000000E+00 -0.60300727835E+03  0.60300727835E+03  0.00000000000E+00 0.  1.
         25    1    1    2    0    0 -0.14790554568E+03  0.17703733335E+03  0.49450168103E+02  0.26699922653E+03  0.12500000000E+03 0.  0.
         25    1    1    2    0    0  0.27895650381E+03 -0.37629823660E+02 -0.14505039391E+03  0.34043700066E+03  0.12500000000E+03 0.  0.
         25    1    1    2    0    0 -0.13105095813E+03 -0.13940750969E+03 -0.19956451776E+03  0.30341358594E+03  0.12500000000E+03 0.  0.
</event>
<event>
 5    0  0.5539899E-005  0.2303601E+03  0.7546771E-02  0.1126387E+00
         21   -1    0    0  502  501  0.00000000000E+00  0.00000000000E+00  0.87399221620E+02  0.87399221620E+02  0.00000000000E+00 0.  1.
         21   -1    0    0  501  502 -0.00000000000E+00 -0.00000000000E+00 -0.60716538675E+03  0.60716538675E+03  0.00000000000E+00 0.  1.
         25    1    1    2    0    0  0.51733102836E+01 -0.95803266552E+02 -0.20834330470E+03  0.26122205427E+03  0.12500000000E+03 0.  0.
         25    1    1    2    0    0  0.12823352554E+02  0.11646688774E+03 -0.20284244619E+03  0.26551653863E+03  0.12500000000E+03 0.  0.
         25    1    1    2    0    0 -0.17996662838E+02 -0.20663621185E+02 -0.10858041424E+03  0.16782601548E+03  0.12500000000E+03 0.  0.
</event>
<event>
 5    0  0.5539899E-005  0.3134745E+03  0.7546771E-02  0.1078692E+00
         21   -1    0    0  502  501  0.00000000000E+00  0.00000000000E+00  0.14189468889E+04  0.14189468889E+04  0.00000000000E+00 0.  1.
         21   -1    0    0  501  502 -0.00000000000E+00 -0.00000000000E+00 -0.69252934392E+02  0.69252934392E+02  0.00000000000E+00 0.  1.
         25    1    1    2    0    0 -0.71984769626E+02  0.17993552252E+03  0.72724185231E+03  0.76293139343E+03  0.12500000000E+03 0.  0.
         25    1    1    2    0    0  0.83314519522E+02 -0.19416999287E+03  0.39417216334E+03  0.46437053055E+03  0.12500000000E+03 0.  0.
         25    1    1    2    0    0 -0.11329749896E+02  0.14234470352E+02  0.22827993883E+03  0.26089789928E+03  0.12500000000E+03 0.  0.
</event>
<event>
 5    0  0.5539899E-005  0.2794617E+03  0.7546771E-02  0.1095983E+00
         21   -1    0    0  502  501  0.00000000000E+00  0.00000000000E+00  0.11937733146E+04  0.11937733146E+04  0.00000000000E+00 0.  1.
         21   -1    0    0  501  502 -0.00000000000E+00 -0.00000000000E+00 -0.65421824904E+02  0.65421824904E+02  0.00000000000E+00 0.  1.
         25    1    1    2    0    0 -0.11085420877E+03  0.60125472432E+02  0.16709898840E+03  0.24382534725E+03  0.12500000000E+03 0.  0.
         25    1    1    2    0    0  0.13163576920E+03  0.10022194127E+02  0.56042457674E+03  0.58917665120E+03  0.12500000000E+03 0.  0.
         25    1    1    2    0    0 -0.20781560431E+02 -0.70147666559E+02  0.40082792458E+03  0.42619314107E+03  0.12500000000E+03 0.  0.
</event>
<event>
 5    0  0.5539899E-005  0.4145684E+03  0.7546771E-02  0.1038849E+00
         21   -1    0    0  502  501  0.00000000000E+00  0.00000000000E+00  0.49388852981E+03  0.49388852981E+03  0.00000000000E+00 0. -1.
         21   -1    0    0  501  502 -0.00000000000E+00 -0.00000000000E+00 -0.34798731967E+03  0.34798731967E+03  0.00000000000E+00 0. -1.
         25    1    1    2    0    0 -0.16525092193E+02  0.30198197757E+03 -0.50378014177E+02  0.33110291113E+03  0.12500000000E+03 0.  0.
         25    1    1    2    0    0 -0.43047132416E+02 -0.53764594794E+01  0.66589292322E+01  0.13248133176E+03  0.12500000000E+03 0.  0.
         25    1    1    2    0    0  0.59572224609E+02 -0.29660551809E+03  0.18962029508E+03  0.37829160659E+03  0.12500000000E+03 0.  0.
</event>
<event>
 5    0  0.5539899E-005  0.2857280E+03  0.7546771E-02  0.1092601E+00
         21   -1    0    0  502  501  0.00000000000E+00  0.00000000000E+00  0.18776959454E+03  0.18776959454E+03  0.00000000000E+00 0. -1.
         21   -1    0    0  501  502 -0.00000000000E+00 -0.00000000000E+00 -0.43479080297E+03  0.43479080297E+03  0.00000000000E+00 0. -1.
         25    1    1    2    0    0 -0.70853712773E+02 -0.43162625207E+02  0.22525672699E+02  0.15170915186E+03  0.12500000000E+03 0.  0.
         25    1    1    2    0    0  0.12919079756E+03 -0.11826578350E+02 -0.26729129118E+03  0.32233486388E+03  0.12500000000E+03 0.  0.
         25    1    1    2    0    0 -0.58337084783E+02  0.54989203557E+02 -0.22555899479E+01  0.14851638177E+03  0.12500000000E+03 0.  0.
</event>
<event>
 5    0  0.5539899E-005  0.2997411E+03  0.7546771E-02  0.1085370E+00
         21   -1    0    0  502  501  0.00000000000E+00  0.00000000000E+00  0.90353604266E+03  0.90353604266E+03  0.00000000000E+00 0.  1.
         21   -1    0    0  501  502 -0.00000000000E+00 -0.00000000000E+00 -0.99436825527E+02  0.99436825527E+02  0.00000000000E+00 0.  1.
         25    1    1    2    0    0 -0.47046027962E+02  0.11819379703E+03  0.34750510892E+03  0.39059941516E+03  0.12500000000E+03 0.  0.
         25    1    1    2    0    0  0.52863592573E+02 -0.78962436055E+02  0.45488392223E+03  0.48122137154E+03  0.12500000000E+03 0.  0.
         25    1    1    2    0    0 -0.58175646106E+01 -0.39231360973E+02  0.17101859925E+01  0.13115208149E+03  0.12500000000E+03 0.  0.
</event>
<event>
 5    0  0.5539899E-005  0.3909024E+03  0.7546771E-02  0.1046976E+00
         21   -1    0    0  502  501  0.00000000000E+00  0.00000000000E+00  0.17893714749E+03  0.17893714749E+03  0.00000000000E+00 0. -1.
         21   -1    0    0  501  502 -0.00000000000E+00 -0.00000000000E+00 -0.85395748631E+03  0.85395748631E+03  0.00000000000E+00 0. -1.
         25    1    1    2    0    0 -0.16096967542E+03  0.43006553900E+02 -0.55519947789E+02  0.21556498947E+03  0.12500000000E+03 0.  0.
         25    1    1    2    0    0  0.21269664043E+03  0.15236617841E+03 -0.28133133975E+03  0.40401440061E+03  0.12500000000E+03 0.  0.
         25    1    1    2    0    0 -0.51726965011E+02 -0.19537273231E+03 -0.33816905128E+03  0.41331524371E+03  0.12500000000E+03 0.  0.
</event>
<event>
 5    0  0.5539899E-005  0.3453471E+03  0.7546771E-02  0.1064541E+00
         21   -1    0    0  502  501  0.00000000000E+00  0.00000000000E+00  0.29830831966E+03  0.29830831966E+03  0.00000000000E+00 0. -1.
         21   -1    0    0  501  502 -0.00000000000E+00 -0.00000000000E+00 -0.39980308159E+03  0.39980308159E+03  0.00000000000E+00 0. -1.
         25    1    1    2    0    0  0.45152694859E+02  0.18819921307E+03  0.33437552608E+02  0.23281060881E+03  0.12500000000E+03 0.  0.
         25    1    1    2    0    0 -0.87074832117E+02 -0.16182433482E+03  0.58416905137E+02  0.22979703334E+03  0.12500000000E+03 0.  0.
         25    1    1    2    0    0  0.41922137257E+02 -0.26374878246E+02 -0.19334921968E+03  0.23550375909E+03  0.12500000000E+03 0.  0.
</event>
<event>
 5    0  0.5539899E-005  0.5256413E+03  0.7546771E-02  0.1007295E+00
         21   -1    0    0  502  501  0.00000000000E+00  0.00000000000E+00  0.10080727128E+03  0.10080727128E+03  0.00000000000E+00 0. -1.
         21   -1    0    0  501  502 -0.00000000000E+00 -0.00000000000E+00 -0.27408620618E+04  0.27408620618E+04  0.00000000000E+00 0.  1.
         25    1    1    2    0    0  0.43956590772E+03  0.18060966748E+03 -0.14576259286E+04  0.15382250768E+04  0.12500000000E+03 0.  0.
         25    1    1    2    0    0 -0.28368326615E+03 -0.62621097139E+02 -0.69792565939E+03  0.76623940340E+03  0.12500000000E+03 0.  0.
         25    1    1    2    0    0 -0.15588264157E+03 -0.11798857034E+03 -0.48450320250E+03  0.53720485283E+03  0.12500000000E+03 0.  0.
</event>
<event>
 5    0  0.5539899E-005  0.2677721E+03  0.7546771E-02  0.1102562E+00
         21   -1    0    0  502  501  0.00000000000E+00  0.00000000000E+00  0.28180296932E+02  0.28180296932E+02  0.00000000000E+00 0.  1.
         21   -1    0    0  501  502 -0.00000000000E+00 -0.00000000000E+00 -0.25443973193E+04  0.25443973193E+04  0.00000000000E+00 0.  1.
         25    1    1    2    0    0  0.17981143082E+02  0.66983520363E+02 -0.14338809341E+04  0.14409891210E+04  0.12500000000E+03 0.  0.
         25    1    1    2    0    0  0.85498751893E+02 -0.54503255311E+02 -0.42650331534E+03  0.45586261024E+03  0.12500000000E+03 0.  0.
         25    1    1    2    0    0 -0.10347989498E+03 -0.12480265052E+02 -0.65583277290E+03  0.67572588502E+03  0.12500000000E+03 0.  0.
</event>
<event>
 5    0  0.5539899E-005  0.3095214E+03  0.7546771E-02  0.1080576E+00
         21   -1    0    0  502  501  0.00000000000E+00  0.00000000000E+00  0.17439717143E+03  0.17439717143E+03  0.00000000000E+00 0.  1.
         21   -1    0    0  501  502 -0.00000000000E+00 -0.00000000000E+00 -0.54934075154E+03  0.54934075154E+03  0.00000000000E+00 0.  1.
         25    1    1    2    0    0 -0.90153536826E+02 -0.90278019166E+02  0.62009870928E+02  0.18907142841E+03  0.12500000000E+03 0.  0.
         25    1    1    2    0    0  0.44140602948E+02 -0.95027808206E+01 -0.25840737026E+03  0.29058228555E+03  0.12500000000E+03 0.  0.
         25    1    1    2    0    0  0.46012933878E+02  0.99780799986E+02 -0.17854608078E+03  0.24408420902E+03  0.12500000000E+03 0.  0.
</event>
<event>
 5    0  0.5539899E-005  0.3660261E+03  0.7546771E-02  0.1056223E+00
         21   -1    0    0  502  501  0.00000000000E+00  0.00000000000E+00  0.16118064050E+03  0.16118064050E+03  0.00000000000E+00 0. -1.
         21   -1    0    0  501  502 -0.00000000000E+00 -0.00000000000E+00 -0.83121083950E+03  0.83121083950E+03  0.00000000000E+00 0. -1.
         25    1    1    2    0    0 -0.32424376730E+02  0.42387925845E+02 -0.37551574325E+02  0.14100779127E+03  0.12500000000E+03 0.  0.
         25    1    1    2    0    0  0.17402941428E+03 -0.39405672350E+02 -0.29920418935E+02  0.21990742488E+03  0.12500000000E+03 0.  0.
         25    1    1    2    0    0 -0.14160503755E+03 -0.29822534941E+01 -0.60255820574E+03  0.63147626385E+03  0.12500000000E+03 0.  0.
</event>
<event>
 5    0  0.5539899E-005  0.2918468E+03  0.7546771E-02  0.1089389E+00
         21   -1    0    0  502  501  0.00000000000E+00  0.00000000000E+00  0.57216876999E+02  0.57216876999E+02  0.00000000000E+00 0.  1.
         21   -1    0    0  501  502 -0.00000000000E+00 -0.00000000000E+00 -0.14886262267E+04  0.14886262267E+04  0.00000000000E+00 0.  1.
         25    1    1    2    0    0 -0.19328233357E+02 -0.20924147308E+02 -0.91434164202E+03  0.92328600059E+03  0.12500000000E+03 0.  0.
         25    1    1    2    0    0  0.10731685834E+03 -0.57892187466E+02 -0.26855198217E+03  0.32033354583E+03  0.12500000000E+03 0.  0.
         25    1    1    2    0    0 -0.87988624986E+02  0.78816334774E+02 -0.24851572552E+03  0.30222355729E+03  0.12500000000E+03 0.  0.
</event>
<event>
 5    0  0.5539899E-005  0.2617173E+03  0.7546771E-02  0.1106116E+00
         21   -1    0    0  502  501  0.00000000000E+00  0.00000000000E+00  0.66109555969E+02  0.66109555969E+02  0.00000000000E+00 0. -1.
         21   -1    0    0  501  502 -0.00000000000E+00 -0.00000000000E+00 -0.10360977299E+04  0.10360977299E+04  0.00000000000E+00 0. -1.
         25    1    1    2    0    0 -0.87088987407E+01 -0.74838958282E+02 -0.23339818422E+03  0.27527518412E+03  0.12500000000E+03 0.  0.
         25    1    1    2    0    0 -0.49858472775E+01  0.13187761657E+03 -0.62036946573E+03  0.64645172940E+03  0.12500000000E+03 0.  0.
         25    1    1    2    0    0  0.13694746018E+02 -0.57038658287E+02 -0.11622052395E+03  0.18048037232E+03  0.12500000000E+03 0.  0.
</event>
<event>
 5    0  0.5539899E-005  0.3378415E+03  0.7546771E-02  0.1067719E+00
         21   -1    0    0  502  501  0.00000000000E+00  0.00000000000E+00  0.97169396757E+03  0.97169396757E+03  0.00000000000E+00 0.  1.
         21   -1    0    0  501  502 -0.00000000000E+00 -0.00000000000E+00 -0.11746172388E+03  0.11746172388E+03  0.00000000000E+00 0.  1.
         25    1    1    2    0    0 -0.92566389560E+02 -0.12335005289E+03  0.11961260515E+03  0.23176701089E+03  0.12500000000E+03 0.  0.
         25    1    1    2    0    0 -0.30458971243E+02  0.10550591077E+03  0.90142813113E+02  0.18923523164E+03  0.12500000000E+03 0.  0.
         25    1    1    2    0    0  0.12302536080E+03  0.17844142125E+02  0.64447682543E+03  0.66815344893E+03  0.12500000000E+03 0.  0.
</event>
<event>
 5    0  0.5539899E-005  0.3156716E+03  0.7546771E-02  0.1077659E+00
         21   -1    0    0  502  501  0.00000000000E+00  0.00000000000E+00  0.14699684101E+03  0.14699684101E+03  0.00000000000E+00 0.  1.
         21   -1    0    0  501  502 -0.00000000000E+00 -0.00000000000E+00 -0.67789612188E+03  0.67789612188E+03  0.00000000000E+00 0.  1.
         25    1    1    2    0    0  0.73112011677E+01  0.13977247073E+03 -0.19350511333E+03  0.26955338269E+03  0.12500000000E+03 0.  0.
         25    1    1    2    0    0  0.15601611290E+03 -0.23356014503E+02 -0.12064853952E+03  0.23466486952E+03  0.12500000000E+03 0.  0.
         25    1    1    2    0    0 -0.16332731407E+03 -0.11641645623E+03 -0.21674562803E+03  0.32067471068E+03  0.12500000000E+03 0.  0.
</event>
<event>
 5    0  0.5539899E-005  0.3854128E+03  0.7546771E-02  0.1048951E+00
         21   -1    0    0  502  501  0.00000000000E+00  0.00000000000E+00  0.12117690473E+03  0.12117690473E+03  0.00000000000E+00 0.  1.
         21   -1    0    0  501  502 -0.00000000000E+00 -0.00000000000E+00 -0.12258359174E+04  0.12258359174E+04  0.00000000000E+00 0.  1.
         25    1    1    2    0    0 -0.32757272487E+02  0.20774838307E+03 -0.11661502980E+03  0.27102858658E+03  0.12500000000E+03 0.  0.
         25    1    1    2    0    0  0.91983145683E+02  0.18755817717E+02 -0.44266607468E+03  0.46945812749E+03  0.12500000000E+03 0.  0.
         25    1    1    2    0    0 -0.59225873197E+02 -0.22650420078E+03 -0.54537790817E+03  0.60652610805E+03  0.12500000000E+03 0.  0.
</event>
<event>
 5    0  0.5539899E-005  0.2227625E+03  0.7546771E-02  0.1131840E+00
         21   -1    0    0  502  501  0.00000000000E+00  0.00000000000E+00  0.52339350325E+03  0.52339350325E+03  0.00000000000E+00 0.  1.
         21   -1    0    0  501  502 -0.00000000000E+00 -0.00000000000E+00 -0.94810342822E+02  0.94810342822E+02  0.00000000000E+00 0.  1.
         25    1    1    2    0    0  0.91162310048E+02 -0.51317828108E+02  0.12151665002E+03  0.20331104861E+03  0.12500000000E+03 0.  0.
         25    1    1    2    0    0 -0.41912119223E+02  0.44424206002E+02  0.11556102277E+03  0.18085763960E+03  0.12500000000E+03 0.  0.
         25    1    1    2    0    0 -0.49250190825E+02  0.68936221051E+01  0.19150548764E+03  0.23403515787E+03  0.12500000000E+03 0.  0.
</event>
<event>
 5    0  0.5539899E-005  0.2604079E+03  0.7546771E-02  0.1106898E+00
         21   -1    0    0  502  501  0.00000000000E+00  0.00000000000E+00  0.36280975468E+03  0.36280975468E+03  0.00000000000E+00 0. -1.
         21   -1    0    0  501  502 -0.00000000000E+00 -0.00000000000E+00 -0.18690866014E+03  0.18690866014E+03  0.00000000000E+00 0. -1.
         25    1    1    2    0    0  0.12776476413E+01 -0.77927133080E+02 -0.22760126361E+01  0.14732430447E+03  0.12500000000E+03 0.  0.
         25    1    1    2    0    0  0.11376959675E+03  0.72314771404E+02  0.13179130614E+03  0.22620100725E+03  0.12500000000E+03 0.  0.
         25    1    1    2    0    0 -0.11504724439E+03  0.56123616766E+01  0.46385801037E+02  0.17619310311E+03  0.12500000000E+03 0.  0.
</event>
<event>
 5    0  0.5539899E-005  0.3206897E+03  0.7546771E-02  0.1075332E+00
         21   -1    0    0  502  501  0.00000000000E+00  0.00000000000E+00  0.40769872597E+03  0.40769872597E+03  0.00000000000E+00 0.  1.
         21   -1    0    0  501  502 -0.00000000000E+00 -0.00000000000E+00 -0.25224967362E+03  0.25224967362E+03  0.00000000000E+00 0.  1.
         25    1    1    2    0    0  0.84569025184E+02  0.10118694151E+03 -0.11320097888E+03  0.21407984205E+03  0.12500000000E+03 0.  0.
         25    1    1    2    0    0  0.30631156855E+02  0.33019382866E+02  0.62390634982E+02  0.14678603050E+03  0.12500000000E+03 0.  0.
         25    1    1    2    0    0 -0.11520018204E+03 -0.13420632438E+03  0.20625939624E+03  0.29908252704E+03  0.12500000000E+03 0.  0.
</event>
<event>
 5    0  0.5539899E-005  0.8376107E+03  0.7546771E-02  0.9507118E-01
         21   -1    0    0  502  501  0.00000000000E+00  0.00000000000E+00  0.69717152200E+03  0.69717152200E+03  0.00000000000E+00 0. -1.
         21   -1    0    0  501  502 -0.00000000000E+00 -0.00000000000E+00 -0.10063401357E+04  0.10063401357E+04  0.00000000000E+00 0. -1.
         25    1    1    2    0    0  0.52996148272E+03  0.92580174685E+02 -0.29565027957E+01  0.55232599325E+03  0.12500000000E+03 0.  0.
         25    1    1    2    0    0  0.14748203541E+03  0.18185933051E+03 -0.31200589584E+03  0.40962964480E+03  0.12500000000E+03 0.  0.
         25    1    1    2    0    0 -0.67744351813E+03 -0.27443950519E+03  0.57937849743E+01  0.74155601961E+03  0.12500000000E+03 0.  0.
</event>
<event>
 5    0  0.5539899E-005  0.3753670E+03  0.7546771E-02  0.1052660E+00
         21   -1    0    0  502  501  0.00000000000E+00  0.00000000000E+00  0.11372934776E+04  0.11372934776E+04  0.00000000000E+00 0.  1.
         21   -1    0    0  501  502 -0.00000000000E+00 -0.00000000000E+00 -0.12389094834E+03  0.12389094834E+03  0.00000000000E+00 0.  1.
         25    1    1    2    0    0  0.16008488208E+02  0.10027690387E+03 -0.31003079520E+02  0.16400585381E+03  0.12500000000E+03 0.  0.
         25    1    1    2    0    0  0.51158181947E+02 -0.12380615627E+03  0.45568006119E+03  0.49113586926E+03  0.12500000000E+03 0.  0.
         25    1    1    2    0    0 -0.67166670155E+02  0.23529252403E+02  0.58872554758E+03  0.60604270285E+03  0.12500000000E+03 0.  0.
</event>
<event>
 5    0  0.5539899E-005  0.2950075E+03  0.7546771E-02  0.1087763E+00
         21   -1    0    0  502  501  0.00000000000E+00  0.00000000000E+00  0.14023483337E+03  0.14023483337E+03  0.00000000000E+00 0. -1.
         21   -1    0    0  501  502 -0.00000000000E+00 -0.00000000000E+00 -0.62059756937E+03  0.62059756937E+03  0.00000000000E+00 0. -1.
         25    1    1    2    0    0  0.56517892786E+02 -0.27638725506E+02 -0.26487083109E+03  0.29956590012E+03  0.12500000000E+03 0.  0.
         25    1    1    2    0    0  0.16130722939E+02 -0.12043148788E+03 -0.18129985415E+03  0.25151258539E+03  0.12500000000E+03 0.  0.
         25    1    1    2    0    0 -0.72648615725E+02  0.14807021338E+03 -0.34192050759E+02  0.20975391723E+03  0.12500000000E+03 0.  0.
</event>
<event>
 5    0  0.5750676E-005  0.3717738E+03  0.7546771E-02  0.1054017E+00
         21   -1    0    0  502  501  0.00000000000E+00  0.00000000000E+00  0.75950475848E+02  0.75950475848E+02  0.00000000000E+00 0. -1.
         21   -1    0    0  501  502 -0.00000000000E+00 -0.00000000000E+00 -0.18198140127E+04  0.18198140127E+04  0.00000000000E+00 0. -1.
         25    1    1    2    0    0 -0.15627000635E+03 -0.97608041079E+02 -0.88418221593E+03  0.91178442383E+03  0.12500000000E+03 0.  0.
         25    1    1    2    0    0  0.19105923776E+03  0.49264550815E+02 -0.79964701285E+03  0.83306120631E+03  0.12500000000E+03 0.  0.
         25    1    1    2    0    0 -0.34789231409E+02  0.48343490264E+02 -0.60034308045E+02  0.15091885838E+03  0.12500000000E+03 0.  0.
</event>
<event>
 5    0  0.5539899E-005  0.2145537E+03  0.7546771E-02  0.1138010E+00
         21   -1    0    0  502  501  0.00000000000E+00  0.00000000000E+00  0.22088129931E+03  0.22088129931E+03  0.00000000000E+00 0.  1.
         21   -1    0    0  501  502 -0.00000000000E+00 -0.00000000000E+00 -0.20840731436E+03  0.20840731436E+03  0.00000000000E+00 0.  1.
         25    1    1    2    0    0  0.39304538913E+02  0.31540017332E+02  0.55122156251E+02  0.14561274526E+03  0.12500000000E+03 0.  0.
         25    1    1    2    0    0 -0.52556016227E+02  0.10508945368E+02 -0.62449389247E+02  0.14965793996E+03  0.12500000000E+03 0.  0.
         25    1    1    2    0    0  0.13251477314E+02 -0.42048962700E+02  0.19801217943E+02  0.13401792845E+03  0.12500000000E+03 0.  0.
</event>
<event>
 5    0  0.5539899E-005  0.3862994E+03  0.7546771E-02  0.1048630E+00
         21   -1    0    0  502  501  0.00000000000E+00  0.00000000000E+00  0.19241976780E+04  0.19241976780E+04  0.00000000000E+00 0.  1.
         21   -1    0    0  501  502 -0.00000000000E+00 -0.00000000000E+00 -0.77552961137E+02  0.77552961137E+02  0.00000000000E+00 0.  1.
         25    1    1    2    0    0  0.66314211555E+01  0.18007431586E+03  0.10776994395E+04  0.10997871689E+04  0.12500000000E+03 0.  0.
         25    1    1    2    0    0 -0.11477196442E+03  0.49541861437E+02  0.20260384563E+03  0.26888718473E+03  0.12500000000E+03 0.  0.
         25    1    1    2    0    0  0.10814054326E+03 -0.22961617730E+03  0.56634143179E+03  0.63307628555E+03  0.12500000000E+03 0.  0.
</event>
<event>
 5    0  0.5539899E-005  0.3327544E+03  0.7546771E-02  0.1069925E+00
         21   -1    0    0  502  501  0.00000000000E+00  0.00000000000E+00  0.19876498390E+04  0.19876498390E+04  0.00000000000E+00 0. -1.
         21   -1    0    0  501  502 -0.00000000000E+00 -0.00000000000E+00 -0.55706723008E+02  0.55706723008E+02  0.00000000000E+00 0. -1.
         25    1    1    2    0    0  0.15681995160E+03  0.17364238750E+03  0.11912035275E+04  0.12203831447E+04  0.12500000000E+03 0.  0.
         25    1    1    2    0    0 -0.10033348105E+03 -0.36016848741E+02  0.33842401560E+03  0.37619122152E+03  0.12500000000E+03 0.  0.
         25    1    1    2    0    0 -0.56486470547E+02 -0.13762553875E+03  0.40231557285E+03  0.44678219574E+03  0.12500000000E+03 0.  0.
</event>
<event>
 5    0  0.5632709E-005  0.4431509E+03  0.7546771E-02  0.1029784E+00
         21   -1    0    0  502  501  0.00000000000E+00  0.00000000000E+00  0.78651454023E+03  0.78651454023E+03  0.00000000000E+00 0. -1.
         21   -1    0    0  501  502 -0.00000000000E+00 -0.00000000000E+00 -0.24968729185E+03  0.24968729185E+03  0.00000000000E+00 0. -1.
         25    1    1    2    0    0 -0.94991878075E+02  0.20691801648E+03 -0.77639188131E+02  0.27109291023E+03  0.12500000000E+03 0.  0.
         25    1    1    2    0    0  0.12153675310E+03 -0.23072202792E+03  0.26496596277E+03  0.39221906882E+03  0.12500000000E+03 0.  0.
         25    1    1    2    0    0 -0.26544875030E+02  0.23804011436E+02  0.34950047374E+03  0.37288985303E+03  0.12500000000E+03 0.  0.
</event>
<event>
 5    0  0.5539899E-005  0.2775145E+03  0.7546771E-02  0.1097054E+00
         21   -1    0    0  502  501  0.00000000000E+00  0.00000000000E+00  0.20754590843E+03  0.20754590843E+03  0.00000000000E+00 0.  1.
         21   -1    0    0  501  502 -0.00000000000E+00 -0.00000000000E+00 -0.37107105424E+03  0.37107105424E+03  0.00000000000E+00 0.  1.
         25    1    1    2    0    0 -0.11761362682E+03 -0.97479849551E+02 -0.44773750632E+02  0.20239806083E+03  0.12500000000E+03 0.  0.
         25    1    1    2    0    0  0.26458319305E+02  0.13949398752E+03 -0.10232895449E+03  0.21506936123E+03  0.12500000000E+03 0.  0.
         25    1    1    2    0    0  0.91155307520E+02 -0.42014137971E+02 -0.16422440692E+02  0.16114954060E+03  0.12500000000E+03 0.  0.
</event>
<event>
 5    0  0.5539899E-005  0.3636910E+03  0.7546771E-02  0.1057132E+00
         21   -1    0    0  502  501  0.00000000000E+00  0.00000000000E+00  0.15518757427E+04  0.15518757427E+04  0.00000000000E+00 0.  1.
         21   -1    0    0  501  502 -0.00000000000E+00 -0.00000000000E+00 -0.85233067431E+02  0.85233067431E+02  0.00000000000E+00 0.  1.
         25    1    1    2    0    0  0.13631497789E+03  0.14327787482E+03  0.42054126344E+03  0.48123827453E+03  0.12500000000E+03 0.  0.
         25    1    1    2    0    0  0.74830710198E+02 -0.15137729696E+03  0.70476691437E+03  0.73541561366E+03  0.12500000000E+03 0.  0.
         25    1    1    2    0    0 -0.21114568809E+03  0.80994221395E+01  0.34133449746E+03  0.42045492195E+03  0.12500000000E+03 0.  0.
</event>
<event>
 5    0  0.5539899E-005  0.2750155E+03  0.7546771E-02  0.1098443E+00
         21   -1    0    0  502  501  0.00000000000E+00  0.00000000000E+00  0.15700122545E+04  0.15700122545E+04  0.00000000000E+00 0. -1.
         21   -1    0    0  501  502 -0.00000000000E+00 -0.00000000000E+00 -0.48173828563E+02  0.48173828563E+02  0.00000000000E+00 0. -1.
         25    1    1    2    0    0  0.51313367702E+02 -0.15375369983E+02  0.20665334581E+03  0.24738647708E+03  0.12500000000E+03 0.  0.
         25    1    1    2    0    0  0.11995790126E+03  0.80208768136E+01  0.63837954568E+03  0.66151921884E+03  0.12500000000E+03 0.  0.
         25    1    1    2    0    0 -0.17127126897E+03  0.73544931696E+01  0.67680553447E+03  0.70928038717E+03  0.12500000000E+03 0.  0.
</event>
<event>
 5    0  0.5539899E-005  0.3474766E+03  0.7546771E-02  0.1063656E+00
         21   -1    0    0  502  501  0.00000000000E+00  0.00000000000E+00  0.28879752638E+03  0.28879752638E+03  0.00000000000E+00 0.  1.
         21   -1    0    0  501  502 -0.00000000000E+00 -0.00000000000E+00 -0.41807824807E+03  0.41807824807E+03  0.00000000000E+00 0.  1.
         25    1    1    2    0    0 -0.15006777458E+02  0.20964732004E+03  0.10328579750E+03  0.26546215952E+03  0.12500000000E+03 0.  0.
         25    1    1    2    0    0  0.35978684043E+02 -0.89447718219E+02 -0.21374957699E+03  0.26572399528E+03  0.12500000000E+03 0.  0.
         25    1    1    2    0    0 -0.20971906585E+02 -0.12019960182E+03 -0.18816942196E+02  0.17568961966E+03  0.12500000000E+03 0.  0.
</event>
<event>
 5    0  0.5539899E-005  0.2680990E+03  0.7546771E-02  0.1102373E+00
         21   -1    0    0  502  501  0.00000000000E+00  0.00000000000E+00  0.26182205877E+03  0.26182205877E+03  0.00000000000E+00 0. -1.
         21   -1    0    0  501  502 -0.00000000000E+00 -0.00000000000E+00 -0.27452642466E+03  0.27452642466E+03  0.00000000000E+00 0. -1.
         25    1    1    2    0    0  0.13377783235E+03 -0.27344883000E+01  0.71573853718E+01  0.18324904917E+03  0.12500000000E+03 0.  0.
         25    1    1    2    0    0 -0.12794199313E+03  0.85537395165E+02  0.15705116274E+02  0.19889054843E+03  0.12500000000E+03 0.  0.
         25    1    1    2    0    0 -0.58358392280E+01 -0.82802906865E+02 -0.35566867534E+02  0.15420888584E+03  0.12500000000E+03 0.  0.
</event>
<event>
 5    0  0.5539899E-005  0.2553521E+03  0.7546771E-02  0.1109968E+00
         21   -1    0    0  502  501  0.00000000000E+00  0.00000000000E+00  0.69920338304E+02  0.69920338304E+02  0.00000000000E+00 0. -1.
         21   -1    0    0  501  502 -0.00000000000E+00 -0.00000000000E+00 -0.93255660614E+03  0.93255660614E+03  0.00000000000E+00 0. -1.
         25    1    1    2    0    0 -0.79263866716E+02 -0.11851685677E+03 -0.36835875551E+03  0.41429721054E+03  0.12500000000E+03 0.  0.
         25    1    1    2    0    0  0.64238643532E+02 -0.87119736348E+00 -0.17156197924E+03  0.22177888770E+03  0.12500000000E+03 0.  0.
         25    1    1    2    0    0  0.15025223185E+02  0.11938805413E+03 -0.32271553309E+03  0.36640084620E+03  0.12500000000E+03 0.  0.
</event>
<event>
 5    0  0.5539899E-005  0.3368051E+03  0.7546771E-02  0.1068165E+00
         21   -1    0    0  502  501  0.00000000000E+00  0.00000000000E+00  0.39575218479E+03  0.39575218479E+03  0.00000000000E+00 0. -1.
         21   -1    0    0  501  502 -0.00000000000E+00 -0.00000000000E+00 -0.28663807829E+03  0.28663807829E+03  0.00000000000E+00 0. -1.
         25    1    1    2    0    0  0.10866012740E+03  0.12008246576E+03  0.10136515891E+03  0.22831276204E+03  0.12500000000E+03 0.  0.
         25    1    1    2    0    0 -0.11164715344E+03  0.33712609614E+00 -0.14593272857E+03  0.22223087498E+03  0.12500000000E+03 0.  0.
         25    1    1    2    0    0  0.29870260407E+01 -0.12041959185E+03  0.15368167616E+03  0.23184662606E+03  0.12500000000E+03 0.  0.
</event>
<event>
 5    0  0.5539899E-005  0.2346012E+03  0.7546771E-02  0.1123443E+00
         21   -1    0    0  502  501  0.00000000000E+00  0.00000000000E+00  0.10514472869E+03  0.10514472869E+03  0.00000000000E+00 0.  1.
         21   -1    0    0  501  502 -0.00000000000E+00 -0.00000000000E+00 -0.52344712108E+03  0.52344712108E+03  0.00000000000E+00 0.  1.
         25    1    1    2    0    0  0.84777393802E+02  0.32645817391E+02 -0.11092486630E+03  0.19021640796E+03  0.12500000000E+03 0.  0.
         25    1    1    2    0    0  0.64251171021E+01  0.46327908113E+02 -0.17435312878E+03  0.21957133400E+03  0.12500000000E+03 0.  0.
         25    1    1    2    0    0 -0.91202510904E+02 -0.78973725504E+02 -0.13302439730E+03  0.21880410781E+03  0.12500000000E+03 0.  0.
</event>
<event>
 5    0  0.5539899E-005  0.2660281E+03  0.7546771E-02  0.1103575E+00
         21   -1    0    0  502  501  0.00000000000E+00  0.00000000000E+00  0.36077571916E+02  0.36077571916E+02  0.00000000000E+00 0. -1.
         21   -1    0    0  501  502 -0.00000000000E+00 -0.00000000000E+00 -0.19616325398E+04  0.19616325398E+04  0.00000000000E+00 0. -1.
         25    1    1    2    0    0  0.29332897232E+02 -0.10168299233E+02 -0.20208391737E+03  0.23963873399E+03  0.12500000000E+03 0.  0.
         25    1    1    2    0    0  0.39947968764E+02  0.43295835445E+02 -0.13463064806E+04  0.13533796619E+04  0.12500000000E+03 0.  0.
         25    1    1    2    0    0 -0.69280865996E+02 -0.33127536212E+02 -0.37716456995E+03  0.40469171585E+03  0.12500000000E+03 0.  0.
</event>
<event>
 5    0  0.5539899E-005  0.3088841E+03  0.7546771E-02  0.1080882E+00
         21   -1    0    0  502  501  0.00000000000E+00  0.00000000000E+00  0.21522599811E+03  0.21522599811E+03  0.00000000000E+00 0. -1.
         21   -1    0    0  501  502 -0.00000000000E+00 -0.00000000000E+00 -0.44329855148E+03  0.44329855148E+03  0.00000000000E+00 0. -1.
         25    1    1    2    0    0  0.10996633668E+03  0.11931842186E+02 -0.12833482418E+03  0.21054641094E+03  0.12500000000E+03 0.  0.
         25    1    1    2    0    0 -0.14150881624E+03  0.11544733308E+03  0.32427506578E+02  0.22367247254E+03  0.12500000000E+03 0.  0.
         25    1    1    2    0    0  0.31542479553E+02 -0.12737917526E+03 -0.13216523577E+03  0.22430566612E+03  0.12500000000E+03 0.  0.
</event>
<event>
 5    0  0.5539899E-005  0.4369942E+03  0.7546771E-02  0.1031673E+00
         21   -1    0    0  502  501  0.00000000000E+00  0.00000000000E+00  0.10868979762E+03  0.10868979762E+03  0.00000000000E+00 0. -1.
         21   -1    0    0  501  502 -0.00000000000E+00 -0.00000000000E+00 -0.17569631138E+04  0.17569631138E+04  0.00000000000E+00 0. -1.
         25    1    1    2    0    0  0.10251727467E+03 -0.59760688353E+02 -0.61997630083E+02  0.18316614756E+03  0.12500000000E+03 0.  0.
         25    1    1    2    0    0 -0.23868756048E+03  0.13473247684E+03 -0.12941967288E+04  0.13287944780E+04  0.12500000000E+03 0.  0.
         25    1    1    2    0    0  0.13617028582E+03 -0.74971788483E+02 -0.29207895733E+03  0.35369228592E+03  0.12500000000E+03 0.  0.
</event>
<event>
 5    0  0.5539899E-005  0.3740721E+03  0.7546771E-02  0.1053147E+00
         21   -1    0    0  502  501  0.00000000000E+00  0.00000000000E+00  0.27192229037E+03  0.27192229037E+03  0.00000000000E+00 0. -1.
         21   -1    0    0  501  502 -0.00000000000E+00 -0.00000000000E+00 -0.51459533409E+03  0.51459533409E+03  0.00000000000E+00 0. -1.
         25    1    1    2    0    0 -0.15600406253E+03 -0.11521667453E+03  0.85136838352E+02  0.24593785975E+03  0.12500000000E+03 0.  0.
         25    1    1    2    0    0  0.62196487761E+02 -0.62664673002E+02 -0.23233405422E+02  0.15479035971E+03  0.12500000000E+03 0.  0.
         25    1    1    2    0    0  0.93807574764E+02  0.17788134753E+03 -0.30457647665E+03  0.38578940500E+03  0.12500000000E+03 0.  0.
</event>
<event>
 5    0  0.5539899E-005  0.2859134E+03  0.7546771E-02  0.1092502E+00
         21   -1    0    0  502  501  0.00000000000E+00  0.00000000000E+00  0.54102413978E+03  0.54102413978E+03  0.00000000000E+00 0.  1.
         21   -1    0    0  501  502 -0.00000000000E+00 -0.00000000000E+00 -0.15109580756E+03  0.15109580756E+03  0.00000000000E+00 0.  1.
         25    1    1    2    0    0  0.42713197788E+02 -0.45451141847E+00  0.23828648183E+03  0.27245196140E+03  0.12500000000E+03 0.  0.
         25    1    1    2    0    0 -0.13278748748E+03  0.42499510514E+02  0.17734668461E+03  0.25790612976E+03  0.12500000000E+03 0.  0.
         25    1    1    2    0    0  0.90074289693E+02 -0.42044999096E+02 -0.25704834219E+02  0.16176185618E+03  0.12500000000E+03 0.  0.
</event>
<event>
 5    0  0.5539899E-005  0.2337012E+03  0.7546771E-02  0.1124062E+00
         21   -1    0    0  502  501  0.00000000000E+00  0.00000000000E+00  0.17793388078E+03  0.17793388078E+03  0.00000000000E+00 0.  1.
         21   -1    0    0  501  502 -0.00000000000E+00 -0.00000000000E+00 -0.30694677228E+03  0.30694677228E+03  0.00000000000E+00 0.  1.
         25    1    1    2    0    0  0.11525251786E+02  0.11029045589E+02 -0.12506063132E+03  0.17753769397E+03  0.12500000000E+03 0.  0.
         25    1    1    2    0    0  0.55783521120E+02  0.58305944388E+02 -0.11004385499E+02  0.14918941276E+03  0.12500000000E+03 0.  0.
         25    1    1    2    0    0 -0.67308772905E+02 -0.69334989977E+02  0.70521253134E+01  0.15815354633E+03  0.12500000000E+03 0.  0.
</event>
<event>
 5    0  0.5539899E-005  0.3112565E+03  0.7546771E-02  0.1079745E+00
         21   -1    0    0  502  501  0.00000000000E+00  0.00000000000E+00  0.17606764780E+03  0.17606764780E+03  0.00000000000E+00 0.  1.
         21   -1    0    0  501  502 -0.00000000000E+00 -0.00000000000E+00 -0.55024655952E+03  0.55024655952E+03  0.00000000000E+00 0.  1.
         25    1    1    2    0    0 -0.65407248894E+02 -0.11633525463E+03 -0.17509116024E+03  0.25316775875E+03  0.12500000000E+03 0.  0.
         25    1    1    2    0    0 -0.95120421309E+02  0.15767467256E+02  0.18243133824E+02  0.15891607693E+03  0.12500000000E+03 0.  0.
         25    1    1    2    0    0  0.16052767020E+03  0.10056778737E+03 -0.21733088530E+03  0.31423037165E+03  0.12500000000E+03 0.  0.
</event>
<event>
 5    0  0.5539899E-005  0.2395923E+03  0.7546771E-02  0.1120065E+00
         21   -1    0    0  502  501  0.00000000000E+00  0.00000000000E+00  0.66635868333E+03  0.66635868333E+03  0.00000000000E+00 0.  1.
         21   -1    0    0  501  502 -0.00000000000E+00 -0.00000000000E+00 -0.86146505245E+02  0.86146505245E+02  0.00000000000E+00 0.  1.
         25    1    1    2    0    0 -0.91675749148E+00 -0.50148084838E+01  0.31476601904E+03  0.33871615770E+03  0.12500000000E+03 0.  0.
         25    1    1    2    0    0 -0.48474983665E+02  0.37968620811E+02  0.32887747011E+02  0.14317138021E+03  0.12500000000E+03 0.  0.
         25    1    1    2    0    0  0.49391741156E+02 -0.32953812327E+02  0.23255841203E+03  0.27061765066E+03  0.12500000000E+03 0.  0.
</event>
<event>
 5    0  0.5539899E-005  0.2950328E+03  0.7546771E-02  0.1087750E+00
         21   -1    0    0  502  501  0.00000000000E+00  0.00000000000E+00  0.60223033674E+03  0.60223033674E+03  0.00000000000E+00 0.  1.
         21   -1    0    0  501  502 -0.00000000000E+00 -0.00000000000E+00 -0.14453661664E+03  0.14453661664E+03  0.00000000000E+00 0.  1.
         25    1    1    2    0    0  0.88438169522E+02 -0.47404130411E+02 -0.10487760659E+01  0.16029523181E+03  0.12500000000E+03 0.  0.
         25    1    1    2    0    0 -0.74583865923E+02  0.22450764204E+02  0.43075172944E+03  0.45523493087E+03  0.12500000000E+03 0.  0.
         25    1    1    2    0    0 -0.13854303599E+02  0.24953366207E+02  0.27990766729E+02  0.13123679071E+03  0.12500000000E+03 0.  0.
</event>
<event>
 5    0  0.5539899E-005  0.3530965E+03  0.7546771E-02  0.1061351E+00
         21   -1    0    0  502  501  0.00000000000E+00  0.00000000000E+00  0.27465189719E+03  0.27465189719E+03  0.00000000000E+00 0.  1.
         21   -1    0    0  501  502 -0.00000000000E+00 -0.00000000000E+00 -0.45394603020E+03  0.45394603020E+03  0.00000000000E+00 0.  1.
         25    1    1    2    0    0 -0.15249714301E+03 -0.41672933608E+02  0.16590590023E+03  0.26103980492E+03  0.12500000000E+03 0.  0.
         25    1    1    2    0    0  0.50918983958E+02  0.10053613709E+02 -0.84725675520E+02  0.15967860899E+03  0.12500000000E+03 0.  0.
         25    1    1    2    0    0  0.10157815905E+03  0.31619319899E+02 -0.26047435772E+03  0.30787951347E+03  0.12500000000E+03 0.  0.
</event>
<event>
 5    0  0.5539899E-005  0.3537437E+03  0.7546771E-02  0.1061089E+00
         21   -1    0    0  502  501  0.00000000000E+00  0.00000000000E+00  0.56822467544E+02  0.56822467544E+02  0.00000000000E+00 0.  1.
         21   -1    0    0  501  502 -0.00000000000E+00 -0.00000000000E+00 -0.22022029230E+04  0.22022029230E+04  0.00000000000E+00 0.  1.
         25    1    1    2    0    0  0.14889842805E+03  0.10576792287E+03 -0.12717066459E+04  0.12908215944E+04  0.12500000000E+03 0.  0.
         25    1    1    2    0    0 -0.10124579000E+03  0.54100938789E+02 -0.60379486114E+03  0.62719283790E+03  0.12500000000E+03 0.  0.
         25    1    1    2    0    0 -0.47652638051E+02 -0.15986886166E+03 -0.26987894846E+03  0.34101095827E+03  0.12500000000E+03 0.  0.
</event>
<event>
 5    0  0.5539899E-005  0.2598978E+03  0.7546771E-02  0.1107205E+00
         21   -1    0    0  502  501  0.00000000000E+00  0.00000000000E+00  0.13275073230E+04  0.13275073230E+04  0.00000000000E+00 0.  1.
         21   -1    0    0  501  502 -0.00000000000E+00 -0.00000000000E+00 -0.50882464327E+02  0.50882464327E+02  0.00000000000E+00 0.  1.
         25    1    1    2    0    0  0.47573530228E+02 -0.10925442084E+02  0.16834276235E+03  0.21528328244E+03  0.12500000000E+03 0.  0.
         25    1    1    2    0    0 -0.13112885814E+03 -0.39164539706E+02  0.72579212552E+03  0.74908467350E+03  0.12500000000E+03 0.  0.
         25    1    1    2    0    0  0.83555327907E+02  0.50089981790E+02  0.38248997078E+03  0.41402183136E+03  0.12500000000E+03 0.  0.
</event>
<event>
 5    0  0.5539899E-005  0.2574342E+03  0.7546771E-02  0.1108695E+00
         21   -1    0    0  502  501  0.00000000000E+00  0.00000000000E+00  0.24697156105E+03  0.24697156105E+03  0.00000000000E+00 0. -1.
         21   -1    0    0  501  502 -0.00000000000E+00 -0.00000000000E+00 -0.26834015259E+03  0.26834015259E+03  0.00000000000E+00 0. -1.
         25    1    1    2    0    0 -0.77234530213E+02  0.19287720564E+02 -0.35819777391E+02  0.15246391466E+03  0.12500000000E+03 0.  0.
         25    1    1    2    0    0  0.13637442832E+03 -0.91642141738E+02  0.10938627624E+02  0.20673877337E+03  0.12500000000E+03 0.  0.
         25    1    1    2    0    0 -0.59139898102E+02  0.72354421174E+02  0.35125582336E+01  0.15610902561E+03  0.12500000000E+03 0.  0.
</event>
<event>
 5    0  0.5539899E-005  0.2553845E+03  0.7546771E-02  0.1109948E+00
         21   -1    0    0  502  501  0.00000000000E+00  0.00000000000E+00  0.30985838889E+02  0.30985838889E+02  0.00000000000E+00 0.  1.
         21   -1    0    0  501  502 -0.00000000000E+00 -0.00000000000E+00 -0.21048728566E+04  0.21048728566E+04  0.00000000000E+00 0.  1.
         25    1    1    2    0    0  0.67767434044E+02 -0.56485487890E+02 -0.12224289531E+04  0.12319661444E+04  0.12500000000E+03 0.  0.
         25    1    1    2    0    0  0.24032601449E+02 -0.19804980346E+02 -0.31669617224E+03  0.34189365114E+03  0.12500000000E+03 0.  0.
         25    1    1    2    0    0 -0.91800035493E+02  0.76290468236E+02 -0.53476189235E+03  0.56199889997E+03  0.12500000000E+03 0.  0.
</event>
<event>
 5    0  0.5539899E-005  0.2997571E+03  0.7546771E-02  0.1085362E+00
         21   -1    0    0  502  501  0.00000000000E+00  0.00000000000E+00  0.19522781739E+03  0.19522781739E+03  0.00000000000E+00 0. -1.
         21   -1    0    0  501  502 -0.00000000000E+00 -0.00000000000E+00 -0.46025362810E+03  0.46025362810E+03  0.00000000000E+00 0. -1.
         25    1    1    2    0    0 -0.33732254129E+02  0.14989748724E+03 -0.18270119109E+03  0.26946585475E+03  0.12500000000E+03 0.  0.
         25    1    1    2    0    0  0.36588475049E+02 -0.17534570342E+03 -0.12476369770E+03  0.25154683953E+03  0.12500000000E+03 0.  0.
         25    1    1    2    0    0 -0.28562209198E+01  0.25448216182E+02  0.42439078073E+02  0.13446875121E+03  0.12500000000E+03 0.  0.
</event>
<event>
 5    0  0.5539899E-005  0.2283867E+03  0.7546771E-02  0.1127780E+00
         21   -1    0    0  502  501  0.00000000000E+00  0.00000000000E+00  0.42395800888E+02  0.42395800888E+02  0.00000000000E+00 0. -1.
         21   -1    0    0  501  502 -0.00000000000E+00 -0.00000000000E+00 -0.12303223757E+04  0.12303223757E+04  0.00000000000E+00 0. -1.
         25    1    1    2    0    0  0.49432452562E+01  0.51103285256E+02 -0.22069864925E+03  0.25878345237E+03  0.12500000000E+03 0.  0.
         25    1    1    2    0    0 -0.26012074113E+02 -0.44055331550E+02 -0.75214993056E+03  0.76418061888E+03  0.12500000000E+03 0.  0.
         25    1    1    2    0    0  0.21068828857E+02 -0.70479537061E+01 -0.21507799503E+03  0.24975410537E+03  0.12500000000E+03 0.  0.
</event>
<event>
 5    0  0.5539899E-005  0.8844741E+03  0.7546771E-02  0.9445200E-01
         21   -1    0    0  502  501  0.00000000000E+00  0.00000000000E+00  0.46521246122E+03  0.46521246122E+03  0.00000000000E+00 0.  1.
         21   -1    0    0  501  502 -0.00000000000E+00 -0.00000000000E+00 -0.16815852896E+04  0.16815852896E+04  0.00000000000E+00 0.  1.
         25    1    1    2    0    0  0.18329897627E+03  0.39442987040E+03  0.69283330611E+01  0.45259964557E+03  0.12500000000E+03 0.  0.
         25    1    1    2    0    0  0.12659089355E+03  0.12656278461E+02  0.14383450257E+03  0.22912616578E+03  0.12500000000E+03 0.  0.
         25    1    1    2    0    0 -0.30988986982E+03 -0.40708614887E+03 -0.13671356640E+04  0.14650719395E+04  0.12500000000E+03 0.  0.
</event>
<event>
 5    0  0.5539899E-005  0.3151678E+03  0.7546771E-02  0.1077895E+00
         21   -1    0    0  502  501  0.00000000000E+00  0.00000000000E+00  0.14139269614E+03  0.14139269614E+03  0.00000000000E+00 0.  1.
         21   -1    0    0  501  502 -0.00000000000E+00 -0.00000000000E+00 -0.70251665364E+03  0.70251665364E+03  0.00000000000E+00 0.  1.
         25    1    1    2    0    0  0.50249498358E+02  0.23189229475E+03 -0.22685474094E+03  0.35126503091E+03  0.12500000000E+03 0.  0.
         25    1    1    2    0    0 -0.37402131377E+02 -0.16494581324E+03 -0.25190785776E+03  0.32815942702E+03  0.12500000000E+03 0.  0.
         25    1    1    2    0    0 -0.12847366981E+02 -0.66946481512E+02 -0.82361358803E+02  0.16448489186E+03  0.12500000000E+03 0.  0.
</event>
<event>
 5    0  0.5539899E-005  0.2779077E+03  0.7546771E-02  0.1096837E+00
         21   -1    0    0  502  501  0.00000000000E+00  0.00000000000E+00  0.14226658595E+04  0.14226658595E+04  0.00000000000E+00 0.  1.
         21   -1    0    0  501  502 -0.00000000000E+00 -0.00000000000E+00 -0.54287298776E+02  0.54287298776E+02  0.00000000000E+00 0.  1.
         25    1    1    2    0    0 -0.35349407427E+02 -0.40629941082E+02  0.22558125114E+03  0.26346209136E+03  0.12500000000E+03 0.  0.
         25    1    1    2    0    0  0.83324678745E+02  0.75365984147E+02  0.10024296894E+04  0.10164218198E+04  0.12500000000E+03 0.  0.
         25    1    1    2    0    0 -0.47975271318E+02 -0.34736043065E+02  0.14036762017E+03  0.19706924706E+03  0.12500000000E+03 0.  0.
</event>
<event>
 5    0  0.5539899E-005  0.2210721E+03  0.7546771E-02  0.1133086E+00
         21   -1    0    0  502  501  0.00000000000E+00  0.00000000000E+00  0.51313170372E+03  0.51313170372E+03  0.00000000000E+00 0. -1.
         21   -1    0    0  501  502 -0.00000000000E+00 -0.00000000000E+00 -0.95244293440E+02  0.95244293440E+02  0.00000000000E+00 0. -1.
         25    1    1    2    0    0 -0.13099715649E+02 -0.38275869909E+02  0.14970374959E+03  0.19918046442E+03  0.12500000000E+03 0.  0.
         25    1    1    2    0    0  0.82641199006E+02 -0.25389360593E+02  0.12040196104E+03  0.19389641468E+03  0.12500000000E+03 0.  0.
         25    1    1    2    0    0 -0.69541483358E+02  0.63665230502E+02  0.14778169965E+03  0.21529911806E+03  0.12500000000E+03 0.  0.
</event>
<event>
 5    0  0.5539899E-005  0.2755654E+03  0.7546771E-02  0.1098136E+00
         21   -1    0    0  502  501  0.00000000000E+00  0.00000000000E+00  0.83169864751E+03  0.83169864751E+03  0.00000000000E+00 0. -1.
         21   -1    0    0  501  502 -0.00000000000E+00 -0.00000000000E+00 -0.91302671478E+02  0.91302671478E+02  0.00000000000E+00 0. -1.
         25    1    1    2    0    0 -0.39306800164E+02  0.85548217707E+01  0.10237244694E+03  0.16650323542E+03  0.12500000000E+03 0.  0.
         25    1    1    2    0    0  0.14705928340E+03 -0.48763989932E+02  0.49816912548E+03  0.53647165548E+03  0.12500000000E+03 0.  0.
         25    1    1    2    0    0 -0.10775248323E+03  0.40209168161E+02  0.13985440361E+03  0.22002642809E+03  0.12500000000E+03 0.  0.
</event>
<event>
 5    0  0.5539899E-005  0.3122217E+03  0.7546771E-02  0.1079286E+00
         21   -1    0    0  502  501  0.00000000000E+00  0.00000000000E+00  0.25483410073E+03  0.25483410073E+03  0.00000000000E+00 0.  1.
         21   -1    0    0  501  502 -0.00000000000E+00 -0.00000000000E+00 -0.38253264474E+03  0.38253264474E+03  0.00000000000E+00 0.  1.
         25    1    1    2    0    0  0.34480317256E+02  0.46903046983E+02 -0.24429238718E+03  0.28052193947E+03  0.12500000000E+03 0.  0.
         25    1    1    2    0    0 -0.71514652077E+02 -0.11928424372E+03  0.50218474202E+02  0.19362327188E+03  0.12500000000E+03 0.  0.
         25    1    1    2    0    0  0.37034334822E+02  0.72381196732E+02  0.66375368961E+02  0.16322153412E+03  0.12500000000E+03 0.  0.
</event>
<event>
 5    0  0.5539899E-005  0.3119207E+03  0.7546771E-02  0.1079429E+00
         21   -1    0    0  502  501  0.00000000000E+00  0.00000000000E+00  0.28097698780E+03  0.28097698780E+03  0.00000000000E+00 0.  1.
         21   -1    0    0  501  502 -0.00000000000E+00 -0.00000000000E+00 -0.34627211397E+03  0.34627211397E+03  0.00000000000E+00 0.  1.
         25    1    1    2    0    0 -0.57041232241E+02 -0.13697357002E+03 -0.17362693204E+03  0.26035893031E+03  0.12500000000E+03 0.  0.
         25    1    1    2    0    0  0.11598463594E+03  0.27960780459E+02  0.35555346797E+02  0.17641832020E+03  0.12500000000E+03 0.  0.
         25    1    1    2    0    0 -0.58943403695E+02  0.10901278957E+03  0.72776459068E+02  0.19047185126E+03  0.12500000000E+03 0.  0.
</event>
<event>
 5    0  0.5539899E-005  0.2001498E+03  0.7546771E-02  0.1149613E+00
         21   -1    0    0  502  501  0.00000000000E+00  0.00000000000E+00  0.32062674943E+03  0.32062674943E+03  0.00000000000E+00 0.  1.
         21   -1    0    0  501  502 -0.00000000000E+00 -0.00000000000E+00 -0.12494262647E+03  0.12494262647E+03  0.00000000000E+00 0.  1.
         25    1    1    2    0    0 -0.23718337177E+02 -0.50257795803E+01  0.67022611155E+02  0.14389179401E+03  0.12500000000E+03 0.  0.
         25    1    1    2    0    0  0.38454882258E+02 -0.86628151144E+01  0.15705667503E+02  0.13200564506E+03  0.12500000000E+03 0.  0.
         25    1    1    2    0    0 -0.14736545082E+02  0.13688594695E+02  0.11295584430E+03  0.16967193683E+03  0.12500000000E+03 0.  0.
</event>
<event>
 5    0  0.5539899E-005  0.4446611E+03  0.7546771E-02  0.1029326E+00
         21   -1    0    0  502  501  0.00000000000E+00  0.00000000000E+00  0.93778641869E+02  0.93778641869E+02  0.00000000000E+00 0. -1.
         21   -1    0    0  501  502 -0.00000000000E+00 -0.00000000000E+00 -0.21084067270E+04  0.21084067270E+04  0.00000000000E+00 0. -1.
         25    1    1    2    0    0  0.19957421290E+02 -0.34641972577E+02 -0.95797399969E+03  0.96692168712E+03  0.12500000000E+03 0.  0.
         25    1    1    2    0    0  0.24071727059E+03  0.70440705144E+02 -0.24259360115E+03  0.37065260368E+03  0.12500000000E+03 0.  0.
         25    1    1    2    0    0 -0.26067469188E+03 -0.35798732567E+02 -0.81406048428E+03  0.86461107806E+03  0.12500000000E+03 0.  0.
</event>
<event>
 5    0  0.5539899E-005  0.3837389E+03  0.7546771E-02  0.1049560E+00
         21   -1    0    0  502  501  0.00000000000E+00  0.00000000000E+00  0.56038641474E+03  0.56038641474E+03  0.00000000000E+00 0. -1.
         21   -1    0    0  501  502 -0.00000000000E+00 -0.00000000000E+00 -0.26277495329E+03  0.26277495329E+03  0.00000000000E+00 0. -1.
         25    1    1    2    0    0 -0.21283624958E+03  0.13854988699E+03  0.24313092758E+03  0.37313936842E+03  0.12500000000E+03 0.  0.
         25    1    1    2    0    0  0.16764889751E+03 -0.21752081815E+02  0.14090832999E+03  0.25309971031E+03  0.12500000000E+03 0.  0.
         25    1    1    2    0    0  0.45187352072E+02 -0.11679780518E+03 -0.86427796108E+02  0.19692228930E+03  0.12500000000E+03 0.  0.
</event>
<event>
 5    0  0.5539899E-005  0.3731499E+03  0.7546771E-02  0.1053495E+00
         21   -1    0    0  502  501  0.00000000000E+00  0.00000000000E+00  0.20126416372E+03  0.20126416372E+03  0.00000000000E+00 0.  1.
         21   -1    0    0  501  502 -0.00000000000E+00 -0.00000000000E+00 -0.69183148245E+03  0.69183148245E+03  0.00000000000E+00 0.  1.
         25    1    1    2    0    0 -0.21676780274E+02 -0.54314331602E+01 -0.24960189896E+02  0.12941172416E+03  0.12500000000E+03 0.  0.
         25    1    1    2    0    0 -0.17779162957E+03 -0.14095786262E+03 -0.40367820832E+03  0.47964578436E+03  0.12500000000E+03 0.  0.
         25    1    1    2    0    0  0.19946840985E+03  0.14638929578E+03 -0.61928920513E+02  0.28403813765E+03  0.12500000000E+03 0.  0.
</event>
<event>
 5    0  0.5539899E-005  0.2454578E+03  0.7546771E-02  0.1116210E+00
         21   -1    0    0  502  501  0.00000000000E+00  0.00000000000E+00  0.13407579623E+03  0.13407579623E+03  0.00000000000E+00 0. -1.
         21   -1    0    0  501  502 -0.00000000000E+00 -0.00000000000E+00 -0.44936903040E+03  0.44936903040E+03  0.00000000000E+00 0. -1.
         25    1    1    2    0    0  0.53324728001E+02  0.54696368638E+01 -0.24160749617E+02  0.13813828349E+03  0.12500000000E+03 0.  0.
         25    1    1    2    0    0  0.54171536251E+01  0.95356677902E+02 -0.89741438394E+02  0.18110982121E+03  0.12500000000E+03 0.  0.
         25    1    1    2    0    0 -0.58741881626E+02 -0.10082631477E+03 -0.20139104616E+03  0.26419672193E+03  0.12500000000E+03 0.  0.
</event>
<event>
 5    0  0.5539899E-005  0.2671346E+03  0.7546771E-02  0.1102931E+00
         21   -1    0    0  502  501  0.00000000000E+00  0.00000000000E+00  0.10362571115E+03  0.10362571115E+03  0.00000000000E+00 0. -1.
         21   -1    0    0  501  502 -0.00000000000E+00 -0.00000000000E+00 -0.68864064603E+03  0.68864064603E+03  0.00000000000E+00 0. -1.
         25    1    1    2    0    0 -0.59298879294E+02  0.91516718149E+02 -0.21721299829E+03  0.27330962920E+03  0.12500000000E+03 0.  0.
         25    1    1    2    0    0 -0.79696141031E+02 -0.67705984135E+01 -0.90000146203E+02  0.17355789298E+03  0.12500000000E+03 0.  0.
         25    1    1    2    0    0  0.13899502033E+03 -0.84746119735E+02 -0.27780179038E+03  0.34539883501E+03  0.12500000000E+03 0.  0.
</event>
<event>
 5    0  0.5539899E-005  0.2805949E+03  0.7546771E-02  0.1095364E+00
         21   -1    0    0  502  501  0.00000000000E+00  0.00000000000E+00  0.54752311382E+03  0.54752311382E+03  0.00000000000E+00 0.  1.
         21   -1    0    0  501  502 -0.00000000000E+00 -0.00000000000E+00 -0.14379937719E+03  0.14379937719E+03  0.00000000000E+00 0.  1.
         25    1    1    2    0    0 -0.59202274902E+02  0.48365875769E+02  0.31515679091E+02  0.14987463201E+03  0.12500000000E+03 0.  0.
         25    1    1    2    0    0  0.56324079807E+01  0.83958136135E+02  0.30492300725E+03  0.34012311447E+03  0.12500000000E+03 0.  0.
         25    1    1    2    0    0  0.53569866921E+02 -0.13232401190E+03  0.67285050278E+02  0.20132474453E+03  0.12500000000E+03 0.  0.
</event>
<event>
 5    0  0.5539899E-005  0.5047110E+03  0.7546771E-02  0.1012557E+00
         21   -1    0    0  502  501  0.00000000000E+00  0.00000000000E+00  0.11202470198E+04  0.11202470198E+04  0.00000000000E+00 0. -1.
         21   -1    0    0  501  502 -0.00000000000E+00 -0.00000000000E+00 -0.22739015800E+03  0.22739015800E+03  0.00000000000E+00 0. -1.
         25    1    1    2    0    0  0.14540676387E+03 -0.42884400377E+03  0.36014090681E+03  0.59192632929E+03  0.12500000000E+03 0.  0.
         25    1    1    2    0    0 -0.12988341723E+03  0.25914509821E+03  0.24969366182E+03  0.40248951384E+03  0.12500000000E+03 0.  0.
         25    1    1    2    0    0 -0.15523346641E+02  0.16969890556E+03  0.28302229315E+03  0.35322133466E+03  0.12500000000E+03 0.  0.
</event>
<event>
 5    0  0.5539899E-005  0.4029075E+03  0.7546771E-02  0.1042778E+00
         21   -1    0    0  502  501  0.00000000000E+00  0.00000000000E+00  0.64014544986E+03  0.64014544986E+03  0.00000000000E+00 0.  1.
         21   -1    0    0  501  502 -0.00000000000E+00 -0.00000000000E+00 -0.25358990299E+03  0.25358990299E+03  0.00000000000E+00 0.  1.
         25    1    1    2    0    0  0.14334217690E+03 -0.19295472044E+03  0.11749305714E+03  0.29531021366E+03  0.12500000000E+03 0.  0.
         25    1    1    2    0    0  0.70571656171E+01 -0.11449521971E+03  0.97507978174E+02  0.19568281665E+03  0.12500000000E+03 0.  0.
         25    1    1    2    0    0 -0.15039934252E+03  0.30744994015E+03  0.17155451156E+03  0.40274232254E+03  0.12500000000E+03 0.  0.
</event>
<event>
 5    0  0.5539899E-005  0.2066976E+03  0.7546771E-02  0.1144208E+00
         21   -1    0    0  502  501  0.00000000000E+00  0.00000000000E+00  0.27857222977E+02  0.27857222977E+02  0.00000000000E+00 0.  1.
         21   -1    0    0  501  502 -0.00000000000E+00 -0.00000000000E+00 -0.15336732430E+04  0.15336732430E+04  0.00000000000E+00 0.  1.
         25    1    1    2    0    0 -0.31200345087E+02  0.35654122761E+02 -0.61544752663E+03  0.62979785332E+03  0.12500000000E+03 0.  0.
         25    1    1    2    0    0  0.35323302947E+02  0.28409740216E+02 -0.39231636211E+03  0.41423661963E+03  0.12500000000E+03 0.  0.
         25    1    1    2    0    0 -0.41229578605E+01 -0.64063862977E+02 -0.49805213130E+03  0.51749599304E+03  0.12500000000E+03 0.  0.
</event>
<event>
 5    0  0.5539899E-005  0.3406368E+03  0.7546771E-02  0.1066525E+00
         21   -1    0    0  502  501  0.00000000000E+00  0.00000000000E+00  0.14719795663E+03  0.14719795663E+03  0.00000000000E+00 0.  1.
         21   -1    0    0  501  502 -0.00000000000E+00 -0.00000000000E+00 -0.78828143976E+03  0.78828143976E+03  0.00000000000E+00 0.  1.
         25    1    1    2    0    0  0.93494026505E+02  0.23678639043E+02 -0.14964592047E+03  0.21753324448E+03  0.12500000000E+03 0.  0.
         25    1    1    2    0    0 -0.12074858685E+02  0.20858169307E+03 -0.18700539557E+03  0.30699860402E+03  0.12500000000E+03 0.  0.
         25    1    1    2    0    0 -0.81419167819E+02 -0.23226033212E+03 -0.30443216708E+03  0.41094754789E+03  0.12500000000E+03 0.  0.
</event>
<event>
 5    0  0.5539899E-005  0.2423681E+03  0.7546771E-02  0.1118225E+00
         21   -1    0    0  502  501  0.00000000000E+00  0.00000000000E+00  0.66500383277E+03  0.66500383277E+03  0.00000000000E+00 0. -1.
         21   -1    0    0  501  502 -0.00000000000E+00 -0.00000000000E+00 -0.88333806621E+02  0.88333806621E+02  0.00000000000E+00 0. -1.
         25    1    1    2    0    0  0.12772451543E+03 -0.43797604347E+02  0.30797634758E+03  0.35875648100E+03  0.12500000000E+03 0.  0.
         25    1    1    2    0    0 -0.68378372294E+02  0.20286346057E+01  0.15614435593E+03  0.21139010631E+03  0.12500000000E+03 0.  0.
         25    1    1    2    0    0 -0.59346143137E+02  0.41768969741E+02  0.11254932264E+03  0.18319105209E+03  0.12500000000E+03 0.  0.
</event>
<event>
 5    0  0.5539899E-005  0.2375158E+03  0.7546771E-02  0.1121459E+00
         21   -1    0    0  502  501  0.00000000000E+00  0.00000000000E+00  0.28222409548E+03  0.28222409548E+03  0.00000000000E+00 0. -1.
         21   -1    0    0  501  502 -0.00000000000E+00 -0.00000000000E+00 -0.19988985138E+03  0.19988985138E+03  0.00000000000E+00 0. -1.
         25    1    1    2    0    0  0.64401484923E+02 -0.11792254455E+03  0.24715565481E+02  0.18517326198E+03  0.12500000000E+03 0.  0.
         25    1    1    2    0    0 -0.10454668579E+02  0.71255578337E+02  0.71914247414E+01  0.14444159418E+03  0.12500000000E+03 0.  0.
         25    1    1    2    0    0 -0.53946816344E+02  0.46666966218E+02  0.50427253882E+02  0.15249909070E+03  0.12500000000E+03 0.  0.
</event>
<event>
 5    0  0.5539899E-005  0.4511458E+03  0.7546771E-02  0.1027381E+00
         21   -1    0    0  502  501  0.00000000000E+00  0.00000000000E+00  0.22562485174E+03  0.22562485174E+03  0.00000000000E+00 0.  1.
         21   -1    0    0  501  502 -0.00000000000E+00 -0.00000000000E+00 -0.90208376988E+03  0.90208376988E+03  0.00000000000E+00 0.  1.
         25    1    1    2    0    0 -0.23154303991E+03  0.14565663965E+03 -0.67597229321E+02  0.30825707035E+03  0.12500000000E+03 0.  0.
         25    1    1    2    0    0  0.32959410161E+03 -0.15597799649E+03 -0.38547852777E+03  0.54514227737E+03  0.12500000000E+03 0.  0.
         25    1    1    2    0    0 -0.98051061701E+02  0.10321356835E+02 -0.22338316106E+03  0.27430927391E+03  0.12500000000E+03 0.  0.
</event>
<event>
 5    0  0.5539899E-005  0.2966245E+03  0.7546771E-02  0.1086940E+00
         21   -1    0    0  502  501  0.00000000000E+00  0.00000000000E+00  0.11364439293E+04  0.11364439293E+04  0.00000000000E+00 0. -1.
         21   -1    0    0  501  502 -0.00000000000E+00 -0.00000000000E+00 -0.77422308286E+02  0.77422308286E+02  0.00000000000E+00 0. -1.
         25    1    1    2    0    0 -0.11696047883E+01 -0.62087872859E+02  0.41208931247E+03  0.43508490365E+03  0.12500000000E+03 0.  0.
         25    1    1    2    0    0 -0.10718072292E+03  0.10940737517E+03  0.13678798461E+03  0.24040306538E+03  0.12500000000E+03 0.  0.
         25    1    1    2    0    0  0.10835032771E+03 -0.47319502315E+02  0.51014432389E+03  0.53837826852E+03  0.12500000000E+03 0.  0.
</event>
<event>
 5    0  0.5539899E-005  0.6147867E+03  0.7546771E-02  0.9875195E-01
         21   -1    0    0  502  501  0.00000000000E+00  0.00000000000E+00  0.71152032107E+03  0.71152032107E+03  0.00000000000E+00 0. -1.
         21   -1    0    0  501  502 -0.00000000000E+00 -0.00000000000E+00 -0.53120426714E+03  0.53120426714E+03  0.00000000000E+00 0. -1.
         25    1    1    2    0    0  0.20286742081E+02  0.40621200840E+03  0.32580671406E+03  0.53590555381E+03  0.12500000000E+03 0.  0.
         25    1    1    2    0    0  0.10842457447E+03 -0.29089758223E+02  0.12485792352E+03  0.20932415878E+03  0.12500000000E+03 0.  0.
         25    1    1    2    0    0 -0.12871131655E+03 -0.37712225018E+03 -0.27034858365E+03  0.49749487562E+03  0.12500000000E+03 0.  0.
</event>
<event>
 5    0  0.8439898E-005  0.5937731E+03  0.7546771E-02  0.9918410E-01
         21   -1    0    0  502  501  0.00000000000E+00  0.00000000000E+00  0.92527032928E+03  0.92527032928E+03  0.00000000000E+00 0. -1.
         21   -1    0    0  501  502 -0.00000000000E+00 -0.00000000000E+00 -0.38104162313E+03  0.38104162313E+03  0.00000000000E+00 0. -1.
         25    1    1    2    0    0 -0.67700670294E+02 -0.33014090100E+03  0.96024954296E+02  0.37205132323E+03  0.12500000000E+03 0.  0.
         25    1    1    2    0    0 -0.30014518267E+03  0.26700118596E+03  0.17790514413E+03  0.45678441774E+03  0.12500000000E+03 0.  0.
         25    1    1    2    0    0  0.36784585296E+03  0.63139715040E+02  0.27029860772E+03  0.47747621144E+03  0.12500000000E+03 0.  0.
</event>
<event>
 5    0  0.5539899E-005  0.4535040E+03  0.7546771E-02  0.1026682E+00
         21   -1    0    0  502  501  0.00000000000E+00  0.00000000000E+00  0.81487408507E+02  0.81487408507E+02  0.00000000000E+00 0.  1.
         21   -1    0    0  501  502 -0.00000000000E+00 -0.00000000000E+00 -0.25238976487E+04  0.25238976487E+04  0.00000000000E+00 0.  1.
         25    1    1    2    0    0  0.15306131149E+03 -0.32587435854E+03 -0.69044629795E+03  0.78864627874E+03  0.12500000000E+03 0.  0.
         25    1    1    2    0    0 -0.17907440461E+03  0.17214407490E+03 -0.91971235451E+03  0.96083143160E+03  0.12500000000E+03 0.  0.
         25    1    1    2    0    0  0.26013093124E+02  0.15373028364E+03 -0.83225158771E+03  0.85590734684E+03  0.12500000000E+03 0.  0.
</event>
<event>
 5    0  0.5539899E-005  0.1985141E+03  0.7546771E-02  0.1150999E+00
         21   -1    0    0  502  501  0.00000000000E+00  0.00000000000E+00  0.19213814242E+02  0.19213814242E+02  0.00000000000E+00 0. -1.
         21   -1    0    0  501  502 -0.00000000000E+00 -0.00000000000E+00 -0.20510167386E+04  0.20510167386E+04  0.00000000000E+00 0. -1.
         25    1    1    2    0    0  0.43474123658E+02  0.31493209186E+02 -0.68016405947E+03  0.69363532886E+03  0.12500000000E+03 0.  0.
         25    1    1    2    0    0 -0.32849883839E+02  0.44656537855E+01 -0.60934354220E+03  0.62291541107E+03  0.12500000000E+03 0.  0.
         25    1    1    2    0    0 -0.10624239819E+02 -0.35958862972E+02 -0.74229532271E+03  0.75367981293E+03  0.12500000000E+03 0.  0.
</event>
<event>
 5    0  0.5539899E-005  0.3153734E+03  0.7546771E-02  0.1077799E+00
         21   -1    0    0  502  501  0.00000000000E+00  0.00000000000E+00  0.60543201169E+03  0.60543201169E+03  0.00000000000E+00 0.  1.
         21   -1    0    0  501  502 -0.00000000000E+00 -0.00000000000E+00 -0.16428001768E+03  0.16428001768E+03  0.00000000000E+00 0.  1.
         25    1    1    2    0    0 -0.11515752123E+03 -0.18462917460E+03  0.13810449273E+03  0.28643854092E+03  0.12500000000E+03 0.  0.
         25    1    1    2    0    0  0.90361045729E+02  0.10891216161E+03  0.59153536705E+02  0.19786641564E+03  0.12500000000E+03 0.  0.
         25    1    1    2    0    0  0.24796475505E+02  0.75717012990E+02  0.24389396458E+03  0.28540707281E+03  0.12500000000E+03 0.  0.
</event>
<event>
 5    0  0.5539899E-005  0.3388638E+03  0.7546771E-02  0.1067281E+00
         21   -1    0    0  502  501  0.00000000000E+00  0.00000000000E+00  0.94473834930E+02  0.94473834930E+02  0.00000000000E+00 0.  1.
         21   -1    0    0  501  502 -0.00000000000E+00 -0.00000000000E+00 -0.12154549620E+04  0.12154549620E+04  0.00000000000E+00 0.  1.
         25    1    1    2    0    0  0.18583684196E+03 -0.38429570058E+02 -0.28903495480E+03  0.36766611046E+03  0.12500000000E+03 0.  0.
         25    1    1    2    0    0 -0.55105022324E+02  0.13416047921E+03 -0.19516214905E+03  0.27340238128E+03  0.12500000000E+03 0.  0.
         25    1    1    2    0    0 -0.13073181964E+03 -0.95730909151E+02 -0.63678402325E+03  0.66886030522E+03  0.12500000000E+03 0.  0.
</event>
<event>
 5    0  0.5539899E-005  0.3108379E+03  0.7546771E-02  0.1079945E+00
         21   -1    0    0  502  501  0.00000000000E+00  0.00000000000E+00  0.20321157369E+03  0.20321157369E+03  0.00000000000E+00 0. -1.
         21   -1    0    0  501  502 -0.00000000000E+00 -0.00000000000E+00 -0.47546617179E+03  0.47546617179E+03  0.00000000000E+00 0. -1.
         25    1    1    2    0    0 -0.43716942397E+02 -0.14719455720E+03 -0.30261015339E+03  0.36162869584E+03  0.12500000000E+03 0.  0.
         25    1    1    2    0    0  0.64779452536E+02  0.49585118962E+02  0.46267803040E+02  0.15627146602E+03  0.12500000000E+03 0.  0.
         25    1    1    2    0    0 -0.21062510139E+02  0.97609438237E+02 -0.15912247746E+02  0.16077758362E+03  0.12500000000E+03 0.  0.
</event>
<event>
 5    0  0.5539899E-005  0.2562369E+03  0.7546771E-02  0.1109425E+00
         21   -1    0    0  502  501  0.00000000000E+00  0.00000000000E+00  0.35781474169E+02  0.35781474169E+02  0.00000000000E+00 0. -1.
         21   -1    0    0  501  502 -0.00000000000E+00 -0.00000000000E+00 -0.18349541035E+04  0.18349541035E+04  0.00000000000E+00 0. -1.
         25    1    1    2    0    0 -0.13444205346E+02 -0.10420706039E+02 -0.10320000118E+04  0.10396818562E+04  0.12500000000E+03 0.  0.
         25    1    1    2    0    0 -0.65489451549E+02 -0.62775616081E+02 -0.35999405411E+03  0.39172741190E+03  0.12500000000E+03 0.  0.
         25    1    1    2    0    0  0.78933656894E+02  0.73196322120E+02 -0.40717856339E+03  0.43932630953E+03  0.12500000000E+03 0.  0.
</event>
<event>
 5    0  0.6073032E-005  0.3326617E+03  0.7546771E-02  0.1069965E+00
         21   -1    0    0  502  501  0.00000000000E+00  0.00000000000E+00  0.26437598725E+03  0.26437598725E+03  0.00000000000E+00 0. -1.
         21   -1    0    0  501  502 -0.00000000000E+00 -0.00000000000E+00 -0.41858486254E+03  0.41858486254E+03  0.00000000000E+00 0. -1.
         25    1    1    2    0    0  0.54530866419E+02 -0.11619929412E+03 -0.19886142660E+03  0.26766912100E+03  0.12500000000E+03 0.  0.
         25    1    1    2    0    0  0.97749027035E+02  0.61592219636E+01  0.93669028468E+02  0.18436836821E+03  0.12500000000E+03 0.  0.
         25    1    1    2    0    0 -0.15227989345E+03  0.11004007216E+03 -0.49016477156E+02  0.23092336059E+03  0.12500000000E+03 0.  0.
</event>
<event>
 5    0  0.5539899E-005  0.2769609E+03  0.7546771E-02  0.1097361E+00
         21   -1    0    0  502  501  0.00000000000E+00  0.00000000000E+00  0.18545352461E+03  0.18545352461E+03  0.00000000000E+00 0. -1.
         21   -1    0    0  501  502 -0.00000000000E+00 -0.00000000000E+00 -0.41362023352E+03  0.41362023352E+03  0.00000000000E+00 0. -1.
         25    1    1    2    0    0 -0.98011726234E+02 -0.34727982745E+02 -0.55561101663E+02  0.17182656163E+03  0.12500000000E+03 0.  0.
         25    1    1    2    0    0 -0.64616688161E+02 -0.53722174734E+02 -0.13186583477E+03  0.20018737929E+03  0.12500000000E+03 0.  0.
         25    1    1    2    0    0  0.16262841440E+03  0.88450157479E+02 -0.40739772473E+02  0.22705981720E+03  0.12500000000E+03 0.  0.
</event>
<event>
 5    0  0.5539899E-005  0.2565886E+03  0.7546771E-02  0.1109210E+00
         21   -1    0    0  502  501  0.00000000000E+00  0.00000000000E+00  0.25958842357E+03  0.25958842357E+03  0.00000000000E+00 0.  1.
         21   -1    0    0  501  502 -0.00000000000E+00 -0.00000000000E+00 -0.25362335225E+03  0.25362335225E+03  0.00000000000E+00 0.  1.
         25    1    1    2    0    0 -0.22593548945E+02  0.98367903384E+02 -0.15217130303E+02  0.16137928592E+03  0.12500000000E+03 0.  0.
         25    1    1    2    0    0 -0.34104166813E+02 -0.57470218495E+02 -0.92262616279E+02  0.16912513288E+03  0.12500000000E+03 0.  0.
         25    1    1    2    0    0  0.56697715758E+02 -0.40897684888E+02  0.11344481790E+03  0.18270735702E+03  0.12500000000E+03 0.  0.
</event>
<event>
 5    0  0.6337878E-005  0.2902737E+03  0.7546771E-02  0.1090206E+00
         21   -1    0    0  502  501  0.00000000000E+00  0.00000000000E+00  0.10757122882E+03  0.10757122882E+03  0.00000000000E+00 0. -1.
         21   -1    0    0  501  502 -0.00000000000E+00 -0.00000000000E+00 -0.78328405023E+03  0.78328405023E+03  0.00000000000E+00 0. -1.
         25    1    1    2    0    0 -0.77817209751E+02  0.68169919321E+02 -0.63485582677E+02  0.17423568877E+03  0.12500000000E+03 0.  0.
         25    1    1    2    0    0  0.10346387433E+03  0.53658368106E+02 -0.17252946822E+03  0.24284853544E+03  0.12500000000E+03 0.  0.
         25    1    1    2    0    0 -0.25646664575E+02 -0.12182828743E+03 -0.43969777051E+03  0.47377105485E+03  0.12500000000E+03 0.  0.
</event>
<event>
 5    0  0.5539899E-005  0.4528116E+03  0.7546771E-02  0.1026887E+00
         21   -1    0    0  502  501  0.00000000000E+00  0.00000000000E+00  0.20603473203E+03  0.20603473203E+03  0.00000000000E+00 0. -1.
         21   -1    0    0  501  502 -0.00000000000E+00 -0.00000000000E+00 -0.99516403766E+03  0.99516403766E+03  0.00000000000E+00 0. -1.
         25    1    1    2    0    0 -0.21398699134E+03 -0.97005360098E+02 -0.74331419322E+03  0.78951976681E+03  0.12500000000E+03 0.  0.
         25    1    1    2    0    0  0.14898994789E+03 -0.23039141090E+02 -0.98520331057E+02  0.21922605280E+03  0.12500000000E+03 0.  0.
         25    1    1    2    0    0  0.64997043447E+02  0.12004450119E+03  0.52705218644E+02  0.19245295008E+03  0.12500000000E+03 0.  0.
</event>
<event>
 5    0  0.5539899E-005  0.3102879E+03  0.7546771E-02  0.1080208E+00
         21   -1    0    0  502  501  0.00000000000E+00  0.00000000000E+00  0.77837224462E+03  0.77837224462E+03  0.00000000000E+00 0.  1.
         21   -1    0    0  501  502 -0.00000000000E+00 -0.00000000000E+00 -0.12369218026E+03  0.12369218026E+03  0.00000000000E+00 0.  1.
         25    1    1    2    0    0 -0.65578875267E+02 -0.14266498569E+03  0.68736586375E+02  0.21214053203E+03  0.12500000000E+03 0.  0.
         25    1    1    2    0    0 -0.35601114813E+02  0.14850644791E+03  0.25995584303E+03  0.32637960226E+03  0.12500000000E+03 0.  0.
         25    1    1    2    0    0  0.10117999008E+03 -0.58414622209E+01  0.32598763495E+03  0.36354429058E+03  0.12500000000E+03 0.  0.
</event>
<event>
 5    0  0.5539899E-005  0.2232722E+03  0.7546771E-02  0.1131467E+00
         21   -1    0    0  502  501  0.00000000000E+00  0.00000000000E+00  0.90718089639E+03  0.90718089639E+03  0.00000000000E+00 0.  1.
         21   -1    0    0  501  502 -0.00000000000E+00 -0.00000000000E+00 -0.54950993421E+02  0.54950993421E+02  0.00000000000E+00 0.  1.
         25    1    1    2    0    0  0.30435632791E+02 -0.28361118087E+02  0.44477577962E+03  0.46387624955E+03  0.12500000000E+03 0.  0.
         25    1    1    2    0    0 -0.81769540721E+02  0.12442638157E+02  0.19467505231E+03  0.24569178461E+03  0.12500000000E+03 0.  0.
         25    1    1    2    0    0  0.51333907929E+02  0.15918479930E+02  0.21277907105E+03  0.25256385565E+03  0.12500000000E+03 0.  0.
</event>
<event>
 5    0  0.5539899E-005  0.3473478E+03  0.7546771E-02  0.1063709E+00
         21   -1    0    0  502  501  0.00000000000E+00  0.00000000000E+00  0.13097074807E+04  0.13097074807E+04  0.00000000000E+00 0.  1.
         21   -1    0    0  501  502 -0.00000000000E+00 -0.00000000000E+00 -0.92120185061E+02  0.92120185061E+02  0.00000000000E+00 0.  1.
         25    1    1    2    0    0 -0.10304619195E+03 -0.14508681915E+03  0.60713739749E+03  0.64491047611E+03  0.12500000000E+03 0.  0.
         25    1    1    2    0    0 -0.10857543335E+03  0.10205514187E+02  0.25497709909E+03  0.30418924752E+03  0.12500000000E+03 0.  0.
         25    1    1    2    0    0  0.21162162530E+03  0.13488130497E+03  0.35547279911E+03  0.45272794218E+03  0.12500000000E+03 0.  0.
</event>
<event>
 5    0  0.5539899E-005  0.2301130E+03  0.7546771E-02  0.1126560E+00
         21   -1    0    0  502  501  0.00000000000E+00  0.00000000000E+00  0.10525561342E+03  0.10525561342E+03  0.00000000000E+00 0. -1.
         21   -1    0    0  501  502 -0.00000000000E+00 -0.00000000000E+00 -0.50307989427E+03  0.50307989427E+03  0.00000000000E+00 0. -1.
         25    1    1    2    0    0  0.37456205646E+02 -0.31710462753E+02 -0.25283014968E+03  0.28628064094E+03  0.12500000000E+03 0.  0.
         25    1    1    2    0    0  0.12122794394E+02  0.75007641475E+02 -0.75482522101E+02  0.16460777493E+03  0.12500000000E+03 0.  0.
         25    1    1    2    0    0 -0.49579000040E+02 -0.43297178722E+02 -0.69511609066E+02  0.15744709183E+03  0.12500000000E+03 0.  0.
</event>
<event>
 5    0  0.6014237E-005  0.3645235E+03  0.7546771E-02  0.1056807E+00
         21   -1    0    0  502  501  0.00000000000E+00  0.00000000000E+00  0.17780296730E+03  0.17780296730E+03  0.00000000000E+00 0. -1.
         21   -1    0    0  501  502 -0.00000000000E+00 -0.00000000000E+00 -0.74732936032E+03  0.74732936032E+03  0.00000000000E+00 0. -1.
         25    1    1    2    0    0  0.17468970207E+03  0.52317141892E+02 -0.40733838124E+03  0.46346858812E+03  0.12500000000E+03 0.  0.
         25    1    1    2    0    0  0.52357114380E+01  0.56451601491E+02  0.41464327424E+02  0.14338230865E+03  0.12500000000E+03 0.  0.
         25    1    1    2    0    0 -0.17992541350E+03 -0.10876874338E+03 -0.20365233920E+03  0.31828143085E+03  0.12500000000E+03 0.  0.
</event>
<event>
 5    0  0.5539899E-005  0.3206677E+03  0.7546771E-02  0.1075342E+00
         21   -1    0    0  502  501  0.00000000000E+00  0.00000000000E+00  0.10607983288E+03  0.10607983288E+03  0.00000000000E+00 0.  1.
         21   -1    0    0  501  502 -0.00000000000E+00 -0.00000000000E+00 -0.96934307549E+03  0.96934307549E+03  0.00000000000E+00 0.  1.
         25    1    1    2    0    0 -0.11432978359E+03 -0.10332274518E+03 -0.37767183655E+03  0.42662384510E+03  0.12500000000E+03 0.  0.
         25    1    1    2    0    0 -0.55994553921E+02  0.51243867453E+02 -0.37953329296E+03  0.40673313670E+03  0.12500000000E+03 0.  0.
         25    1    1    2    0    0  0.17032433751E+03  0.52078877730E+02 -0.10605811309E+03  0.24206592657E+03  0.12500000000E+03 0.  0.
</event>
<event>
 5    0  0.5539899E-005  0.2966206E+03  0.7546771E-02  0.1086942E+00
         21   -1    0    0  502  501  0.00000000000E+00  0.00000000000E+00  0.37672441310E+03  0.37672441310E+03  0.00000000000E+00 0. -1.
         21   -1    0    0  501  502 -0.00000000000E+00 -0.00000000000E+00 -0.23354945408E+03  0.23354945408E+03  0.00000000000E+00 0. -1.
         25    1    1    2    0    0  0.59896425881E+02 -0.20406613354E+03  0.59878398784E+02  0.25385230220E+03  0.12500000000E+03 0.  0.
         25    1    1    2    0    0 -0.45358865245E+02  0.11181969835E+03 -0.11035338915E+02  0.17409149980E+03  0.12500000000E+03 0.  0.
         25    1    1    2    0    0 -0.14537560636E+02  0.92246435182E+02  0.94331899154E+02  0.18233006519E+03  0.12500000000E+03 0.  0.
</event>
<event>
 5    0  0.5539899E-005  0.4350773E+03  0.7546771E-02  0.1032268E+00
         21   -1    0    0  502  501  0.00000000000E+00  0.00000000000E+00  0.32672473512E+03  0.32672473512E+03  0.00000000000E+00 0. -1.
         21   -1    0    0  501  502 -0.00000000000E+00 -0.00000000000E+00 -0.57936305217E+03  0.57936305217E+03  0.00000000000E+00 0. -1.
         25    1    1    2    0    0 -0.17437595514E+03 -0.19567558159E+03 -0.13397002303E+03  0.31979505004E+03  0.12500000000E+03 0.  0.
         25    1    1    2    0    0 -0.28438385257E+02  0.28939014416E+03 -0.43585580137E+02  0.31949976539E+03  0.12500000000E+03 0.  0.
         25    1    1    2    0    0  0.20281434040E+03 -0.93714562567E+02 -0.75082713886E+02  0.26679297186E+03  0.12500000000E+03 0.  0.
</event>
<event>
 5    0  0.5539899E-005  0.3130300E+03  0.7546771E-02  0.1078903E+00
         21   -1    0    0  502  501  0.00000000000E+00  0.00000000000E+00  0.19392012053E+03  0.19392012053E+03  0.00000000000E+00 0. -1.
         21   -1    0    0  501  502 -0.00000000000E+00 -0.00000000000E+00 -0.50529980737E+03  0.50529980737E+03  0.00000000000E+00 0. -1.
         25    1    1    2    0    0 -0.20502519903E+02 -0.38262315635E+02  0.63175053908E+02  0.14663030231E+03  0.12500000000E+03 0.  0.
         25    1    1    2    0    0 -0.50093108581E+02 -0.39902973018E+02  0.37290823406E+01  0.14050079302E+03  0.12500000000E+03 0.  0.
         25    1    1    2    0    0  0.70595628484E+02  0.78165288653E+02 -0.37828382309E+03  0.41208883256E+03  0.12500000000E+03 0.  0.
</event>
<event>
 5    0  0.5539899E-005  0.4284447E+03  0.7546771E-02  0.1034352E+00
         21   -1    0    0  502  501  0.00000000000E+00  0.00000000000E+00  0.36270504082E+03  0.36270504082E+03  0.00000000000E+00 0.  1.
         21   -1    0    0  501  502 -0.00000000000E+00 -0.00000000000E+00 -0.50609945832E+03  0.50609945832E+03  0.00000000000E+00 0.  1.
         25    1    1    2    0    0  0.20155469548E+03  0.37114628983E+02 -0.38519670655E+03  0.45387585714E+03  0.12500000000E+03 0.  0.
         25    1    1    2    0    0 -0.11146111987E+03  0.23824178885E+02  0.14648471530E+03  0.22377208172E+03  0.12500000000E+03 0.  0.
         25    1    1    2    0    0 -0.90093575606E+02 -0.60938807867E+02  0.95317573752E+02  0.19115656027E+03  0.12500000000E+03 0.  0.
</event>
<event>
 5    0  0.5539899E-005  0.4267749E+03  0.7546771E-02  0.1034884E+00
         21   -1    0    0  502  501  0.00000000000E+00  0.00000000000E+00  0.38383567152E+03  0.38383567152E+03  0.00000000000E+00 0.  1.
         21   -1    0    0  501  502 -0.00000000000E+00 -0.00000000000E+00 -0.47451758718E+03  0.47451758718E+03  0.00000000000E+00 0.  1.
         25    1    1    2    0    0  0.23627535086E+02 -0.28315112744E+03  0.20212050350E+03  0.37041938302E+03  0.12500000000E+03 0.  0.
         25    1    1    2    0    0 -0.28639114247E+02  0.89799872015E+02 -0.87121458133E+02  0.17916295473E+03  0.12500000000E+03 0.  0.
         25    1    1    2    0    0  0.50115791616E+01  0.19335125542E+03 -0.20568096103E+03  0.30877092095E+03  0.12500000000E+03 0.  0.
</event>
<event>
 5    0  0.5539899E-005  0.2292982E+03  0.7546771E-02  0.1127135E+00
         21   -1    0    0  502  501  0.00000000000E+00  0.00000000000E+00  0.53374622214E+02  0.53374622214E+02  0.00000000000E+00 0.  1.
         21   -1    0    0  501  502 -0.00000000000E+00 -0.00000000000E+00 -0.98506833556E+03  0.98506833556E+03  0.00000000000E+00 0.  1.
         25    1    1    2    0    0 -0.49299466521E+02  0.36735518872E+01 -0.12844171053E+03  0.18591988970E+03  0.12500000000E+03 0.  0.
         25    1    1    2    0    0 -0.23508846367E+02  0.34664154208E+02 -0.44912245539E+03  0.46807077390E+03  0.12500000000E+03 0.  0.
         25    1    1    2    0    0  0.72808312887E+02 -0.38337706095E+02 -0.35412954743E+03  0.38445229417E+03  0.12500000000E+03 0.  0.
</event>
<event>
 5    0  0.5539899E-005  0.2683494E+03  0.7546771E-02  0.1102228E+00
         21   -1    0    0  502  501  0.00000000000E+00  0.00000000000E+00  0.29847854739E+03  0.29847854739E+03  0.00000000000E+00 0. -1.
         21   -1    0    0  501  502 -0.00000000000E+00 -0.00000000000E+00 -0.24126164435E+03  0.24126164435E+03  0.00000000000E+00 0. -1.
         25    1    1    2    0    0  0.35127581636E+02 -0.13130205881E+02  0.15854885770E+03  0.20535113727E+03  0.12500000000E+03 0.  0.
         25    1    1    2    0    0  0.24759964639E+02 -0.16817892718E+02 -0.13731999320E+03  0.18808954755E+03  0.12500000000E+03 0.  0.
         25    1    1    2    0    0 -0.59887546275E+02  0.29948098599E+02  0.35988038532E+02  0.14629950692E+03  0.12500000000E+03 0.  0.
</event>
<event>
 5    0  0.5539899E-005  0.2378020E+03  0.7546771E-02  0.1121266E+00
         21   -1    0    0  502  501  0.00000000000E+00  0.00000000000E+00  0.27579222641E+03  0.27579222641E+03  0.00000000000E+00 0.  1.
         21   -1    0    0  501  502 -0.00000000000E+00 -0.00000000000E+00 -0.20504483174E+03  0.20504483174E+03  0.00000000000E+00 0.  1.
         25    1    1    2    0    0 -0.12155804317E+03 -0.49501454860E+02  0.75924919324E+00  0.18125211268E+03  0.12500000000E+03 0.  0.
         25    1    1    2    0    0  0.48789943380E+02  0.27891766783E+02 -0.92435090850E+00  0.13705569544E+03  0.12500000000E+03 0.  0.
         25    1    1    2    0    0  0.72768099792E+02  0.21609688077E+02  0.70912496387E+02  0.16252925001E+03  0.12500000000E+03 0.  0.
</event>
<event>
 5    0  0.5539899E-005  0.3362575E+03  0.7546771E-02  0.1068401E+00
         21   -1    0    0  502  501  0.00000000000E+00  0.00000000000E+00  0.61642915259E+03  0.61642915259E+03  0.00000000000E+00 0.  1.
         21   -1    0    0  501  502 -0.00000000000E+00 -0.00000000000E+00 -0.18342594846E+03  0.18342594846E+03  0.00000000000E+00 0.  1.
         25    1    1    2    0    0 -0.14977944370E+03 -0.52979218146E+02  0.41546503943E+03  0.46203558121E+03  0.12500000000E+03 0.  0.
         25    1    1    2    0    0  0.82351041638E+02  0.65384145456E+02 -0.61821054111E+02  0.17465286504E+03  0.12500000000E+03 0.  0.
         25    1    1    2    0    0  0.67428402062E+02 -0.12404927310E+02  0.79359218809E+02  0.16316665479E+03  0.12500000000E+03 0.  0.
</event>
<event>
 5    0  0.5539899E-005  0.2472250E+03  0.7546771E-02  0.1115071E+00
         21   -1    0    0  502  501  0.00000000000E+00  0.00000000000E+00  0.22910655732E+03  0.22910655732E+03  0.00000000000E+00 0. -1.
         21   -1    0    0  501  502 -0.00000000000E+00 -0.00000000000E+00 -0.26677619719E+03  0.26677619719E+03  0.00000000000E+00 0. -1.
         25    1    1    2    0    0 -0.85598511538E+02  0.72805213140E+01 -0.19979906885E+02  0.15298466540E+03  0.12500000000E+03 0.  0.
         25    1    1    2    0    0  0.13248347575E+03  0.55151217837E+02  0.18293253619E+02  0.19118883677E+03  0.12500000000E+03 0.  0.
         25    1    1    2    0    0 -0.46884964215E+02 -0.62431739151E+02 -0.35982986603E+02  0.15170925235E+03  0.12500000000E+03 0.  0.
</event>
<event>
 5    0  0.5539899E-005  0.4849549E+03  0.7546771E-02  0.1017782E+00
         21   -1    0    0  502  501  0.00000000000E+00  0.00000000000E+00  0.15130543135E+04  0.15130543135E+04  0.00000000000E+00 0. -1.
         21   -1    0    0  501  502 -0.00000000000E+00 -0.00000000000E+00 -0.15543477069E+03  0.15543477069E+03  0.00000000000E+00 0. -1.
         25    1    1    2    0    0  0.14504979520E+03  0.19344430306E+03  0.43463852552E+03  0.51283115091E+03  0.12500000000E+03 0.  0.
         25    1    1    2    0    0  0.19149716087E+03 -0.11803198651E+03  0.64788216160E+03  0.69712194614E+03  0.12500000000E+03 0.  0.
         25    1    1    2    0    0 -0.33654695607E+03 -0.75412316550E+02  0.27509885572E+03  0.45853598718E+03  0.12500000000E+03 0.  0.
</event>
<event>
 5    0  0.5539899E-005  0.2797386E+03  0.7546771E-02  0.1095832E+00
         21   -1    0    0  502  501  0.00000000000E+00  0.00000000000E+00  0.50123528184E+02  0.50123528184E+02  0.00000000000E+00 0. -1.
         21   -1    0    0  501  502 -0.00000000000E+00 -0.00000000000E+00 -0.15612169512E+04  0.15612169512E+04  0.00000000000E+00 0. -1.
         25    1    1    2    0    0  0.11211318261E+02  0.11821448237E+03 -0.46114542785E+03  0.49232150383E+03  0.12500000000E+03 0.  0.
         25    1    1    2    0    0  0.42094609320E+01  0.82666283401E+02 -0.41419032644E+03  0.44048843400E+03  0.12500000000E+03 0.  0.
         25    1    1    2    0    0 -0.15420779193E+02 -0.20088076577E+03 -0.63575766877E+03  0.67853054160E+03  0.12500000000E+03 0.  0.
</event>
<event>
 5    0  0.5539899E-005  0.4470618E+03  0.7546771E-02  0.1028602E+00
         21   -1    0    0  502  501  0.00000000000E+00  0.00000000000E+00  0.21513690236E+03  0.21513690236E+03  0.00000000000E+00 0.  1.
         21   -1    0    0  501  502 -0.00000000000E+00 -0.00000000000E+00 -0.92900941966E+03  0.92900941966E+03  0.00000000000E+00 0.  1.
         25    1    1    2    0    0 -0.24689595017E+02  0.31834778678E+03 -0.17766716765E+03  0.38619361972E+03  0.12500000000E+03 0.  0.
         25    1    1    2    0    0 -0.12050490662E+03 -0.49616355894E+02 -0.86737269394E+02  0.20032865295E+03  0.12500000000E+03 0.  0.
         25    1    1    2    0    0  0.14519450164E+03 -0.26873143089E+03 -0.44946808025E+03  0.55762404935E+03  0.12500000000E+03 0.  0.
</event>
<event>
 5    0  0.5539899E-005  0.4582673E+03  0.7546771E-02  0.1025285E+00
         21   -1    0    0  502  501  0.00000000000E+00  0.00000000000E+00  0.27903829723E+03  0.27903829723E+03  0.00000000000E+00 0.  1.
         21   -1    0    0  501  502 -0.00000000000E+00 -0.00000000000E+00 -0.75261670381E+03  0.75261670381E+03  0.00000000000E+00 0.  1.
         25    1    1    2    0    0  0.87513170328E+02  0.16349009179E+03 -0.18169816826E+03  0.28814369582E+03  0.12500000000E+03 0.  0.
         25    1    1    2    0    0  0.11396056604E+03 -0.30581563821E+03 -0.30893153184E+03  0.46644818206E+03  0.12500000000E+03 0.  0.
         25    1    1    2    0    0 -0.20147373636E+03  0.14232554642E+03  0.17051293514E+02  0.27706312316E+03  0.12500000000E+03 0.  0.
</event>
<event>
 5    0  0.5539899E-005  0.2463737E+03  0.7546771E-02  0.1115618E+00
         21   -1    0    0  502  501  0.00000000000E+00  0.00000000000E+00  0.13660666532E+03  0.13660666532E+03  0.00000000000E+00 0.  1.
         21   -1    0    0  501  502 -0.00000000000E+00 -0.00000000000E+00 -0.44434152438E+03  0.44434152438E+03  0.00000000000E+00 0.  1.
         25    1    1    2    0    0 -0.97625157208E+02  0.10919758020E+03 -0.15540166097E+03  0.24744587099E+03  0.12500000000E+03 0.  0.
         25    1    1    2    0    0  0.75743923494E+02 -0.40738967277E+02 -0.90028772785E+02  0.17642841418E+03  0.12500000000E+03 0.  0.
         25    1    1    2    0    0  0.21881233715E+02 -0.68458612919E+02 -0.62304425301E+02  0.15707390453E+03  0.12500000000E+03 0.  0.
</event>
<event>
 5    0  0.5539899E-005  0.2474336E+03  0.7546771E-02  0.1114938E+00
         21   -1    0    0  502  501  0.00000000000E+00  0.00000000000E+00  0.74707757421E+03  0.74707757421E+03  0.00000000000E+00 0.  1.
         21   -1    0    0  501  502 -0.00000000000E+00 -0.00000000000E+00 -0.81950504271E+02  0.81950504271E+02  0.00000000000E+00 0.  1.
         25    1    1    2    0    0 -0.68077439613E+01 -0.14621386538E+03  0.25269787427E+03  0.31765713508E+03  0.12500000000E+03 0.  0.
         25    1    1    2    0    0  0.42837419133E+01  0.29561696317E+02  0.21197411403E+03  0.24789164841E+03  0.12500000000E+03 0.  0.
         25    1    1    2    0    0  0.25240020479E+01  0.11665216906E+03  0.20045508165E+03  0.26347929500E+03  0.12500000000E+03 0.  0.
</event>
<event>
 5    0  0.5539899E-005  0.2087687E+03  0.7546771E-02  0.1142545E+00
         21   -1    0    0  502  501  0.00000000000E+00  0.00000000000E+00  0.31151429465E+03  0.31151429465E+03  0.00000000000E+00 0. -1.
         21   -1    0    0  501  502 -0.00000000000E+00 -0.00000000000E+00 -0.13991136135E+03  0.13991136135E+03  0.00000000000E+00 0. -1.
         25    1    1    2    0    0 -0.32059289995E+01  0.80630241137E+01  0.80756139567E+02  0.14906993130E+03  0.12500000000E+03 0.  0.
         25    1    1    2    0    0 -0.45369474252E+02 -0.41599207916E+01 -0.11602832602E+02  0.13354894181E+03  0.12500000000E+03 0.  0.
         25    1    1    2    0    0  0.48575403252E+02 -0.39031033221E+01  0.10244962633E+03  0.16880678290E+03  0.12500000000E+03 0.  0.
</event>
<event>
 5    0  0.5539899E-005  0.3525557E+03  0.7546771E-02  0.1061571E+00
         21   -1    0    0  502  501  0.00000000000E+00  0.00000000000E+00  0.95656206797E+02  0.95656206797E+02  0.00000000000E+00 0. -1.
         21   -1    0    0  501  502 -0.00000000000E+00 -0.00000000000E+00 -0.12993984379E+04  0.12993984379E+04  0.00000000000E+00 0. -1.
         25    1    1    2    0    0  0.72985584653E+02 -0.23065091912E+02 -0.17697490686E+02  0.14763839341E+03  0.12500000000E+03 0.  0.
         25    1    1    2    0    0  0.68222388865E+02  0.10716163086E+03 -0.60886313800E+03  0.63441093172E+03  0.12500000000E+03 0.  0.
         25    1    1    2    0    0 -0.14120797352E+03 -0.84096538948E+02 -0.57718160238E+03  0.61300531953E+03  0.12500000000E+03 0.  0.
</event>
<event>
 5    0  0.5539899E-005  0.4848079E+03  0.7546771E-02  0.1017822E+00
         21   -1    0    0  502  501  0.00000000000E+00  0.00000000000E+00  0.40242310685E+03  0.40242310685E+03  0.00000000000E+00 0.  1.
         21   -1    0    0  501  502 -0.00000000000E+00 -0.00000000000E+00 -0.58405875582E+03  0.58405875582E+03  0.00000000000E+00 0.  1.
         25    1    1    2    0    0  0.12307784203E+03 -0.26042740538E+03 -0.31444201149E+03  0.44437525500E+03  0.12500000000E+03 0.  0.
         25    1    1    2    0    0 -0.54299303417E+02 -0.59248727720E+02 -0.36829312817E+02  0.15310200642E+03  0.12500000000E+03 0.  0.
         25    1    1    2    0    0 -0.68778538614E+02  0.31967613310E+03  0.16963567533E+03  0.38900460124E+03  0.12500000000E+03 0.  0.
</event>
<event>
 5    0  0.5959646E-005  0.2487364E+03  0.7546771E-02  0.1114106E+00
         21   -1    0    0  502  501  0.00000000000E+00  0.00000000000E+00  0.26182035974E+03  0.26182035974E+03  0.00000000000E+00 0. -1.
         21   -1    0    0  501  502 -0.00000000000E+00 -0.00000000000E+00 -0.23630621011E+03  0.23630621011E+03  0.00000000000E+00 0. -1.
         25    1    1    2    0    0  0.14891787584E+03 -0.13883536240E+02  0.38915134375E+02  0.19876788978E+03  0.12500000000E+03 0.  0.
         25    1    1    2    0    0 -0.53094179205E+02 -0.19026950316E+02 -0.18476236337E+02  0.13837408722E+03  0.12500000000E+03 0.  0.
         25    1    1    2    0    0 -0.95823696632E+02  0.32910486555E+02  0.50752515916E+01  0.16098459287E+03  0.12500000000E+03 0.  0.
</event>
<event>
 5    0  0.5539899E-005  0.2518938E+03  0.7546771E-02  0.1112114E+00
         21   -1    0    0  502  501  0.00000000000E+00  0.00000000000E+00  0.54265473573E+03  0.54265473573E+03  0.00000000000E+00 0.  1.
         21   -1    0    0  501  502 -0.00000000000E+00 -0.00000000000E+00 -0.11692603331E+03  0.11692603331E+03  0.00000000000E+00 0.  1.
         25    1    1    2    0    0 -0.53254130742E+02  0.30072120892E+02  0.91390327004E+02  0.16648581551E+03  0.12500000000E+03 0.  0.
         25    1    1    2    0    0 -0.10117643175E+03 -0.16200239433E+02  0.17326186904E+03  0.23694681547E+03  0.12500000000E+03 0.  0.
         25    1    1    2    0    0  0.15443056249E+03 -0.13871881459E+02  0.16107650637E+03  0.25614813806E+03  0.12500000000E+03 0.  0.
</event>
<event>
 5    0  0.5754188E-005  0.3491977E+03  0.7546771E-02  0.1062945E+00
         21   -1    0    0  502  501  0.00000000000E+00  0.00000000000E+00  0.10687858489E+04  0.10687858489E+04  0.00000000000E+00 0. -1.
         21   -1    0    0  501  502 -0.00000000000E+00 -0.00000000000E+00 -0.11409114499E+03  0.11409114499E+03  0.00000000000E+00 0. -1.
         25    1    1    2    0    0 -0.22747573630E+03  0.66182575360E+02  0.46569930874E+03  0.53723941595E+03  0.12500000000E+03 0.  0.
         25    1    1    2    0    0  0.47437174532E+02 -0.11152414575E+03  0.11140907619E+03  0.20670003113E+03  0.12500000000E+03 0.  0.
         25    1    1    2    0    0  0.18003856177E+03  0.45341570390E+02  0.37758631898E+03  0.43893754682E+03  0.12500000000E+03 0.  0.
</event>
<event>
 5    0  0.5539899E-005  0.2291501E+03  0.7546771E-02  0.1127239E+00
         21   -1    0    0  502  501  0.00000000000E+00  0.00000000000E+00  0.35359193431E+03  0.35359193431E+03  0.00000000000E+00 0. -1.
         21   -1    0    0  501  502 -0.00000000000E+00 -0.00000000000E+00 -0.14850380941E+03  0.14850380941E+03  0.00000000000E+00 0. -1.
         25    1    1    2    0    0  0.22599668821E+02  0.83508617130E+02  0.16180251978E+02  0.15287653424E+03  0.12500000000E+03 0.  0.
         25    1    1    2    0    0 -0.17807166198E+02 -0.10766591908E+03  0.11559653982E+03  0.20222909117E+03  0.12500000000E+03 0.  0.
         25    1    1    2    0    0 -0.47925026227E+01  0.24157301948E+02  0.73311333112E+02  0.14699011831E+03  0.12500000000E+03 0.  0.
</event>
<event>
 5    0  0.5539899E-005  0.2793777E+03  0.7546771E-02  0.1096029E+00
         21   -1    0    0  502  501  0.00000000000E+00  0.00000000000E+00  0.23327165079E+04  0.23327165079E+04  0.00000000000E+00 0.  1.
         21   -1    0    0  501  502 -0.00000000000E+00 -0.00000000000E+00 -0.33459657723E+02  0.33459657723E+02  0.00000000000E+00 0.  1.
         25    1    1    2    0    0 -0.60588400781E+02 -0.20353982619E+02  0.63778329616E+03  0.65305265620E+03  0.12500000000E+03 0.  0.
         25    1    1    2    0    0  0.14981757840E+03 -0.88020440943E+02  0.65014721071E+03  0.68447739219E+03  0.12500000000E+03 0.  0.
         25    1    1    2    0    0 -0.89229177622E+02  0.10837442356E+03  0.10113263433E+04  0.10286461172E+04  0.12500000000E+03 0.  0.
</event>
<event>
 5    0  0.5539899E-005  0.3406072E+03  0.7546771E-02  0.1066538E+00
         21   -1    0    0  502  501  0.00000000000E+00  0.00000000000E+00  0.96294586552E+03  0.96294586552E+03  0.00000000000E+00 0. -1.
         21   -1    0    0  501  502 -0.00000000000E+00 -0.00000000000E+00 -0.12047743241E+03  0.12047743241E+03  0.00000000000E+00 0. -1.
         25    1    1    2    0    0 -0.41943010476E+02 -0.16167260455E+03  0.21706402784E+03  0.30106318169E+03  0.12500000000E+03 0.  0.
         25    1    1    2    0    0  0.51437057917E+02 -0.83391685223E+02  0.38656712400E+03  0.41792234380E+03  0.12500000000E+03 0.  0.
         25    1    1    2    0    0 -0.94940474405E+01  0.24506428977E+03  0.23883728126E+03  0.36443777243E+03  0.12500000000E+03 0.  0.
</event>
<event>
 5    0  0.5539899E-005  0.2327666E+03  0.7546771E-02  0.1124707E+00
         21   -1    0    0  502  501  0.00000000000E+00  0.00000000000E+00  0.64450258550E+03  0.64450258550E+03  0.00000000000E+00 0. -1.
         21   -1    0    0  501  502 -0.00000000000E+00 -0.00000000000E+00 -0.84065305330E+02  0.84065305330E+02  0.00000000000E+00 0. -1.
         25    1    1    2    0    0 -0.79065968307E+02  0.12744623294E+02  0.22086115711E+03  0.26611746183E+03  0.12500000000E+03 0.  0.
         25    1    1    2    0    0 -0.44075134552E+01  0.29378687384E+02  0.25347826963E+03  0.28418086956E+03  0.12500000000E+03 0.  0.
         25    1    1    2    0    0  0.83473481762E+02 -0.42123310678E+02  0.86097853419E+02  0.17826955944E+03  0.12500000000E+03 0.  0.
</event>
<event>
 5    0  0.6894560E-005  0.4432126E+03  0.7546771E-02  0.1029766E+00
         21   -1    0    0  502  501  0.00000000000E+00  0.00000000000E+00  0.53186488117E+03  0.53186488117E+03  0.00000000000E+00 0.  1.
         21   -1    0    0  501  502 -0.00000000000E+00 -0.00000000000E+00 -0.36933702091E+03  0.36933702091E+03  0.00000000000E+00 0.  1.
         25    1    1    2    0    0 -0.99898280940E+02  0.41474747325E+02 -0.20698278191E+03  0.26488996434E+03  0.12500000000E+03 0.  0.
         25    1    1    2    0    0  0.26462057428E+03 -0.64785941711E+02  0.15498128660E+03  0.33743957351E+03  0.12500000000E+03 0.  0.
         25    1    1    2    0    0 -0.16472229334E+03  0.23311194386E+02  0.21452935557E+03  0.29887236424E+03  0.12500000000E+03 0.  0.
</event>
<event>
 5    0  0.5539899E-005  0.3402738E+03  0.7546771E-02  0.1066679E+00
         21   -1    0    0  502  501  0.00000000000E+00  0.00000000000E+00  0.11911356899E+04  0.11911356899E+04  0.00000000000E+00 0.  1.
         21   -1    0    0  501  502 -0.00000000000E+00 -0.00000000000E+00 -0.97206613437E+02  0.97206613437E+02  0.00000000000E+00 0.  1.
         25    1    1    2    0    0  0.17153144312E+03 -0.14279918715E+03  0.69736291380E+03  0.74280190991E+03  0.12500000000E+03 0.  0.
         25    1    1    2    0    0 -0.85250714973E+02  0.47626418338E+02  0.30611235484E+03  0.34476910231E+03  0.12500000000E+03 0.  0.
         25    1    1    2    0    0 -0.86280728147E+02  0.95172768816E+02  0.90453807787E+02  0.20077129107E+03  0.12500000000E+03 0.  0.
</event>
<event>
 5    0  0.5539899E-005  0.3016002E+03  0.7546771E-02  0.1084443E+00
         21   -1    0    0  502  501  0.00000000000E+00  0.00000000000E+00  0.59041329314E+03  0.59041329314E+03  0.00000000000E+00 0.  1.
         21   -1    0    0  501  502 -0.00000000000E+00 -0.00000000000E+00 -0.15406612057E+03  0.15406612057E+03  0.00000000000E+00 0. -1.
         25    1    1    2    0    0  0.90394285239E+02  0.12035188593E+03  0.22152752417E+03  0.29555904185E+03  0.12500000000E+03 0.  0.
         25    1    1    2    0    0 -0.47490239540E+02 -0.14268880826E+02  0.24241886733E+03  0.27721982442E+03  0.12500000000E+03 0.  0.
         25    1    1    2    0    0 -0.42904045698E+02 -0.10608300510E+03 -0.27599218931E+02  0.17170054745E+03  0.12500000000E+03 0.  0.
</event>
<event>
 5    0  0.5539899E-005  0.3414983E+03  0.7546771E-02  0.1066160E+00
         21   -1    0    0  502  501  0.00000000000E+00  0.00000000000E+00  0.95457414107E+03  0.95457414107E+03  0.00000000000E+00 0. -1.
         21   -1    0    0  501  502 -0.00000000000E+00 -0.00000000000E+00 -0.12217078631E+03  0.12217078631E+03  0.00000000000E+00 0. -1.
         25    1    1    2    0    0 -0.16199422231E+03  0.37744291461E+02  0.64495439495E+02  0.21783347152E+03  0.12500000000E+03 0.  0.
         25    1    1    2    0    0  0.12097804920E+03  0.91025671268E+02  0.46036400363E+03  0.50048114555E+03  0.12500000000E+03 0.  0.
         25    1    1    2    0    0  0.41016173112E+02 -0.12876996273E+03  0.30754391164E+03  0.35843031030E+03  0.12500000000E+03 0.  0.
</event>
<event>
 5    0  0.5539899E-005  0.2176815E+03  0.7546771E-02  0.1135623E+00
         21   -1    0    0  502  501  0.00000000000E+00  0.00000000000E+00  0.83467317969E+03  0.83467317969E+03  0.00000000000E+00 0.  1.
         21   -1    0    0  501  502 -0.00000000000E+00 -0.00000000000E+00 -0.56770995216E+02  0.56770995216E+02  0.00000000000E+00 0.  1.
         25    1    1    2    0    0  0.19382767525E+02  0.57912942876E+02  0.42673989858E+03  0.44884467433E+03  0.12500000000E+03 0.  0.
         25    1    1    2    0    0  0.12371564842E+02 -0.42270713159E+02  0.12727603358E+03  0.18374998648E+03  0.12500000000E+03 0.  0.
         25    1    1    2    0    0 -0.31754332367E+02 -0.15642229718E+02  0.22388625232E+03  0.25884951410E+03  0.12500000000E+03 0.  0.
</event>
<event>
 5    0  0.5539899E-005  0.3003800E+03  0.7546771E-02  0.1085051E+00
         21   -1    0    0  502  501  0.00000000000E+00  0.00000000000E+00  0.25266650429E+03  0.25266650429E+03  0.00000000000E+00 0.  1.
         21   -1    0    0  501  502 -0.00000000000E+00 -0.00000000000E+00 -0.35710368485E+03  0.35710368485E+03  0.00000000000E+00 0.  1.
         25    1    1    2    0    0  0.15403977361E+03 -0.13937112162E+03 -0.54934329827E+02  0.24858668908E+03  0.12500000000E+03 0.  0.
         25    1    1    2    0    0 -0.47550535103E+02 -0.11928292790E+02 -0.24726954803E+02  0.13652750584E+03  0.12500000000E+03 0.  0.
         25    1    1    2    0    0 -0.10648923850E+03  0.15129941441E+03 -0.24775895938E+02  0.22465599422E+03  0.12500000000E+03 0.  0.
</event>
<event>
 5    0  0.5539899E-005  0.3261180E+03  0.7546771E-02  0.1072868E+00
         21   -1    0    0  502  501  0.00000000000E+00  0.00000000000E+00  0.35726804241E+04  0.35726804241E+04  0.00000000000E+00 0. -1.
         21   -1    0    0  501  502 -0.00000000000E+00 -0.00000000000E+00 -0.29768398598E+02  0.29768398598E+02  0.00000000000E+00 0. -1.
         25    1    1    2    0    0  0.22225058299E+03 -0.70686429844E+02  0.16070537234E+04  0.16286922861E+04  0.12500000000E+03 0.  0.
         25    1    1    2    0    0 -0.19256525247E+03 -0.14429673528E+02  0.12200098892E+04  0.12415066337E+04  0.12500000000E+03 0.  0.
         25    1    1    2    0    0 -0.29685330521E+02  0.85116103372E+02  0.71584841294E+03  0.73224990284E+03  0.12500000000E+03 0.  0.
</event>
<event>
 5    0  0.5539899E-005  0.2606490E+03  0.7546771E-02  0.1106754E+00
         21   -1    0    0  502  501  0.00000000000E+00  0.00000000000E+00  0.36085786538E+02  0.36085786538E+02  0.00000000000E+00 0.  1.
         21   -1    0    0  501  502 -0.00000000000E+00 -0.00000000000E+00 -0.18826779123E+04  0.18826779123E+04  0.00000000000E+00 0.  1.
         25    1    1    2    0    0  0.61141424295E+02 -0.86046691480E+02 -0.34999594780E+03  0.38634760302E+03  0.12500000000E+03 0.  0.
         25    1    1    2    0    0 -0.52781917988E+02 -0.37227633218E+02 -0.46041072218E+03  0.48143001635E+03  0.12500000000E+03 0.  0.
         25    1    1    2    0    0 -0.83595063072E+01  0.12327432470E+03 -0.10361854558E+04  0.10509860795E+04  0.12500000000E+03 0.  0.
</event>
<event>
 5    0  0.5539899E-005  0.4270144E+03  0.7546771E-02  0.1034807E+00
         21   -1    0    0  502  501  0.00000000000E+00  0.00000000000E+00  0.66952509610E+03  0.66952509610E+03  0.00000000000E+00 0. -1.
         21   -1    0    0  501  502 -0.00000000000E+00 -0.00000000000E+00 -0.27234428075E+03  0.27234428075E+03  0.00000000000E+00 0.  1.
         25    1    1    2    0    0 -0.33979424675E+03 -0.13009235660E+02  0.45553703390E+02  0.36514313663E+03  0.12500000000E+03 0.  0.
         25    1    1    2    0    0  0.79407528313E+02  0.15153221450E+02  0.20344078374E+03  0.25208793736E+03  0.12500000000E+03 0.  0.
         25    1    1    2    0    0  0.26038671844E+03 -0.21439857898E+01  0.14818632821E+03  0.32463830286E+03  0.12500000000E+03 0.  0.
</event>
<event>
 5    0  0.5539899E-005  0.2413922E+03  0.7546771E-02  0.1118869E+00
         21   -1    0    0  502  501  0.00000000000E+00  0.00000000000E+00  0.58752097791E+03  0.58752097791E+03  0.00000000000E+00 0.  1.
         21   -1    0    0  501  502 -0.00000000000E+00 -0.00000000000E+00 -0.99179795033E+02  0.99179795033E+02  0.00000000000E+00 0.  1.
         25    1    1    2    0    0  0.19438567031E+02  0.76230428821E+02  0.20314833961E+02  0.14908597736E+03  0.12500000000E+03 0.  0.
         25    1    1    2    0    0  0.63128962871E+01 -0.29830511482E+02  0.23415178632E+03  0.26717367219E+03  0.12500000000E+03 0.  0.
         25    1    1    2    0    0 -0.25751463318E+02 -0.46399917339E+02  0.23387456260E+03  0.27044112339E+03  0.12500000000E+03 0.  0.
</event>
<event>
 5    0  0.5539899E-005  0.3129885E+03  0.7546771E-02  0.1078922E+00
         21   -1    0    0  502  501  0.00000000000E+00  0.00000000000E+00  0.65174831274E+03  0.65174831274E+03  0.00000000000E+00 0.  1.
         21   -1    0    0  501  502 -0.00000000000E+00 -0.00000000000E+00 -0.15030618965E+03  0.15030618965E+03  0.00000000000E+00 0.  1.
         25    1    1    2    0    0  0.47399361100E+01 -0.49811964065E+01  0.20511225478E+03  0.24029839029E+03  0.12500000000E+03 0.  0.
         25    1    1    2    0    0 -0.13223653951E+03 -0.15355538983E+03  0.15894963582E+03  0.28627914149E+03  0.12500000000E+03 0.  0.
         25    1    1    2    0    0  0.12749660340E+03  0.15853658624E+03  0.13738023250E+03  0.27547697061E+03  0.12500000000E+03 0.  0.
</event>
<event>
 5    0  0.5539899E-005  0.2881406E+03  0.7546771E-02  0.1091324E+00
         21   -1    0    0  502  501  0.00000000000E+00  0.00000000000E+00  0.11069596106E+04  0.11069596106E+04  0.00000000000E+00 0. -1.
         21   -1    0    0  501  502 -0.00000000000E+00 -0.00000000000E+00 -0.75002753946E+02  0.75002753946E+02  0.00000000000E+00 0. -1.
         25    1    1    2    0    0 -0.10317613981E+02  0.17006913316E+03  0.60080027245E+03  0.63687983999E+03  0.12500000000E+03 0.  0.
         25    1    1    2    0    0 -0.46562487793E+02 -0.86946096239E+02  0.29219353414E+03  0.33276080045E+03  0.12500000000E+03 0.  0.
         25    1    1    2    0    0  0.56880101773E+02 -0.83123036920E+02  0.13896305006E+03  0.21232172410E+03  0.12500000000E+03 0.  0.
</event>
<event>
 5    0  0.5539899E-005  0.3904495E+03  0.7546771E-02  0.1047138E+00
         21   -1    0    0  502  501  0.00000000000E+00  0.00000000000E+00  0.78539583808E+03  0.78539583808E+03  0.00000000000E+00 0.  1.
         21   -1    0    0  501  502 -0.00000000000E+00 -0.00000000000E+00 -0.19410701960E+03  0.19410701960E+03  0.00000000000E+00 0.  1.
         25    1    1    2    0    0  0.23328765883E+03  0.20732491301E+02  0.82481656181E+02  0.27799494881E+03  0.12500000000E+03 0.  0.
         25    1    1    2    0    0 -0.13692615123E+03  0.13120742273E+03  0.12417836654E+03  0.25886178819E+03  0.12500000000E+03 0.  0.
         25    1    1    2    0    0 -0.96361507604E+02 -0.15193991403E+03  0.38462879576E+03  0.44264612067E+03  0.12500000000E+03 0.  0.
</event>
<event>
 5    0  0.5539899E-005  0.2765163E+03  0.7546771E-02  0.1097607E+00
         21   -1    0    0  502  501  0.00000000000E+00  0.00000000000E+00  0.12546623922E+03  0.12546623922E+03  0.00000000000E+00 0.  1.
         21   -1    0    0  501  502 -0.00000000000E+00 -0.00000000000E+00 -0.60941698449E+03  0.60941698449E+03  0.00000000000E+00 0.  1.
         25    1    1    2    0    0  0.38810302576E+02  0.44985439264E+02 -0.17584061764E+03  0.22377410964E+03  0.12500000000E+03 0.  0.
         25    1    1    2    0    0  0.11533395279E+03 -0.93566232749E+02 -0.95854025848E+02  0.21649377554E+03  0.12500000000E+03 0.  0.
         25    1    1    2    0    0 -0.15414425536E+03  0.48580793485E+02 -0.21225610178E+03  0.29461533853E+03  0.12500000000E+03 0.  0.
</event>
<event>
 5    0  0.5952904E-005  0.2871449E+03  0.7546771E-02  0.1091849E+00
         21   -1    0    0  502  501  0.00000000000E+00  0.00000000000E+00  0.20920056694E+03  0.20920056694E+03  0.00000000000E+00 0.  1.
         21   -1    0    0  501  502 -0.00000000000E+00 -0.00000000000E+00 -0.39412977963E+03  0.39412977963E+03  0.00000000000E+00 0.  1.
         25    1    1    2    0    0  0.15240091140E+02  0.93606253270E+02 -0.61266518105E+02  0.16844280118E+03  0.12500000000E+03 0.  0.
         25    1    1    2    0    0 -0.64011511002E+02  0.79738535410E+02  0.33790010967E+02  0.16499234046E+03  0.12500000000E+03 0.  0.
         25    1    1    2    0    0  0.48771419862E+02 -0.17334478868E+03 -0.15745270555E+03  0.26989520493E+03  0.12500000000E+03 0.  0.
</event>
<event>
 5    0  0.5539899E-005  0.2726383E+03  0.7546771E-02  0.1099779E+00
         21   -1    0    0  502  501  0.00000000000E+00  0.00000000000E+00  0.25033471959E+03  0.25033471959E+03  0.00000000000E+00 0. -1.
         21   -1    0    0  501  502 -0.00000000000E+00 -0.00000000000E+00 -0.29692894011E+03  0.29692894011E+03  0.00000000000E+00 0. -1.
         25    1    1    2    0    0  0.15042900980E+03 -0.88853207575E+02  0.42845258474E+02  0.21905363649E+03  0.12500000000E+03 0.  0.
         25    1    1    2    0    0 -0.72711667406E+02  0.82128398923E+02 -0.66427220346E+02  0.17907997121E+03  0.12500000000E+03 0.  0.
         25    1    1    2    0    0 -0.77717342391E+02  0.67248086517E+01 -0.23012258651E+02  0.14913005199E+03  0.12500000000E+03 0.  0.
</event>
<event>
 5    0  0.5539899E-005  0.2307212E+03  0.7546771E-02  0.1126133E+00
         21   -1    0    0  502  501  0.00000000000E+00  0.00000000000E+00  0.98451790834E+02  0.98451790834E+02  0.00000000000E+00 0. -1.
         21   -1    0    0  501  502 -0.00000000000E+00 -0.00000000000E+00 -0.54069370445E+03  0.54069370445E+03  0.00000000000E+00 0. -1.
         25    1    1    2    0    0  0.10099186017E+02 -0.27776050190E+02 -0.11297637362E+02  0.12894238687E+03  0.12500000000E+03 0.  0.
         25    1    1    2    0    0 -0.52225442554E+02  0.19887367122E+02 -0.17541027572E+03  0.22252363705E+03  0.12500000000E+03 0.  0.
         25    1    1    2    0    0  0.42126256537E+02  0.78886830673E+01 -0.25553400054E+03  0.28767947136E+03  0.12500000000E+03 0.  0.
</event>
<event>
 5    0  0.5539899E-005  0.2922798E+03  0.7546771E-02  0.1089165E+00
         21   -1    0    0  502  501  0.00000000000E+00  0.00000000000E+00  0.11605579026E+03  0.11605579026E+03  0.00000000000E+00 0. -1.
         21   -1    0    0  501  502 -0.00000000000E+00 -0.00000000000E+00 -0.73609000703E+03  0.73609000703E+03  0.00000000000E+00 0. -1.
         25    1    1    2    0    0 -0.12420523801E+03  0.13400738476E+03 -0.27182842671E+03  0.35057183841E+03  0.12500000000E+03 0.  0.
         25    1    1    2    0    0  0.57320362733E+02  0.22139049160E+02 -0.20033081311E+03  0.24399425437E+03  0.12500000000E+03 0.  0.
         25    1    1    2    0    0  0.66884875281E+02 -0.15614643392E+03 -0.14787497695E+03  0.25757970451E+03  0.12500000000E+03 0.  0.
</event>
<event>
 5    0  0.5539899E-005  0.2441463E+03  0.7546771E-02  0.1117061E+00
         21   -1    0    0  502  501  0.00000000000E+00  0.00000000000E+00  0.65262550511E+02  0.65262550511E+02  0.00000000000E+00 0. -1.
         21   -1    0    0  501  502 -0.00000000000E+00 -0.00000000000E+00 -0.91334784299E+03  0.91334784299E+03  0.00000000000E+00 0. -1.
         25    1    1    2    0    0  0.13185824272E+02 -0.37452125293E+02 -0.32974848028E+03  0.35487404511E+03  0.12500000000E+03 0.  0.
         25    1    1    2    0    0 -0.10160796930E+03 -0.51308104217E+02 -0.27581716606E+03  0.32350704795E+03  0.12500000000E+03 0.  0.
         25    1    1    2    0    0  0.88422145024E+02  0.88760229510E+02 -0.24251964615E+03  0.30022930044E+03  0.12500000000E+03 0.  0.
</event>
<event>
 5    0  0.5539899E-005  0.5485146E+03  0.7546771E-02  0.1001838E+00
         21   -1    0    0  502  501  0.00000000000E+00  0.00000000000E+00  0.23967381883E+04  0.23967381883E+04  0.00000000000E+00 0. -1.
         21   -1    0    0  501  502 -0.00000000000E+00 -0.00000000000E+00 -0.12553238003E+03  0.12553238003E+03  0.00000000000E+00 0. -1.
         25    1    1    2    0    0 -0.22404284243E+03 -0.20428932593E+03  0.14168207484E+04  0.14542817324E+04  0.12500000000E+03 0.  0.
         25    1    1    2    0    0  0.71006520693E+02  0.10325355413E+03 -0.83218948564E+01  0.17719333045E+03  0.12500000000E+03 0.  0.
         25    1    1    2    0    0  0.15303632174E+03  0.10103577181E+03  0.86270695466E+03  0.89079550547E+03  0.12500000000E+03 0.  0.
</event>
<event>
 5    0  0.5539899E-005  0.3251768E+03  0.7546771E-02  0.1073291E+00
         21   -1    0    0  502  501  0.00000000000E+00  0.00000000000E+00  0.19169835053E+03  0.19169835053E+03  0.00000000000E+00 0.  1.
         21   -1    0    0  501  502 -0.00000000000E+00 -0.00000000000E+00 -0.55159541888E+03  0.55159541888E+03  0.00000000000E+00 0.  1.
         25    1    1    2    0    0  0.16021498239E+02  0.79083909203E+02 -0.13025509577E+03  0.19774312396E+03  0.12500000000E+03 0.  0.
         25    1    1    2    0    0 -0.12660965404E+03  0.87554484645E+02 -0.23772009556E+03  0.30956685241E+03  0.12500000000E+03 0.  0.
         25    1    1    2    0    0  0.11058815580E+03 -0.16663839385E+03  0.80781229754E+01  0.23598379304E+03  0.12500000000E+03 0.  0.
</event>
<event>
 5    0  0.5539899E-005  0.3954752E+03  0.7546771E-02  0.1045358E+00
         21   -1    0    0  502  501  0.00000000000E+00  0.00000000000E+00  0.17707684469E+03  0.17707684469E+03  0.00000000000E+00 0.  1.
         21   -1    0    0  501  502 -0.00000000000E+00 -0.00000000000E+00 -0.88323615091E+03  0.88323615091E+03  0.00000000000E+00 0.  1.
         25    1    1    2    0    0 -0.14195779869E+03  0.67763544243E+02 -0.17320888677E+03  0.26527388299E+03  0.12500000000E+03 0.  0.
         25    1    1    2    0    0  0.30217397223E+03  0.39745644916E+02 -0.18444505598E+03  0.37753649421E+03  0.12500000000E+03 0.  0.
         25    1    1    2    0    0 -0.16021617354E+03 -0.10750918916E+03 -0.34850536346E+03  0.41750261841E+03  0.12500000000E+03 0.  0.
</event>
<event>
 5    0  0.6071741E-005  0.2839661E+03  0.7546771E-02  0.1093542E+00
         21   -1    0    0  502  501  0.00000000000E+00  0.00000000000E+00  0.68612602391E+03  0.68612602391E+03  0.00000000000E+00 0. -1.
         21   -1    0    0  501  502 -0.00000000000E+00 -0.00000000000E+00 -0.11752467194E+03  0.11752467194E+03  0.00000000000E+00 0. -1.
         25    1    1    2    0    0  0.55923925848E+02  0.15029840757E+01 -0.68734319330E+01  0.13712034317E+03  0.12500000000E+03 0.  0.
         25    1    1    2    0    0 -0.11277634094E+03  0.39461192982E+02  0.19859503961E+03  0.26332618287E+03  0.12500000000E+03 0.  0.
         25    1    1    2    0    0  0.56852415095E+02 -0.40964177058E+02  0.37687974428E+03  0.40320416981E+03  0.12500000000E+03 0.  0.
</event>
<event>
 5    0  0.5539899E-005  0.2852933E+03  0.7546771E-02  0.1092832E+00
         21   -1    0    0  502  501  0.00000000000E+00  0.00000000000E+00  0.69099324159E+02  0.69099324159E+02  0.00000000000E+00 0.  1.
         21   -1    0    0  501  502 -0.00000000000E+00 -0.00000000000E+00 -0.11779023316E+04  0.11779023316E+04  0.00000000000E+00 0.  1.
         25    1    1    2    0    0  0.59259032564E+02 -0.54842577144E+02 -0.44821274333E+03  0.47227005462E+03  0.12500000000E+03 0.  0.
         25    1    1    2    0    0  0.64191030003E+02 -0.25131006011E+01 -0.72203817387E+02  0.15800378240E+03  0.12500000000E+03 0.  0.
         25    1    1    2    0    0 -0.12345006257E+03  0.57355677745E+02 -0.58838644675E+03  0.61672781876E+03  0.12500000000E+03 0.  0.
</event>
<event>
 5    0  0.5539899E-005  0.3319603E+03  0.7546771E-02  0.1070273E+00
         21   -1    0    0  502  501  0.00000000000E+00  0.00000000000E+00  0.15589307720E+04  0.15589307720E+04  0.00000000000E+00 0. -1.
         21   -1    0    0  501  502 -0.00000000000E+00 -0.00000000000E+00 -0.70687948775E+02  0.70687948775E+02  0.00000000000E+00 0. -1.
         25    1    1    2    0    0  0.64636605349E+02  0.14093928943E+03  0.18147919197E+03  0.26944660171E+03  0.12500000000E+03 0.  0.
         25    1    1    2    0    0 -0.93057856559E+02 -0.43783770168E+02  0.10075064543E+04  0.10204268904E+04  0.12500000000E+03 0.  0.
         25    1    1    2    0    0  0.28421251210E+02 -0.97155519261E+02  0.29925717699E+03  0.33974522870E+03  0.12500000000E+03 0.  0.
</event>
<event>
 5    0  0.5539899E-005  0.3704448E+03  0.7546771E-02  0.1054523E+00
         21   -1    0    0  502  501  0.00000000000E+00  0.00000000000E+00  0.12362175404E+04  0.12362175404E+04  0.00000000000E+00 0. -1.
         21   -1    0    0  501  502 -0.00000000000E+00 -0.00000000000E+00 -0.11100744430E+03  0.11100744430E+03  0.00000000000E+00 0. -1.
         25    1    1    2    0    0 -0.18009183419E+03  0.95591401672E+02  0.14767439140E+03  0.28107563162E+03  0.12500000000E+03 0.  0.
         25    1    1    2    0    0  0.75038964207E+02 -0.18523254315E+03  0.61343487971E+03  0.65716762917E+03  0.12500000000E+03 0.  0.
         25    1    1    2    0    0  0.10505286998E+03  0.89641141479E+02  0.36410082504E+03  0.40898172395E+03  0.12500000000E+03 0.  0.
</event>
<event>
 5    0  0.5539899E-005  0.2131476E+03  0.7546771E-02  0.1139097E+00
         21   -1    0    0  502  501  0.00000000000E+00  0.00000000000E+00  0.43333676861E+02  0.43333676861E+02  0.00000000000E+00 0. -1.
         21   -1    0    0  501  502 -0.00000000000E+00 -0.00000000000E+00 -0.10484206236E+04  0.10484206236E+04  0.00000000000E+00 0. -1.
         25    1    1    2    0    0 -0.28586125658E+02 -0.59269019079E+02 -0.24643476336E+03  0.28405118517E+03  0.12500000000E+03 0.  0.
         25    1    1    2    0    0  0.21636378128E+02  0.78100058199E+02 -0.36643074256E+03  0.39555561056E+03  0.12500000000E+03 0.  0.
         25    1    1    2    0    0  0.69497475303E+01 -0.18831039120E+02 -0.39222144087E+03  0.41214750479E+03  0.12500000000E+03 0.  0.
</event>
<event>
 5    0  0.5539899E-005  0.2903037E+03  0.7546771E-02  0.1090191E+00
         21   -1    0    0  502  501  0.00000000000E+00  0.00000000000E+00  0.55934125286E+03  0.55934125286E+03  0.00000000000E+00 0. -1.
         21   -1    0    0  501  502 -0.00000000000E+00 -0.00000000000E+00 -0.15067050842E+03  0.15067050842E+03  0.00000000000E+00 0. -1.
         25    1    1    2    0    0 -0.43675970747E+02  0.10245435049E+03 -0.11093857804E+01  0.16742375904E+03  0.12500000000E+03 0.  0.
         25    1    1    2    0    0 -0.12802925932E+02  0.50559848953E+02  0.24189022949E+03  0.27722932089E+03  0.12500000000E+03 0.  0.
         25    1    1    2    0    0  0.56478896679E+02 -0.15301419944E+03  0.16788990073E+03  0.26535868135E+03  0.12500000000E+03 0.  0.
</event>
<event>
 5    0  0.5539899E-005  0.3541555E+03  0.7546771E-02  0.1060922E+00
         21   -1    0    0  502  501  0.00000000000E+00  0.00000000000E+00  0.12109000175E+04  0.12109000175E+04  0.00000000000E+00 0.  1.
         21   -1    0    0  501  502 -0.00000000000E+00 -0.00000000000E+00 -0.10358088892E+03  0.10358088892E+03  0.00000000000E+00 0.  1.
         25    1    1    2    0    0 -0.10990427613E+03  0.52974334834E+02  0.17777183825E+03  0.24922491155E+03  0.12500000000E+03 0.  0.
         25    1    1    2    0    0  0.36540335801E+02 -0.42931161402E+02  0.13532649440E+02  0.13779119479E+03  0.12500000000E+03 0.  0.
         25    1    1    2    0    0  0.73363940333E+02 -0.10043173433E+02  0.91601464089E+03  0.92746480009E+03  0.12500000000E+03 0.  0.
</event>
<event>
 5    0  0.5539899E-005  0.2981260E+03  0.7546771E-02  0.1086181E+00
         21   -1    0    0  502  501  0.00000000000E+00  0.00000000000E+00  0.84665681021E+03  0.84665681021E+03  0.00000000000E+00 0.  1.
         21   -1    0    0  501  502 -0.00000000000E+00 -0.00000000000E+00 -0.10497658134E+03  0.10497658134E+03  0.00000000000E+00 0.  1.
         25    1    1    2    0    0 -0.77464656451E+02  0.59664062813E+02  0.20816039557E+03  0.26175622948E+03  0.12500000000E+03 0.  0.
         25    1    1    2    0    0 -0.67645377820E+02 -0.13366275824E+03  0.12235996016E+03  0.23030108539E+03  0.12500000000E+03 0.  0.
         25    1    1    2    0    0  0.14511003427E+03  0.73998695426E+02  0.41115987315E+03  0.45957607668E+03  0.12500000000E+03 0.  0.
</event>
<event>
 5    0  0.5539899E-005  0.2977149E+03  0.7546771E-02  0.1086389E+00
         21   -1    0    0  502  501  0.00000000000E+00  0.00000000000E+00  0.10966484462E+04  0.10966484462E+04  0.00000000000E+00 0.  1.
         21   -1    0    0  501  502 -0.00000000000E+00 -0.00000000000E+00 -0.80822741830E+02  0.80822741830E+02  0.00000000000E+00 0.  1.
         25    1    1    2    0    0  0.67180833615E+02  0.19044535297E+01  0.44949032373E+03  0.47136338687E+03  0.12500000000E+03 0.  0.
         25    1    1    2    0    0 -0.19788362717E+03  0.31353322857E+02  0.34945699352E+03  0.42176551670E+03  0.12500000000E+03 0.  0.
         25    1    1    2    0    0  0.13070279355E+03 -0.33257776387E+02  0.21687838708E+03  0.28434228443E+03  0.12500000000E+03 0.  0.
</event>
<event>
 5    0  0.5539899E-005  0.2432460E+03  0.7546771E-02  0.1117649E+00
         21   -1    0    0  502  501  0.00000000000E+00  0.00000000000E+00  0.60244276924E+03  0.60244276924E+03  0.00000000000E+00 0.  1.
         21   -1    0    0  501  502 -0.00000000000E+00 -0.00000000000E+00 -0.98214476399E+02  0.98214476399E+02  0.00000000000E+00 0.  1.
         25    1    1    2    0    0  0.28058371458E+02  0.13439675943E+03  0.26714311167E+03  0.32533091348E+03  0.12500000000E+03 0.  0.
         25    1    1    2    0    0 -0.16607862509E+02 -0.88462313037E+02  0.98774520448E+02  0.18298308068E+03  0.12500000000E+03 0.  0.
         25    1    1    2    0    0 -0.11450508949E+02 -0.45934446389E+02  0.13831066072E+03  0.19234325148E+03  0.12500000000E+03 0.  0.
</event>
<event>
 5    0  0.5539899E-005  0.4372182E+03  0.7546771E-02  0.1031604E+00
         21   -1    0    0  502  501  0.00000000000E+00  0.00000000000E+00  0.90465896720E+02  0.90465896720E+02  0.00000000000E+00 0.  1.
         21   -1    0    0  501  502 -0.00000000000E+00 -0.00000000000E+00 -0.21130586138E+04  0.21130586138E+04  0.00000000000E+00 0.  1.
         25    1    1    2    0    0 -0.18000819197E+03  0.72963328860E+02 -0.88435235638E+03  0.91401897506E+03  0.12500000000E+03 0.  0.
         25    1    1    2    0    0  0.10658725308E+03 -0.13578548838E+02 -0.26703158030E+02  0.16698286786E+03  0.12500000000E+03 0.  0.
         25    1    1    2    0    0  0.73420938889E+02 -0.59384780022E+02 -0.11115372027E+04  0.11225226676E+04  0.12500000000E+03 0.  0.
</event>
<event>
 5    0  0.5539899E-005  0.4163231E+03  0.7546771E-02  0.1038270E+00
         21   -1    0    0  502  501  0.00000000000E+00  0.00000000000E+00  0.47918212722E+03  0.47918212722E+03  0.00000000000E+00 0. -1.
         21   -1    0    0  501  502 -0.00000000000E+00 -0.00000000000E+00 -0.36170982558E+03  0.36170982558E+03  0.00000000000E+00 0. -1.
         25    1    1    2    0    0 -0.73729201293E+02  0.29188991001E+03 -0.68408646632E+02  0.33307725474E+03  0.12500000000E+03 0.  0.
         25    1    1    2    0    0  0.11995090399E+03 -0.62635055202E+02  0.42177719871E+00  0.18421874878E+03  0.12500000000E+03 0.  0.
         25    1    1    2    0    0 -0.46221702694E+02 -0.22925485481E+03  0.18545917107E+03  0.32359594928E+03  0.12500000000E+03 0.  0.
</event>
<event>
 5    0  0.5539899E-005  0.3079308E+03  0.7546771E-02  0.1081342E+00
         21   -1    0    0  502  501  0.00000000000E+00  0.00000000000E+00  0.60206043037E+03  0.60206043037E+03  0.00000000000E+00 0. -1.
         21   -1    0    0  501  502 -0.00000000000E+00 -0.00000000000E+00 -0.15749479456E+03  0.15749479456E+03  0.00000000000E+00 0.  1.
         25    1    1    2    0    0  0.10745565638E+03 -0.11621778892E+03  0.15729952503E+03  0.25577613870E+03  0.12500000000E+03 0.  0.
         25    1    1    2    0    0 -0.37110605285E+02  0.20481120410E+03  0.14222834273E+03  0.28138714936E+03  0.12500000000E+03 0.  0.
         25    1    1    2    0    0 -0.70345051099E+02 -0.88593415174E+02  0.14503776805E+03  0.22239193688E+03  0.12500000000E+03 0.  0.
</event>
<event>
 5    0  0.5539899E-005  0.2946111E+03  0.7546771E-02  0.1087966E+00
         21   -1    0    0  502  501  0.00000000000E+00  0.00000000000E+00  0.71128135788E+02  0.71128135788E+02  0.00000000000E+00 0.  1.
         21   -1    0    0  501  502 -0.00000000000E+00 -0.00000000000E+00 -0.12202722673E+04  0.12202722673E+04  0.00000000000E+00 0.  1.
         25    1    1    2    0    0  0.76332953403E+02  0.65021001714E+02 -0.71943391299E+03  0.73706485847E+03  0.12500000000E+03 0.  0.
         25    1    1    2    0    0 -0.79713323029E+02 -0.14625757439E+02 -0.59632447405E+02  0.16046543376E+03  0.12500000000E+03 0.  0.
         25    1    1    2    0    0  0.33803696258E+01 -0.50395244276E+02 -0.37007777108E+03  0.39387011081E+03  0.12500000000E+03 0.  0.
</event>
<event>
 5    0  0.5539899E-005  0.2508871E+03  0.7546771E-02  0.1112745E+00
         21   -1    0    0  502  501  0.00000000000E+00  0.00000000000E+00  0.37829305817E+02  0.37829305817E+02  0.00000000000E+00 0. -1.
         21   -1    0    0  501  502 -0.00000000000E+00 -0.00000000000E+00 -0.16639045135E+04  0.16639045135E+04  0.00000000000E+00 0. -1.
         25    1    1    2    0    0 -0.10677172517E+03  0.95926102218E+02 -0.65436004672E+03  0.68147933874E+03  0.12500000000E+03 0.  0.
         25    1    1    2    0    0  0.82424201927E+01 -0.40916544437E+02 -0.29849912640E+03  0.32629561682E+03  0.12500000000E+03 0.  0.
         25    1    1    2    0    0  0.98529304974E+02 -0.55009557781E+02 -0.67321603452E+03  0.69395886371E+03  0.12500000000E+03 0.  0.
</event>
<event>
 5    0  0.5539899E-005  0.3515710E+03  0.7546771E-02  0.1061972E+00
         21   -1    0    0  502  501  0.00000000000E+00  0.00000000000E+00  0.34745168405E+03  0.34745168405E+03  0.00000000000E+00 0.  1.
         21   -1    0    0  501  502 -0.00000000000E+00 -0.00000000000E+00 -0.35573910833E+03  0.35573910833E+03  0.00000000000E+00 0.  1.
         25    1    1    2    0    0 -0.94756955716E+01 -0.20717541148E+03  0.63214637918E+02  0.25026492038E+03  0.12500000000E+03 0.  0.
         25    1    1    2    0    0 -0.86721431596E+02  0.20104214754E+03 -0.13114077310E+03  0.28418559808E+03  0.12500000000E+03 0.  0.
         25    1    1    2    0    0  0.96197127168E+02  0.61332639351E+01  0.59638710902E+02  0.16874027391E+03  0.12500000000E+03 0.  0.
</event>
<event>
 5    0  0.5539899E-005  0.2063655E+03  0.7546771E-02  0.1144477E+00
         21   -1    0    0  502  501  0.00000000000E+00  0.00000000000E+00  0.65680409970E+02  0.65680409970E+02  0.00000000000E+00 0.  1.
         21   -1    0    0  501  502 -0.00000000000E+00 -0.00000000000E+00 -0.64839312935E+03  0.64839312935E+03  0.00000000000E+00 0.  1.
         25    1    1    2    0    0 -0.35533348152E+02  0.42184500380E+02 -0.29968490970E+03  0.32936028298E+03  0.12500000000E+03 0.  0.
         25    1    1    2    0    0 -0.17613730987E-01 -0.25952402735E+02 -0.16317761837E+03  0.20718461009E+03  0.12500000000E+03 0.  0.
         25    1    1    2    0    0  0.35550961883E+02 -0.16232097644E+02 -0.11985019131E+03  0.17752864625E+03  0.12500000000E+03 0.  0.
</event>
<event>
 5    0  0.5539899E-005  0.2546180E+03  0.7546771E-02  0.1110421E+00
         21   -1    0    0  502  501  0.00000000000E+00  0.00000000000E+00  0.10534352891E+03  0.10534352891E+03  0.00000000000E+00 0. -1.
         21   -1    0    0  501  502 -0.00000000000E+00 -0.00000000000E+00 -0.61541821041E+03  0.61541821041E+03  0.00000000000E+00 0. -1.
         25    1    1    2    0    0 -0.54594178579E+02 -0.94416873087E+01 -0.97101121955E+02  0.16770002290E+03  0.12500000000E+03 0.  0.
         25    1    1    2    0    0 -0.34941959658E+02 -0.95307152097E+02 -0.28468611616E+03  0.32707121322E+03  0.12500000000E+03 0.  0.
         25    1    1    2    0    0  0.89536138238E+02  0.10474883941E+03 -0.12828744339E+03  0.22599050320E+03  0.12500000000E+03 0.  0.
</event>
<event>
 5    0  0.6514506E-005  0.2867674E+03  0.7546771E-02  0.1092049E+00
         21   -1    0    0  502  501  0.00000000000E+00  0.00000000000E+00  0.43502926677E+03  0.43502926677E+03  0.00000000000E+00 0. -1.
         21   -1    0    0  501  502 -0.00000000000E+00 -0.00000000000E+00 -0.18903451049E+03  0.18903451049E+03  0.00000000000E+00 0. -1.
         25    1    1    2    0    0 -0.98695620152E+02  0.13713799775E+03 -0.15925135528E+02  0.21077539184E+03  0.12500000000E+03 0.  0.
         25    1    1    2    0    0  0.11640506742E+02 -0.44621776387E+02  0.15915448711E+03  0.20756144895E+03  0.12500000000E+03 0.  0.
         25    1    1    2    0    0  0.87055113410E+02 -0.92516221363E+02  0.10276540469E+03  0.20572693647E+03  0.12500000000E+03 0.  0.
</event>
<event>
 5    0  0.5539899E-005  0.2411700E+03  0.7546771E-02  0.1119016E+00
         21   -1    0    0  502  501  0.00000000000E+00  0.00000000000E+00  0.10021906820E+03  0.10021906820E+03  0.00000000000E+00 0.  1.
         21   -1    0    0  501  502 -0.00000000000E+00 -0.00000000000E+00 -0.58035851431E+03  0.58035851431E+03  0.00000000000E+00 0.  1.
         25    1    1    2    0    0  0.32182537144E+02  0.87537855757E+01 -0.22314431318E+03  0.25793551319E+03  0.12500000000E+03 0.  0.
         25    1    1    2    0    0 -0.10248834891E+03 -0.72928948083E+02 -0.11933651185E+03  0.21374914314E+03  0.12500000000E+03 0.  0.
         25    1    1    2    0    0  0.70305811768E+02  0.64175162507E+02 -0.13765862108E+03  0.20889292618E+03  0.12500000000E+03 0.  0.
</event>
<event>
 5    0  0.5539899E-005  0.2869253E+03  0.7546771E-02  0.1091965E+00
         21   -1    0    0  502  501  0.00000000000E+00  0.00000000000E+00  0.42990654125E+03  0.42990654125E+03  0.00000000000E+00 0. -1.
         21   -1    0    0  501  502 -0.00000000000E+00 -0.00000000000E+00 -0.19149772287E+03  0.19149772287E+03  0.00000000000E+00 0. -1.
         25    1    1    2    0    0  0.16199796368E+03  0.69642845900E+02  0.11595402673E+03  0.24528310692E+03  0.12500000000E+03 0.  0.
         25    1    1    2    0    0 -0.17430957522E+03 -0.80246168193E+02  0.89037358928E+02  0.24571513345E+03  0.12500000000E+03 0.  0.
         25    1    1    2    0    0  0.12311611537E+02  0.10603322293E+02  0.33417432716E+02  0.13040602376E+03  0.12500000000E+03 0.  0.
</event>
<event>
 5    0  0.5539899E-005  0.2450562E+03  0.7546771E-02  0.1116470E+00
         21   -1    0    0  502  501  0.00000000000E+00  0.00000000000E+00  0.80305885499E+03  0.80305885499E+03  0.00000000000E+00 0. -1.
         21   -1    0    0  501  502 -0.00000000000E+00 -0.00000000000E+00 -0.74779747289E+02  0.74779747289E+02  0.00000000000E+00 0. -1.
         25    1    1    2    0    0  0.11144947778E+02 -0.80531046844E+01  0.27009633922E+03  0.29793639391E+03  0.12500000000E+03 0.  0.
         25    1    1    2    0    0  0.88166374550E+02  0.77030572772E+02  0.15818993399E+03  0.23314389110E+03  0.12500000000E+03 0.  0.
         25    1    1    2    0    0 -0.99311322328E+02 -0.68977468087E+02  0.29999283449E+03  0.34675831726E+03  0.12500000000E+03 0.  0.
</event>
<event>
 5    0  0.5539899E-005  0.3130615E+03  0.7546771E-02  0.1078888E+00
         21   -1    0    0  502  501  0.00000000000E+00  0.00000000000E+00  0.26709621203E+03  0.26709621203E+03  0.00000000000E+00 0.  1.
         21   -1    0    0  501  502 -0.00000000000E+00 -0.00000000000E+00 -0.36693713630E+03  0.36693713630E+03  0.00000000000E+00 0.  1.
         25    1    1    2    0    0  0.60186243007E+02  0.61935302290E+01 -0.84284180785E+02  0.16244865895E+03  0.12500000000E+03 0.  0.
         25    1    1    2    0    0 -0.12546773206E+03  0.19467328823E+02 -0.18011604916E+03  0.25335334978E+03  0.12500000000E+03 0.  0.
         25    1    1    2    0    0  0.65281489049E+02 -0.25660859052E+02  0.16455930568E+03  0.21823133960E+03  0.12500000000E+03 0.  0.
</event>
<event>
 5    0  0.5539899E-005  0.2504316E+03  0.7546771E-02  0.1113032E+00
         21   -1    0    0  502  501  0.00000000000E+00  0.00000000000E+00  0.60661570358E+02  0.60661570358E+02  0.00000000000E+00 0. -1.
         21   -1    0    0  501  502 -0.00000000000E+00 -0.00000000000E+00 -0.10338666422E+04  0.10338666422E+04  0.00000000000E+00 0. -1.
         25    1    1    2    0    0 -0.15503951834E+02  0.99881469169E+02 -0.48871702115E+03  0.51447643985E+03  0.12500000000E+03 0.  0.
         25    1    1    2    0    0 -0.47603866065E+02  0.15002000326E+02 -0.24801677111E+03  0.28218523496E+03  0.12500000000E+03 0.  0.
         25    1    1    2    0    0  0.63107817898E+02 -0.11488346950E+03 -0.23647127962E+03  0.29786653778E+03  0.12500000000E+03 0.  0.
</event>
<event>
 5    0  0.5539899E-005  0.4388438E+03  0.7546771E-02  0.1031102E+00
         21   -1    0    0  502  501  0.00000000000E+00  0.00000000000E+00  0.98580723319E+02  0.98580723319E+02  0.00000000000E+00 0. -1.
         21   -1    0    0  501  502 -0.00000000000E+00 -0.00000000000E+00 -0.19535648856E+04  0.19535648856E+04  0.00000000000E+00 0. -1.
         25    1    1    2    0    0  0.44488432508E+02 -0.10264252619E+03 -0.45343189696E+03  0.48346684890E+03  0.12500000000E+03 0.  0.
         25    1    1    2    0    0 -0.48659117891E+02  0.30996828679E+03 -0.12204284751E+04  0.12663011930E+04  0.12500000000E+03 0.  0.
         25    1    1    2    0    0  0.41706853827E+01 -0.20732576060E+03 -0.18112379014E+03  0.30237756692E+03  0.12500000000E+03 0.  0.
</event>
<event>
 5    0  0.5539899E-005  0.3859048E+03  0.7546771E-02  0.1048773E+00
         21   -1    0    0  502  501  0.00000000000E+00  0.00000000000E+00  0.15191996331E+03  0.15191996331E+03  0.00000000000E+00 0. -1.
         21   -1    0    0  501  502 -0.00000000000E+00 -0.00000000000E+00 -0.98026930126E+03  0.98026930126E+03  0.00000000000E+00 0. -1.
         25    1    1    2    0    0  0.36638648413E+02  0.52789023647E+02 -0.14968605422E+03  0.20532897117E+03  0.12500000000E+03 0.  0.
         25    1    1    2    0    0  0.12238940003E+03 -0.14627486165E+03 -0.66567372791E+03  0.70364906908E+03  0.12500000000E+03 0.  0.
         25    1    1    2    0    0 -0.15902804845E+03  0.93485838002E+02 -0.12989555815E+02  0.22321122431E+03  0.12500000000E+03 0.  0.
</event>
<event>
 5    0  0.5539899E-005  0.2575782E+03  0.7546771E-02  0.1108607E+00
         21   -1    0    0  502  501  0.00000000000E+00  0.00000000000E+00  0.15812652162E+03  0.15812652162E+03  0.00000000000E+00 0.  1.
         21   -1    0    0  501  502 -0.00000000000E+00 -0.00000000000E+00 -0.41957875789E+03  0.41957875789E+03  0.00000000000E+00 0.  1.
         25    1    1    2    0    0 -0.14600053901E+02 -0.11009424841E+03 -0.18811872992E+03  0.25168941506E+03  0.12500000000E+03 0.  0.
         25    1    1    2    0    0  0.16303307073E+02  0.13826055206E+03 -0.23708032498E+02  0.18859705428E+03  0.12500000000E+03 0.  0.
         25    1    1    2    0    0 -0.17032531721E+01 -0.28166303654E+02 -0.49625473853E+02  0.13741881017E+03  0.12500000000E+03 0.  0.
</event>
<event>
 5    0  0.5539899E-005  0.3899111E+03  0.7546771E-02  0.1047330E+00
         21   -1    0    0  502  501  0.00000000000E+00  0.00000000000E+00  0.48786297447E+03  0.48786297447E+03  0.00000000000E+00 0.  1.
         21   -1    0    0  501  502 -0.00000000000E+00 -0.00000000000E+00 -0.31162573616E+03  0.31162573616E+03  0.00000000000E+00 0.  1.
         25    1    1    2    0    0 -0.10497914843E+02  0.20874852354E+03  0.28707888781E+02  0.24522498889E+03  0.12500000000E+03 0.  0.
         25    1    1    2    0    0  0.10615944472E+03  0.94113634506E+02  0.84784487838E+02  0.20722116996E+03  0.12500000000E+03 0.  0.
         25    1    1    2    0    0 -0.95661529877E+02 -0.30286215805E+03  0.62744861689E+02  0.34704255178E+03  0.12500000000E+03 0.  0.
</event>
<event>
 5    0  0.5539899E-005  0.3689089E+03  0.7546771E-02  0.1055111E+00
         21   -1    0    0  502  501  0.00000000000E+00  0.00000000000E+00  0.10524204451E+04  0.10524204451E+04  0.00000000000E+00 0.  1.
         21   -1    0    0  501  502 -0.00000000000E+00 -0.00000000000E+00 -0.12931499473E+03  0.12931499473E+03  0.00000000000E+00 0.  1.
         25    1    1    2    0    0 -0.24530717909E+03 -0.10109183364E+03  0.29091583328E+03  0.41310070563E+03  0.12500000000E+03 0.  0.
         25    1    1    2    0    0  0.60867980336E+02  0.11971702658E+03  0.14947167883E+03  0.23665134746E+03  0.12500000000E+03 0.  0.
         25    1    1    2    0    0  0.18443919875E+03 -0.18625192937E+02  0.48271793826E+03  0.53198338674E+03  0.12500000000E+03 0.  0.
</event>
<event>
 5    0  0.5539899E-005  0.2374798E+03  0.7546771E-02  0.1121483E+00
         21   -1    0    0  502  501  0.00000000000E+00  0.00000000000E+00  0.15770767583E+03  0.15770767583E+03  0.00000000000E+00 0.  1.
         21   -1    0    0  501  502 -0.00000000000E+00 -0.00000000000E+00 -0.35760232631E+03  0.35760232631E+03  0.00000000000E+00 0.  1.
         25    1    1    2    0    0 -0.71655040635E+01  0.64761271538E-01 -0.13327257950E+03  0.18286040875E+03  0.12500000000E+03 0.  0.
         25    1    1    2    0    0  0.82276016847E+02 -0.47631827485E+02  0.16627003134E+02  0.15792273798E+03  0.12500000000E+03 0.  0.
         25    1    1    2    0    0 -0.75110512783E+02  0.47567066214E+02 -0.83249074119E+02  0.17452685541E+03  0.12500000000E+03 0.  0.
</event>
<event>
 5    0  0.5539899E-005  0.2251784E+03  0.7546771E-02  0.1130080E+00
         21   -1    0    0  502  501  0.00000000000E+00  0.00000000000E+00  0.29494252475E+03  0.29494252475E+03  0.00000000000E+00 0.  1.
         21   -1    0    0  501  502 -0.00000000000E+00 -0.00000000000E+00 -0.17191584347E+03  0.17191584347E+03  0.00000000000E+00 0.  1.
         25    1    1    2    0    0 -0.47282583125E+02  0.96941014110E+02  0.74225508972E+02  0.18101831141E+03  0.12500000000E+03 0.  0.
         25    1    1    2    0    0  0.46172164124E+02 -0.26060195739E+02  0.41386765291E+02  0.14194670438E+03  0.12500000000E+03 0.  0.
         25    1    1    2    0    0  0.11104190015E+01 -0.70880818371E+02  0.74144070225E+01  0.14389335243E+03  0.12500000000E+03 0.  0.
</event>
<event>
 5    0  0.5539899E-005  0.2393759E+03  0.7546771E-02  0.1120209E+00
         21   -1    0    0  502  501  0.00000000000E+00  0.00000000000E+00  0.29421656593E+02  0.29421656593E+02  0.00000000000E+00 0.  1.
         21   -1    0    0  501  502 -0.00000000000E+00 -0.00000000000E+00 -0.19475737252E+04  0.19475737252E+04  0.00000000000E+00 0.  1.
         25    1    1    2    0    0 -0.24352126015E+02  0.40075688579E+02 -0.27814782627E+03  0.30852925326E+03  0.12500000000E+03 0.  0.
         25    1    1    2    0    0  0.28400076819E+02 -0.51848500536E+02 -0.42369880597E+03  0.44569104720E+03  0.12500000000E+03 0.  0.
         25    1    1    2    0    0 -0.40479508038E+01  0.11772811957E+02 -0.12163054364E+04  0.12227750814E+04  0.12500000000E+03 0.  0.
</event>
<event>
 5    0  0.5539899E-005  0.4480543E+03  0.7546771E-02  0.1028304E+00
         21   -1    0    0  502  501  0.00000000000E+00  0.00000000000E+00  0.26835010074E+03  0.26835010074E+03  0.00000000000E+00 0. -1.
         21   -1    0    0  501  502 -0.00000000000E+00 -0.00000000000E+00 -0.74809986290E+03  0.74809986290E+03  0.00000000000E+00 0. -1.
         25    1    1    2    0    0  0.12165821043E+03  0.77299698743E+02 -0.24994631928E+03  0.31444256409E+03  0.12500000000E+03 0.  0.
         25    1    1    2    0    0  0.13609513307E+01 -0.69428659083E+02 -0.41970143329E+03  0.44339202068E+03  0.12500000000E+03 0.  0.
         25    1    1    2    0    0 -0.12301916176E+03 -0.78710396601E+01  0.18989799041E+03  0.25861537887E+03  0.12500000000E+03 0.  0.
</event>
<event>
 5    0  0.5539899E-005  0.3292332E+03  0.7546771E-02  0.1071477E+00
         21   -1    0    0  502  501  0.00000000000E+00  0.00000000000E+00  0.85736208118E+02  0.85736208118E+02  0.00000000000E+00 0. -1.
         21   -1    0    0  501  502 -0.00000000000E+00 -0.00000000000E+00 -0.12642789797E+04  0.12642789797E+04  0.00000000000E+00 0. -1.
         25    1    1    2    0    0 -0.55138684965E+02  0.13147748948E+03 -0.22146862585E+03  0.29154752109E+03  0.12500000000E+03 0.  0.
         25    1    1    2    0    0 -0.11793021446E+03 -0.45815183958E+02 -0.20203814959E+03  0.26916719795E+03  0.12500000000E+03 0.  0.
         25    1    1    2    0    0  0.17306889942E+03 -0.85662305525E+02 -0.75503599613E+03  0.78930046876E+03  0.12500000000E+03 0.  0.
</event>
<event>
 5    0  0.5539899E-005  0.5417271E+03  0.7546771E-02  0.1003427E+00
         21   -1    0    0  502  501  0.00000000000E+00  0.00000000000E+00  0.19547488751E+04  0.19547488751E+04  0.00000000000E+00 0. -1.
         21   -1    0    0  501  502 -0.00000000000E+00 -0.00000000000E+00 -0.15013089430E+03  0.15013089430E+03  0.00000000000E+00 0. -1.
         25    1    1    2    0    0  0.45355770818E+02 -0.43335970899E+03  0.44486038799E+03  0.63512482878E+03  0.12500000000E+03 0.  0.
         25    1    1    2    0    0  0.15907070084E+02  0.63575492658E+02  0.56279634569E+03  0.58022375414E+03  0.12500000000E+03 0.  0.
         25    1    1    2    0    0 -0.61262840902E+02  0.36978421634E+03  0.79696124711E+03  0.88953118648E+03  0.12500000000E+03 0.  0.
</event>
<event>
 5    0  0.5614921E-005  0.2718960E+03  0.7546771E-02  0.1100199E+00
         21   -1    0    0  502  501  0.00000000000E+00  0.00000000000E+00  0.21456375066E+03  0.21456375066E+03  0.00000000000E+00 0. -1.
         21   -1    0    0  501  502 -0.00000000000E+00 -0.00000000000E+00 -0.34454764154E+03  0.34454764154E+03  0.00000000000E+00 0. -1.
         25    1    1    2    0    0 -0.42853118209E+02  0.71181623316E+02 -0.34797004843E+02  0.15407480256E+03  0.12500000000E+03 0.  0.
         25    1    1    2    0    0  0.12400237916E+03 -0.14323600571E+03 -0.39514694332E+02  0.23039000507E+03  0.12500000000E+03 0.  0.
         25    1    1    2    0    0 -0.81149260947E+02  0.72054382391E+02 -0.55672191701E+02  0.17464658457E+03  0.12500000000E+03 0.  0.
</event>
<event>
 5    0  0.5539899E-005  0.3315022E+03  0.7546771E-02  0.1070474E+00
         21   -1    0    0  502  501  0.00000000000E+00  0.00000000000E+00  0.22342156995E+03  0.22342156995E+03  0.00000000000E+00 0. -1.
         21   -1    0    0  501  502 -0.00000000000E+00 -0.00000000000E+00 -0.49186697938E+03  0.49186697938E+03  0.00000000000E+00 0.  1.
         25    1    1    2    0    0 -0.73722738700E+02  0.21223790312E+03 -0.25526453962E+02  0.25837292733E+03  0.12500000000E+03 0.  0.
         25    1    1    2    0    0  0.28166329002E+02  0.92903492674E+01 -0.75512894028E+02  0.14901962905E+03  0.12500000000E+03 0.  0.
         25    1    1    2    0    0  0.45556409698E+02 -0.22152825239E+03 -0.16740606144E+03  0.30789599296E+03  0.12500000000E+03 0.  0.
</event>
<event>
 5    0  0.5539899E-005  0.3518038E+03  0.7546771E-02  0.1061877E+00
         21   -1    0    0  502  501  0.00000000000E+00  0.00000000000E+00  0.77979285706E+02  0.77979285706E+02  0.00000000000E+00 0. -1.
         21   -1    0    0  501  502 -0.00000000000E+00 -0.00000000000E+00 -0.15871635788E+04  0.15871635788E+04  0.00000000000E+00 0. -1.
         25    1    1    2    0    0 -0.15731881464E+02 -0.14352439980E+02 -0.71733301717E+02  0.14568510975E+03  0.12500000000E+03 0.  0.
         25    1    1    2    0    0 -0.13490458861E+03 -0.14953239494E+03 -0.67647336212E+03  0.71679871290E+03  0.12500000000E+03 0.  0.
         25    1    1    2    0    0  0.15063647007E+03  0.16388483492E+03 -0.76097762924E+03  0.80265904184E+03  0.12500000000E+03 0.  0.
</event>
<event>
 5    0  0.5539899E-005  0.2922627E+03  0.7546771E-02  0.1089174E+00
         21   -1    0    0  502  501  0.00000000000E+00  0.00000000000E+00  0.20385695201E+04  0.20385695201E+04  0.00000000000E+00 0. -1.
         21   -1    0    0  501  502 -0.00000000000E+00 -0.00000000000E+00 -0.41900694143E+02  0.41900694143E+02  0.00000000000E+00 0. -1.
         25    1    1    2    0    0  0.54546601209E+00 -0.10598145670E+02  0.11568552789E+03  0.17064805767E+03  0.12500000000E+03 0.  0.
         25    1    1    2    0    0 -0.74046526211E+02  0.68085661794E+02  0.67578171768E+03  0.69456783350E+03  0.12500000000E+03 0.  0.
         25    1    1    2    0    0  0.73501060199E+02 -0.57487516124E+02  0.12052015804E+04  0.12152543231E+04  0.12500000000E+03 0.  0.
</event>
<event>
 5    0  0.5539899E-005  0.3889651E+03  0.7546771E-02  0.1047669E+00
         21   -1    0    0  502  501  0.00000000000E+00  0.00000000000E+00  0.63284809642E+02  0.63284809642E+02  0.00000000000E+00 0.  1.
         21   -1    0    0  501  502 -0.00000000000E+00 -0.00000000000E+00 -0.23906815254E+04  0.23906815254E+04  0.00000000000E+00 0.  1.
         25    1    1    2    0    0  0.60329409462E+02  0.14487243126E+03 -0.16249522743E+04  0.16372912242E+04  0.12500000000E+03 0.  0.
         25    1    1    2    0    0  0.37598307493E+02  0.65362126222E+02 -0.18172686679E+03  0.23309975201E+03  0.12500000000E+03 0.  0.
         25    1    1    2    0    0 -0.97927716955E+02 -0.21023455749E+03 -0.52071757464E+03  0.58357535885E+03  0.12500000000E+03 0.  0.
</event>
<event>
 5    0  0.5539899E-005  0.2688431E+03  0.7546771E-02  0.1101944E+00
         21   -1    0    0  502  501  0.00000000000E+00  0.00000000000E+00  0.11762412479E+03  0.11762412479E+03  0.00000000000E+00 0. -1.
         21   -1    0    0  501  502 -0.00000000000E+00 -0.00000000000E+00 -0.61447083103E+03  0.61447083103E+03  0.00000000000E+00 0. -1.
         25    1    1    2    0    0  0.49068923417E+01  0.58577760616E+01 -0.31344502517E+03  0.33753692381E+03  0.12500000000E+03 0.  0.
         25    1    1    2    0    0 -0.12326504917E+03 -0.36409708294E+01 -0.73789027453E+02  0.19046613764E+03  0.12500000000E+03 0.  0.
         25    1    1    2    0    0  0.11835815683E+03 -0.22168052322E+01 -0.10961265362E+03  0.20409189437E+03  0.12500000000E+03 0.  0.
</event>
<event>
 5    0  0.5539899E-005  0.4047126E+03  0.7546771E-02  0.1042160E+00
         21   -1    0    0  502  501  0.00000000000E+00  0.00000000000E+00  0.49423297727E+03  0.49423297727E+03  0.00000000000E+00 0.  1.
         21   -1    0    0  501  502 -0.00000000000E+00 -0.00000000000E+00 -0.33140696477E+03  0.33140696477E+03  0.00000000000E+00 0.  1.
         25    1    1    2    0    0 -0.12883895782E+03  0.73752383955E+02  0.34275859096E+03  0.39388747488E+03  0.12500000000E+03 0.  0.
         25    1    1    2    0    0  0.13631051699E+03 -0.57391941185E+02  0.20628815496E+02  0.19474326685E+03  0.12500000000E+03 0.  0.
         25    1    1    2    0    0 -0.74715591751E+01 -0.16360442770E+02 -0.20056139395E+03  0.23700920030E+03  0.12500000000E+03 0.  0.
</event>
<event>
 5    0  0.5539899E-005  0.4155618E+03  0.7546771E-02  0.1038521E+00
         21   -1    0    0  502  501  0.00000000000E+00  0.00000000000E+00  0.17851496539E+03  0.17851496539E+03  0.00000000000E+00 0.  1.
         21   -1    0    0  501  502 -0.00000000000E+00 -0.00000000000E+00 -0.96737871744E+03  0.96737871744E+03  0.00000000000E+00 0.  1.
         25    1    1    2    0    0 -0.65758287271E+02 -0.10224589703E+03 -0.56114984061E+02  0.18317277975E+03  0.12500000000E+03 0.  0.
         25    1    1    2    0    0 -0.21951945725E+03 -0.53885995913E+02 -0.42769616779E+03  0.49964137600E+03  0.12500000000E+03 0.  0.
         25    1    1    2    0    0  0.28527774452E+03  0.15613189295E+03 -0.30505260020E+03  0.46307952708E+03  0.12500000000E+03 0.  0.
</event>
<event>
 5    0  0.5539899E-005  0.2714247E+03  0.7546771E-02  0.1100467E+00
         21   -1    0    0  502  501  0.00000000000E+00  0.00000000000E+00  0.54576745717E+03  0.54576745717E+03  0.00000000000E+00 0.  1.
         21   -1    0    0  501  502 -0.00000000000E+00 -0.00000000000E+00 -0.13498674619E+03  0.13498674619E+03  0.00000000000E+00 0.  1.
         25    1    1    2    0    0 -0.79434845378E+02 -0.90361589357E+01  0.23273539668E+02  0.15019388961E+03  0.12500000000E+03 0.  0.
         25    1    1    2    0    0 -0.71505963811E+02 -0.42793428603E+02  0.22597313792E+03  0.27135445354E+03  0.12500000000E+03 0.  0.
         25    1    1    2    0    0  0.15094080919E+03  0.51829587539E+02  0.16153403339E+03  0.25920586021E+03  0.12500000000E+03 0.  0.
</event>
<event>
 5    0  0.5539899E-005  0.4004831E+03  0.7546771E-02  0.1043613E+00
         21   -1    0    0  502  501  0.00000000000E+00  0.00000000000E+00  0.38476457165E+03  0.38476457165E+03  0.00000000000E+00 0.  1.
         21   -1    0    0  501  502 -0.00000000000E+00 -0.00000000000E+00 -0.41684372719E+03  0.41684372719E+03  0.00000000000E+00 0.  1.
         25    1    1    2    0    0  0.35450336891E+02  0.18169107267E+03  0.65910511971E+01  0.22346546541E+03  0.12500000000E+03 0.  0.
         25    1    1    2    0    0 -0.15378980861E+03 -0.12230458628E+03  0.17945479436E+03  0.29400466029E+03  0.12500000000E+03 0.  0.
         25    1    1    2    0    0  0.11833947172E+03 -0.59386486391E+02 -0.21812500110E+03  0.28413817314E+03  0.12500000000E+03 0.  0.
</event>
<event>
 5    0  0.5539899E-005  0.2421965E+03  0.7546771E-02  0.1118338E+00
         21   -1    0    0  502  501  0.00000000000E+00  0.00000000000E+00  0.61793287745E+03  0.61793287745E+03  0.00000000000E+00 0. -1.
         21   -1    0    0  501  502 -0.00000000000E+00 -0.00000000000E+00 -0.94928040265E+02  0.94928040265E+02  0.00000000000E+00 0. -1.
         25    1    1    2    0    0  0.27734702226E+02 -0.14110560204E+02  0.62132169730E+02  0.14301653098E+03  0.12500000000E+03 0.  0.
         25    1    1    2    0    0 -0.11118101111E+03  0.59986458888E+02  0.23295230084E+03  0.29300403913E+03  0.12500000000E+03 0.  0.
         25    1    1    2    0    0  0.83446308881E+02 -0.45875898685E+02  0.22792036661E+03  0.27684034761E+03  0.12500000000E+03 0.  0.
</event>
<event>
 5    0  0.5539899E-005  0.2271760E+03  0.7546771E-02  0.1128643E+00
         21   -1    0    0  502  501  0.00000000000E+00  0.00000000000E+00  0.15808393418E+03  0.15808393418E+03  0.00000000000E+00 0. -1.
         21   -1    0    0  501  502 -0.00000000000E+00 -0.00000000000E+00 -0.32646550048E+03  0.32646550048E+03  0.00000000000E+00 0. -1.
         25    1    1    2    0    0 -0.25788782389E+02 -0.43446877457E+02 -0.41860437161E+02  0.14117361176E+03  0.12500000000E+03 0.  0.
         25    1    1    2    0    0  0.18921214589E+02 -0.62566184435E+02 -0.85526645659E+01  0.14131768420E+03  0.12500000000E+03 0.  0.
         25    1    1    2    0    0  0.68675678001E+01  0.10601306189E+03 -0.11796846458E+03  0.20205813870E+03  0.12500000000E+03 0.  0.
</event>
<event>
 5    0  0.5539899E-005  0.3243013E+03  0.7546771E-02  0.1073687E+00
         21   -1    0    0  502  501  0.00000000000E+00  0.00000000000E+00  0.52174457251E+03  0.52174457251E+03  0.00000000000E+00 0. -1.
         21   -1    0    0  501  502 -0.00000000000E+00 -0.00000000000E+00 -0.20157626736E+03  0.20157626736E+03  0.00000000000E+00 0. -1.
         25    1    1    2    0    0 -0.14582248596E+03 -0.11751965876E+03  0.98130062618E+02  0.24562079879E+03  0.12500000000E+03 0.  0.
         25    1    1    2    0    0  0.20522831326E+03  0.10422044197E+03  0.68850246576E+02  0.27082451429E+03  0.12500000000E+03 0.  0.
         25    1    1    2    0    0 -0.59405827293E+02  0.13299216795E+02  0.15318799595E+03  0.20687552680E+03  0.12500000000E+03 0.  0.
</event>
<event>
 5    0  0.5539899E-005  0.3738997E+03  0.7546771E-02  0.1053212E+00
         21   -1    0    0  502  501  0.00000000000E+00  0.00000000000E+00  0.22043697684E+03  0.22043697684E+03  0.00000000000E+00 0. -1.
         21   -1    0    0  501  502 -0.00000000000E+00 -0.00000000000E+00 -0.63419928080E+03  0.63419928080E+03  0.00000000000E+00 0. -1.
         25    1    1    2    0    0  0.12667550992E+03 -0.17435243632E+03 -0.21943554091E+03  0.33199761065E+03  0.12500000000E+03 0.  0.
         25    1    1    2    0    0 -0.60539803390E+02 -0.64201599332E+02 -0.19173648543E+03  0.24530550951E+03  0.12500000000E+03 0.  0.
         25    1    1    2    0    0 -0.66135706533E+02  0.23855403565E+03 -0.25902776227E+01  0.27733313748E+03  0.12500000000E+03 0.  0.
</event>
<event>
 5    0  0.5539899E-005  0.3150267E+03  0.7546771E-02  0.1077961E+00
         21   -1    0    0  502  501  0.00000000000E+00  0.00000000000E+00  0.67776516917E+02  0.67776516917E+02  0.00000000000E+00 0.  1.
         21   -1    0    0  501  502 -0.00000000000E+00 -0.00000000000E+00 -0.14642506959E+04  0.14642506959E+04  0.00000000000E+00 0.  1.
         25    1    1    2    0    0  0.11695127163E+03 -0.13409435615E+03 -0.76607688865E+03  0.79634018836E+03  0.12500000000E+03 0.  0.
         25    1    1    2    0    0 -0.28834714663E+02  0.78450326448E+02 -0.99260591161E+02  0.18017646752E+03  0.12500000000E+03 0.  0.
         25    1    1    2    0    0 -0.88116556965E+02  0.55644029702E+02 -0.53113669916E+03  0.55551055692E+03  0.12500000000E+03 0.  0.
</event>
<event>
 5    0  0.5539899E-005  0.3215813E+03  0.7546771E-02  0.1074924E+00
         21   -1    0    0  502  501  0.00000000000E+00  0.00000000000E+00  0.51991059366E+02  0.51991059366E+02  0.00000000000E+00 0. -1.
         21   -1    0    0  501  502 -0.00000000000E+00 -0.00000000000E+00 -0.19890828194E+04  0.19890828194E+04  0.00000000000E+00 0. -1.
         25    1    1    2    0    0 -0.21443067691E+03  0.82469154731E+02 -0.72933166963E+03  0.77481053233E+03  0.12500000000E+03 0.  0.
         25    1    1    2    0    0  0.33199816228E+02  0.15245455376E+02 -0.29912396382E+03  0.32624346345E+03  0.12500000000E+03 0.  0.
         25    1    1    2    0    0  0.18123086069E+03 -0.97714610107E+02 -0.90863612659E+03  0.94001988300E+03  0.12500000000E+03 0.  0.
</event>
<event>
 5    0  0.5539899E-005  0.5359071E+03  0.7546771E-02  0.1004810E+00
         21   -1    0    0  502  501  0.00000000000E+00  0.00000000000E+00  0.17884049563E+03  0.17884049563E+03  0.00000000000E+00 0. -1.
         21   -1    0    0  501  502 -0.00000000000E+00 -0.00000000000E+00 -0.16058799966E+04  0.16058799966E+04  0.00000000000E+00 0. -1.
         25    1    1    2    0    0  0.27082145014E+03  0.24764669391E+02 -0.12327848468E+03  0.32369759266E+03  0.12500000000E+03 0.  0.
         25    1    1    2    0    0 -0.17312619421E+03  0.24780088813E+03 -0.82749964618E+03  0.88980819490E+03  0.12500000000E+03 0.  0.
         25    1    1    2    0    0 -0.97695255929E+02 -0.27256555752E+03 -0.47626137007E+03  0.57121470464E+03  0.12500000000E+03 0.  0.
</event>
<event>
 5    0  0.5539899E-005  0.3022428E+03  0.7546771E-02  0.1084125E+00
         21   -1    0    0  502  501  0.00000000000E+00  0.00000000000E+00  0.69602829981E+03  0.69602829981E+03  0.00000000000E+00 0.  1.
         21   -1    0    0  501  502 -0.00000000000E+00 -0.00000000000E+00 -0.13124569369E+03  0.13124569369E+03  0.00000000000E+00 0.  1.
         25    1    1    2    0    0  0.67636998296E+01 -0.12976556907E+03  0.40118616459E+03  0.43984109541E+03  0.12500000000E+03 0.  0.
         25    1    1    2    0    0 -0.16392292603E+02  0.16820060158E+03  0.55274045238E+02  0.21734849828E+03  0.12500000000E+03 0.  0.
         25    1    1    2    0    0  0.96285927733E+01 -0.38435032504E+02  0.10832239629E+03  0.17008439982E+03  0.12500000000E+03 0.  0.
</event>
<event>
 5    0  0.5539899E-005  0.3231668E+03  0.7546771E-02  0.1074201E+00
         21   -1    0    0  502  501  0.00000000000E+00  0.00000000000E+00  0.46498694573E+03  0.46498694573E+03  0.00000000000E+00 0. -1.
         21   -1    0    0  501  502 -0.00000000000E+00 -0.00000000000E+00 -0.22460152754E+03  0.22460152754E+03  0.00000000000E+00 0. -1.
         25    1    1    2    0    0  0.17530292016E+03 -0.14716851343E+03  0.19792120504E+03  0.32739500388E+03  0.12500000000E+03 0.  0.
         25    1    1    2    0    0 -0.14097131612E+03  0.70819504584E+02  0.61706991395E+02  0.21052569198E+03  0.12500000000E+03 0.  0.
         25    1    1    2    0    0 -0.34331604045E+02  0.76349008850E+02 -0.19242778239E+02  0.15166777741E+03  0.12500000000E+03 0.  0.
</event>
<event>
 5    0  0.5539899E-005  0.2822313E+03  0.7546771E-02  0.1094476E+00
         21   -1    0    0  502  501  0.00000000000E+00  0.00000000000E+00  0.45547210161E+03  0.45547210161E+03  0.00000000000E+00 0. -1.
         21   -1    0    0  501  502 -0.00000000000E+00 -0.00000000000E+00 -0.17488335685E+03  0.17488335685E+03  0.00000000000E+00 0. -1.
         25    1    1    2    0    0 -0.22002765184E+02  0.41371911464E+02  0.19084969661E+02  0.13485174378E+03  0.12500000000E+03 0.  0.
         25    1    1    2    0    0 -0.15530325978E+03 -0.44159333882E+01  0.14457699100E+03  0.24630491122E+03  0.12500000000E+03 0.  0.
         25    1    1    2    0    0  0.17730602497E+03 -0.36955978075E+02  0.11692678409E+03  0.24919880346E+03  0.12500000000E+03 0.  0.
</event>
<event>
 5    0  0.5539899E-005  0.2920945E+03  0.7546771E-02  0.1089261E+00
         21   -1    0    0  502  501  0.00000000000E+00  0.00000000000E+00  0.10797991676E+03  0.10797991676E+03  0.00000000000E+00 0. -1.
         21   -1    0    0  501  502 -0.00000000000E+00 -0.00000000000E+00 -0.79013935572E+03  0.79013935572E+03  0.00000000000E+00 0. -1.
         25    1    1    2    0    0 -0.13133235937E+03 -0.42665047258E+02 -0.28165227462E+03  0.33767069561E+03  0.12500000000E+03 0.  0.
         25    1    1    2    0    0  0.15985092221E+03 -0.45046114072E+02 -0.12057251875E+03  0.24030023304E+03  0.12500000000E+03 0.  0.
         25    1    1    2    0    0 -0.28518562837E+02  0.87711161329E+02 -0.27993464559E+03  0.32014834382E+03  0.12500000000E+03 0.  0.
</event>
<event>
 5    0  0.5539899E-005  0.2216094E+03  0.7546771E-02  0.1132689E+00
         21   -1    0    0  502  501  0.00000000000E+00  0.00000000000E+00  0.24408387253E+03  0.24408387253E+03  0.00000000000E+00 0.  1.
         21   -1    0    0  501  502 -0.00000000000E+00 -0.00000000000E+00 -0.20120436711E+03  0.20120436711E+03  0.00000000000E+00 0.  1.
         25    1    1    2    0    0  0.31543988015E+02  0.82911356315E+01  0.54628691046E+02  0.14026068585E+03  0.12500000000E+03 0.  0.
         25    1    1    2    0    0 -0.25296787443E+02  0.68135570187E+02  0.39148519748E+02  0.14979983304E+03  0.12500000000E+03 0.  0.
         25    1    1    2    0    0 -0.62472005726E+01 -0.76426705819E+02 -0.50897705370E+02  0.15522772075E+03  0.12500000000E+03 0.  0.
</event>
<event>
 5    0  0.5539899E-005  0.3276025E+03  0.7546771E-02  0.1072203E+00
         21   -1    0    0  502  501  0.00000000000E+00  0.00000000000E+00  0.89450986976E+03  0.89450986976E+03  0.00000000000E+00 0. -1.
         21   -1    0    0  501  502 -0.00000000000E+00 -0.00000000000E+00 -0.11998015193E+03  0.11998015193E+03  0.00000000000E+00 0. -1.
         25    1    1    2    0    0  0.90969955735E+02  0.70648751174E+02  0.43594285400E+02  0.17547717974E+03  0.12500000000E+03 0.  0.
         25    1    1    2    0    0  0.92137327118E+02  0.37999139478E+02  0.22457183322E+03  0.27566416148E+03  0.12500000000E+03 0.  0.
         25    1    1    2    0    0 -0.18310728285E+03 -0.10864789065E+03  0.50636359921E+03  0.56334868047E+03  0.12500000000E+03 0.  0.
</event>
<event>
 5    0  0.5539899E-005  0.3378320E+03  0.7546771E-02  0.1067723E+00
         21   -1    0    0  502  501  0.00000000000E+00  0.00000000000E+00  0.22242996140E+03  0.22242996140E+03  0.00000000000E+00 0.  1.
         21   -1    0    0  501  502 -0.00000000000E+00 -0.00000000000E+00 -0.51310730704E+03  0.51310730704E+03  0.00000000000E+00 0.  1.
         25    1    1    2    0    0 -0.15119200666E+03  0.18005996523E+02 -0.11099316249E+03  0.22611439784E+03  0.12500000000E+03 0.  0.
         25    1    1    2    0    0  0.20470922925E+03 -0.15298400502E+03 -0.94828823133E+02  0.29987910902E+03  0.12500000000E+03 0.  0.
         25    1    1    2    0    0 -0.53517222589E+02  0.13497800850E+03 -0.84855360019E+02  0.20954376158E+03  0.12500000000E+03 0.  0.
</event>
<event>
 5    0  0.5539899E-005  0.4908979E+03  0.7546771E-02  0.1016182E+00
         21   -1    0    0  502  501  0.00000000000E+00  0.00000000000E+00  0.87997519874E+03  0.87997519874E+03  0.00000000000E+00 0. -1.
         21   -1    0    0  501  502 -0.00000000000E+00 -0.00000000000E+00 -0.27384952065E+03  0.27384952065E+03  0.00000000000E+00 0. -1.
         25    1    1    2    0    0 -0.27591615917E+03  0.21326858254E+03  0.38402010444E+03  0.53358191105E+03  0.12500000000E+03 0.  0.
         25    1    1    2    0    0  0.10129031037E+03 -0.30320824843E+03  0.16324684650E+03  0.38009143871E+03  0.12500000000E+03 0.  0.
         25    1    1    2    0    0  0.17462584880E+03  0.89939665897E+02  0.58858727148E+02  0.24015136963E+03  0.12500000000E+03 0.  0.
</event>
<event>
 5    0  0.5539899E-005  0.3129977E+03  0.7546771E-02  0.1078918E+00
         21   -1    0    0  502  501  0.00000000000E+00  0.00000000000E+00  0.37283381868E+03  0.37283381868E+03  0.00000000000E+00 0.  1.
         21   -1    0    0  501  502 -0.00000000000E+00 -0.00000000000E+00 -0.26276464371E+03  0.26276464371E+03  0.00000000000E+00 0.  1.
         25    1    1    2    0    0  0.84912847135E+02  0.11993407335E+03 -0.61674675670E+02  0.20254169738E+03  0.12500000000E+03 0.  0.
         25    1    1    2    0    0 -0.55781791090E+01 -0.11545016773E+03 -0.39774456486E+02  0.17483382024E+03  0.12500000000E+03 0.  0.
         25    1    1    2    0    0 -0.79334668026E+02 -0.44839056218E+01  0.21151830713E+03  0.25822294478E+03  0.12500000000E+03 0.  0.
</event>
<event>
 5    0  0.5539899E-005  0.2381723E+03  0.7546771E-02  0.1121016E+00
         21   -1    0    0  502  501  0.00000000000E+00  0.00000000000E+00  0.13324151299E+03  0.13324151299E+03  0.00000000000E+00 0. -1.
         21   -1    0    0  501  502 -0.00000000000E+00 -0.00000000000E+00 -0.42573862786E+03  0.42573862786E+03  0.00000000000E+00 0. -1.
         25    1    1    2    0    0  0.12347875356E+02 -0.24843169054E+02 -0.17128197758E+03  0.21385080995E+03  0.12500000000E+03 0.  0.
         25    1    1    2    0    0 -0.78529286142E+02 -0.57648990971E+02 -0.72685825408E+02  0.17435161071E+03  0.12500000000E+03 0.  0.
         25    1    1    2    0    0  0.66181410786E+02  0.82492160026E+02 -0.48529311881E+02  0.17077772018E+03  0.12500000000E+03 0.  0.
</event>
<event>
 5    0  0.5539899E-005  0.2367107E+03  0.7546771E-02  0.1122004E+00
         21   -1    0    0  502  501  0.00000000000E+00  0.00000000000E+00  0.96530027066E+02  0.96530027066E+02  0.00000000000E+00 0.  1.
         21   -1    0    0  501  502 -0.00000000000E+00 -0.00000000000E+00 -0.58046146389E+03  0.58046146389E+03  0.00000000000E+00 0.  1.
         25    1    1    2    0    0  0.11256029159E+03  0.73800585177E+02 -0.18186096835E+03  0.25848550719E+03  0.12500000000E+03 0.  0.
         25    1    1    2    0    0 -0.62183418921E+02 -0.56252356276E+02 -0.18968996576E+03  0.24215364603E+03  0.12500000000E+03 0.  0.
         25    1    1    2    0    0 -0.50376872667E+02 -0.17548228901E+02 -0.11238050271E+03  0.17635233774E+03  0.12500000000E+03 0.  0.
</event>
<event>
 5    0  0.5539899E-005  0.3139488E+03  0.7546771E-02  0.1078468E+00
         21   -1    0    0  502  501  0.00000000000E+00  0.00000000000E+00  0.60692797148E+03  0.60692797148E+03  0.00000000000E+00 0.  1.
         21   -1    0    0  501  502 -0.00000000000E+00 -0.00000000000E+00 -0.16239792029E+03  0.16239792029E+03  0.00000000000E+00 0.  1.
         25    1    1    2    0    0 -0.11324296873E+03 -0.48981498154E+02  0.59134697824E+02  0.18532422836E+03  0.12500000000E+03 0.  0.
         25    1    1    2    0    0 -0.77843586464E+02 -0.88651703726E+02  0.14083808863E+03  0.22221412137E+03  0.12500000000E+03 0.  0.
         25    1    1    2    0    0  0.19108655520E+03  0.13763320188E+03  0.24455726474E+03  0.36178754204E+03  0.12500000000E+03 0.  0.
</event>
<event>
 5    0  0.5539899E-005  0.3412264E+03  0.7546771E-02  0.1066275E+00
         21   -1    0    0  502  501  0.00000000000E+00  0.00000000000E+00  0.72176381938E+02  0.72176381938E+02  0.00000000000E+00 0.  1.
         21   -1    0    0  501  502 -0.00000000000E+00 -0.00000000000E+00 -0.16132066982E+04  0.16132066982E+04  0.00000000000E+00 0.  1.
         25    1    1    2    0    0 -0.11399267864E+02  0.97269149515E+02 -0.41919711744E+03  0.44826605273E+03  0.12500000000E+03 0.  0.
         25    1    1    2    0    0 -0.71245543027E+02 -0.14279716019E+03 -0.10416100053E+04  0.10611519022E+04  0.12500000000E+03 0.  0.
         25    1    1    2    0    0  0.82644810892E+02  0.45528010678E+02 -0.80223193545E+02  0.17596512526E+03  0.12500000000E+03 0.  0.
</event>
<event>
 5    0  0.5539899E-005  0.3773752E+03  0.7546771E-02  0.1051908E+00
         21   -1    0    0  502  501  0.00000000000E+00  0.00000000000E+00  0.71402038344E+03  0.71402038344E+03  0.00000000000E+00 0.  1.
         21   -1    0    0  501  502 -0.00000000000E+00 -0.00000000000E+00 -0.19945098061E+03  0.19945098061E+03  0.00000000000E+00 0.  1.
         25    1    1    2    0    0  0.13463738870E+03 -0.13941865036E+03  0.62115935755E+02  0.23884759990E+03  0.12500000000E+03 0.  0.
         25    1    1    2    0    0 -0.21672982349E+02  0.21995926042E+03  0.41135126568E+03  0.48341147916E+03  0.12500000000E+03 0.  0.
         25    1    1    2    0    0 -0.11296440636E+03 -0.80540610066E+02  0.41102201392E+02  0.19121228499E+03  0.12500000000E+03 0.  0.
</event>
<event>
 5    0  0.5539899E-005  0.9266692E+03  0.7546771E-02  0.9392844E-01
         21   -1    0    0  502  501  0.00000000000E+00  0.00000000000E+00  0.90329240534E+03  0.90329240534E+03  0.00000000000E+00 0. -1.
         21   -1    0    0  501  502 -0.00000000000E+00 -0.00000000000E+00 -0.95065105043E+03  0.95065105043E+03  0.00000000000E+00 0. -1.
         25    1    1    2    0    0 -0.54645970766E+03  0.11822130562E+03 -0.68824111852E+03  0.89548608388E+03  0.12500000000E+03 0.  0.
         25    1    1    2    0    0  0.35795272299E+03  0.97458061525E+02  0.42956312124E+03  0.58118645956E+03  0.12500000000E+03 0.  0.
         25    1    1    2    0    0  0.18850698467E+03 -0.21567936714E+03  0.21131935219E+03  0.37727091233E+03  0.12500000000E+03 0.  0.
</event>
<event>
 5    0  0.5887517E-005  0.2821910E+03  0.7546771E-02  0.1094498E+00
         21   -1    0    0  502  501  0.00000000000E+00  0.00000000000E+00  0.24007275421E+03  0.24007275421E+03  0.00000000000E+00 0. -1.
         21   -1    0    0  501  502 -0.00000000000E+00 -0.00000000000E+00 -0.33169842321E+03  0.33169842321E+03  0.00000000000E+00 0. -1.
         25    1    1    2    0    0 -0.89038731739E+02  0.61048710058E+02 -0.67382288708E+02  0.17838221206E+03  0.12500000000E+03 0.  0.
         25    1    1    2    0    0  0.97052323730E+02 -0.16503248154E+03 -0.29293595831E+02  0.23051678521E+03  0.12500000000E+03 0.  0.
         25    1    1    2    0    0 -0.80135919916E+01  0.10398377148E+03  0.50502155328E+01  0.16287218015E+03  0.12500000000E+03 0.  0.
</event>
<event>
 5    0  0.5539899E-005  0.4739516E+03  0.7546771E-02  0.1020811E+00
         21   -1    0    0  502  501  0.00000000000E+00  0.00000000000E+00  0.55651028394E+03  0.55651028394E+03  0.00000000000E+00 0.  1.
         21   -1    0    0  501  502 -0.00000000000E+00 -0.00000000000E+00 -0.40364052900E+03  0.40364052900E+03  0.00000000000E+00 0.  1.
         25    1    1    2    0    0  0.34310557450E+03 -0.11827036986E+03  0.18048802295E+03  0.42415827479E+03  0.12500000000E+03 0.  0.
         25    1    1    2    0    0 -0.69619211512E+02 -0.72225650020E+02  0.57003201935E+02  0.17011097602E+03  0.12500000000E+03 0.  0.
         25    1    1    2    0    0 -0.27348636299E+03  0.19049601988E+03 -0.84621469957E+02  0.36588156213E+03  0.12500000000E+03 0.  0.
</event>
<event>
 5    0  0.6036036E-005  0.2707203E+03  0.7546771E-02  0.1100868E+00
         21   -1    0    0  502  501  0.00000000000E+00  0.00000000000E+00  0.52183095728E+03  0.52183095728E+03  0.00000000000E+00 0. -1.
         21   -1    0    0  501  502 -0.00000000000E+00 -0.00000000000E+00 -0.14044683748E+03  0.14044683748E+03  0.00000000000E+00 0. -1.
         25    1    1    2    0    0  0.13080487736E+01  0.42650148299E+02  0.45902616376E+01  0.13216208474E+03  0.12500000000E+03 0.  0.
         25    1    1    2    0    0 -0.86126902287E+02  0.85969804844E+02  0.18022027737E+03  0.25082463798E+03  0.12500000000E+03 0.  0.
         25    1    1    2    0    0  0.84818853513E+02 -0.12861995314E+03  0.19657358079E+03  0.27929107204E+03  0.12500000000E+03 0.  0.
</event>
<event>
 5    0  0.5539899E-005  0.4756499E+03  0.7546771E-02  0.1020338E+00
         21   -1    0    0  502  501  0.00000000000E+00  0.00000000000E+00  0.44151471912E+03  0.44151471912E+03  0.00000000000E+00 0.  1.
         21   -1    0    0  501  502 -0.00000000000E+00 -0.00000000000E+00 -0.51242410845E+03  0.51242410845E+03  0.00000000000E+00 0.  1.
         25    1    1    2    0    0 -0.22456687930E+02 -0.36886124871E+03 -0.13238753932E+03  0.41196405693E+03  0.12500000000E+03 0.  0.
         25    1    1    2    0    0  0.14864911983E+03  0.19706990865E+03 -0.30363821783E+02  0.27835242301E+03  0.12500000000E+03 0.  0.
         25    1    1    2    0    0 -0.12619243190E+03  0.17179134006E+03  0.91841971777E+02  0.26362234763E+03  0.12500000000E+03 0.  0.
</event>
<event>
 5    0  0.5539899E-005  0.4650914E+03  0.7546771E-02  0.1023315E+00
         21   -1    0    0  502  501  0.00000000000E+00  0.00000000000E+00  0.27861132598E+03  0.27861132598E+03  0.00000000000E+00 0.  1.
         21   -1    0    0  501  502 -0.00000000000E+00 -0.00000000000E+00 -0.77638626699E+03  0.77638626699E+03  0.00000000000E+00 0.  1.
         25    1    1    2    0    0  0.13975631116E+03  0.25814843753E+03 -0.41212453620E+03  0.52119485382E+03  0.12500000000E+03 0.  0.
         25    1    1    2    0    0 -0.25409063820E+03 -0.16842144535E+03 -0.91740839264E+02  0.34200762749E+03  0.12500000000E+03 0.  0.
         25    1    1    2    0    0  0.11433432704E+03 -0.89726992183E+02  0.60904344573E+01  0.19179511166E+03  0.12500000000E+03 0.  0.
</event>
<event>
 5    0  0.5539899E-005  0.3894558E+03  0.7546771E-02  0.1047493E+00
         21   -1    0    0  502  501  0.00000000000E+00  0.00000000000E+00  0.32570736073E+03  0.32570736073E+03  0.00000000000E+00 0.  1.
         21   -1    0    0  501  502 -0.00000000000E+00 -0.00000000000E+00 -0.46568138559E+03  0.46568138559E+03  0.00000000000E+00 0.  1.
         25    1    1    2    0    0  0.66289541752E+02 -0.21938693842E+03  0.50365407498E+02  0.26586952884E+03  0.12500000000E+03 0.  0.
         25    1    1    2    0    0 -0.10862904475E+03  0.14676316137E+03  0.63620510829E+02  0.23024392347E+03  0.12500000000E+03 0.  0.
         25    1    1    2    0    0  0.42339502999E+02  0.72623777050E+02 -0.25395994318E+03  0.29527529400E+03  0.12500000000E+03 0.  0.
</event>
<event>
 5    0  0.5539899E-005  0.2209571E+03  0.7546771E-02  0.1133171E+00
         21   -1    0    0  502  501  0.00000000000E+00  0.00000000000E+00  0.95611917279E+02  0.95611917279E+02  0.00000000000E+00 0. -1.
         21   -1    0    0  501  502 -0.00000000000E+00 -0.00000000000E+00 -0.51062722783E+03  0.51062722783E+03  0.00000000000E+00 0. -1.
         25    1    1    2    0    0 -0.85653686941E+02  0.35544789130E+02 -0.10072440496E+03  0.18539253457E+03  0.12500000000E+03 0.  0.
         25    1    1    2    0    0  0.42499951387E+01 -0.17897592129E+02 -0.17612411114E+03  0.21675582757E+03  0.12500000000E+03 0.  0.
         25    1    1    2    0    0  0.81403691802E+02 -0.17647197001E+02 -0.13816679446E+03  0.20409078297E+03  0.12500000000E+03 0.  0.
</event>
<event>
 5    0  0.5539899E-005  0.2385052E+03  0.7546771E-02  0.1120793E+00
         21   -1    0    0  502  501  0.00000000000E+00  0.00000000000E+00  0.41325126108E+02  0.41325126108E+02  0.00000000000E+00 0.  1.
         21   -1    0    0  501  502 -0.00000000000E+00 -0.00000000000E+00 -0.13765162469E+04  0.13765162469E+04  0.00000000000E+00 0.  1.
         25    1    1    2    0    0  0.86364326593E+02  0.15427728671E+02 -0.51122965253E+03  0.53355184316E+03  0.12500000000E+03 0.  0.
         25    1    1    2    0    0  0.36880387937E+01  0.69807866125E+01 -0.16480295431E+03  0.20699600663E+03  0.12500000000E+03 0.  0.
         25    1    1    2    0    0 -0.90052365386E+02 -0.22408515284E+02 -0.65915851397E+03  0.67729352323E+03  0.12500000000E+03 0.  0.
</event>
<event>
 5    0  0.7655676E-005  0.7108939E+03  0.7546771E-02  0.9698781E-01
         21   -1    0    0  502  501  0.00000000000E+00  0.00000000000E+00  0.50132069018E+03  0.50132069018E+03  0.00000000000E+00 0. -1.
         21   -1    0    0  501  502 -0.00000000000E+00 -0.00000000000E+00 -0.10080776870E+04  0.10080776870E+04  0.00000000000E+00 0. -1.
         25    1    1    2    0    0  0.38384408430E+03 -0.31474430355E+03 -0.46213617069E+03  0.68963403188E+03  0.12500000000E+03 0.  0.
         25    1    1    2    0    0 -0.40237322030E+02  0.39903125277E+02  0.24325458888E+03  0.27930108575E+03  0.12500000000E+03 0.  0.
         25    1    1    2    0    0 -0.34360676227E+03  0.27484117827E+03 -0.28787541502E+03  0.54046325955E+03  0.12500000000E+03 0.  0.
</event>
<event>
 5    0  0.5539899E-005  0.2815694E+03  0.7546771E-02  0.1094835E+00
         21   -1    0    0  502  501  0.00000000000E+00  0.00000000000E+00  0.42537972533E+02  0.42537972533E+02  0.00000000000E+00 0.  1.
         21   -1    0    0  501  502 -0.00000000000E+00 -0.00000000000E+00 -0.18637775274E+04  0.18637775274E+04  0.00000000000E+00 0.  1.
         25    1    1    2    0    0  0.15691248423E+01  0.12967314842E+03 -0.64039185450E+03  0.66524004306E+03  0.12500000000E+03 0.  0.
         25    1    1    2    0    0 -0.94524600497E+02 -0.14058381736E+03 -0.84289135309E+03  0.86878624696E+03  0.12500000000E+03 0.  0.
         25    1    1    2    0    0  0.92955475655E+02  0.10910668936E+02 -0.33795634726E+03  0.37228920989E+03  0.12500000000E+03 0.  0.
</event>
<event>
 5    0  0.5539899E-005  0.4166876E+03  0.7546771E-02  0.1038150E+00
         21   -1    0    0  502  501  0.00000000000E+00  0.00000000000E+00  0.40224853090E+03  0.40224853090E+03  0.00000000000E+00 0. -1.
         21   -1    0    0  501  502 -0.00000000000E+00 -0.00000000000E+00 -0.43164495025E+03  0.43164495025E+03  0.00000000000E+00 0. -1.
         25    1    1    2    0    0  0.20621980586E+03  0.72867918280E+02  0.85189774840E+02  0.26592976437E+03  0.12500000000E+03 0.  0.
         25    1    1    2    0    0 -0.34350784049E+03 -0.56468022386E+02 -0.74373885990E+02  0.37728338017E+03  0.12500000000E+03 0.  0.
         25    1    1    2    0    0  0.13728803464E+03 -0.16399895894E+02 -0.40212308199E+02  0.19068033661E+03  0.12500000000E+03 0.  0.
</event>
<event>
 5    0  0.5539899E-005  0.2629949E+03  0.7546771E-02  0.1105357E+00
         21   -1    0    0  502  501  0.00000000000E+00  0.00000000000E+00  0.28635532103E+03  0.28635532103E+03  0.00000000000E+00 0.  1.
         21   -1    0    0  501  502 -0.00000000000E+00 -0.00000000000E+00 -0.24154015738E+03  0.24154015738E+03  0.00000000000E+00 0.  1.
         25    1    1    2    0    0 -0.56602503748E+02  0.87507454340E+02  0.88837009822E+02  0.18541416426E+03  0.12500000000E+03 0.  0.
         25    1    1    2    0    0 -0.31796914396E+00 -0.68069744429E+02  0.73936579611E+02  0.16039080091E+03  0.12500000000E+03 0.  0.
         25    1    1    2    0    0  0.56920472892E+02 -0.19437709910E+02 -0.11795842578E+03  0.18209051324E+03  0.12500000000E+03 0.  0.
</event>
<event>
 5    0  0.5539899E-005  0.2786880E+03  0.7546771E-02  0.1096408E+00
         21   -1    0    0  502  501  0.00000000000E+00  0.00000000000E+00  0.23162329814E+04  0.23162329814E+04  0.00000000000E+00 0.  1.
         21   -1    0    0  501  502 -0.00000000000E+00 -0.00000000000E+00 -0.33531599528E+02  0.33531599528E+02  0.00000000000E+00 0.  1.
         25    1    1    2    0    0  0.65017801007E+02 -0.12315414863E+03  0.64958287808E+03  0.67600086854E+03  0.12500000000E+03 0.  0.
         25    1    1    2    0    0 -0.88529078175E+02  0.15262273254E+03  0.73309141734E+03  0.76431611415E+03  0.12500000000E+03 0.  0.
         25    1    1    2    0    0  0.23511277168E+02 -0.29468583909E+02  0.90002708641E+03  0.90944759820E+03  0.12500000000E+03 0.  0.
</event>
<event>
 5    0  0.5539899E-005  0.2537632E+03  0.7546771E-02  0.1110949E+00
         21   -1    0    0  502  501  0.00000000000E+00  0.00000000000E+00  0.68601787332E+02  0.68601787332E+02  0.00000000000E+00 0. -1.
         21   -1    0    0  501  502 -0.00000000000E+00 -0.00000000000E+00 -0.93868921951E+03  0.93868921951E+03  0.00000000000E+00 0. -1.
         25    1    1    2    0    0  0.65824052693E+02  0.11793823807E+02 -0.16241994210E+03  0.21558556952E+03  0.12500000000E+03 0.  0.
         25    1    1    2    0    0 -0.12746257557E+02  0.88775876060E+02 -0.17566843492E+03  0.23351236002E+03  0.12500000000E+03 0.  0.
         25    1    1    2    0    0 -0.53077795136E+02 -0.10056969987E+03 -0.53199905515E+03  0.55819307730E+03  0.12500000000E+03 0.  0.
</event>
<event>
 5    0  0.5539899E-005  0.2461159E+03  0.7546771E-02  0.1115784E+00
         21   -1    0    0  502  501  0.00000000000E+00  0.00000000000E+00  0.11088214768E+04  0.11088214768E+04  0.00000000000E+00 0.  1.
         21   -1    0    0  501  502 -0.00000000000E+00 -0.00000000000E+00 -0.54628298138E+02  0.54628298138E+02  0.00000000000E+00 0.  1.
         25    1    1    2    0    0  0.84813320925E+02 -0.51943806198E+02  0.20324081126E+03  0.25850200342E+03  0.12500000000E+03 0.  0.
         25    1    1    2    0    0  0.30275716528E+02 -0.47862655774E+01  0.34585881482E+03  0.36902960198E+03  0.12500000000E+03 0.  0.
         25    1    1    2    0    0 -0.11508903745E+03  0.56730071776E+02  0.50509355258E+03  0.53591816954E+03  0.12500000000E+03 0.  0.
</event>
<event>
 5    0  0.5539899E-005  0.3605832E+03  0.7546771E-02  0.1058353E+00
         21   -1    0    0  502  501  0.00000000000E+00  0.00000000000E+00  0.13519141954E+03  0.13519141954E+03  0.00000000000E+00 0.  1.
         21   -1    0    0  501  502 -0.00000000000E+00 -0.00000000000E+00 -0.96174938586E+03  0.96174938586E+03  0.00000000000E+00 0.  1.
         25    1    1    2    0    0  0.25096905443E+03  0.81142894437E+02 -0.47588655075E+03  0.55826753872E+03  0.12500000000E+03 0.  0.
         25    1    1    2    0    0 -0.22730191203E+03 -0.88368236351E+02 -0.18935320231E+03  0.33309869353E+03  0.12500000000E+03 0.  0.
         25    1    1    2    0    0 -0.23667142403E+02  0.72253419140E+01 -0.16131821327E+03  0.20557457315E+03  0.12500000000E+03 0.  0.
</event>
<event>
 5    0  0.5539899E-005  0.2035563E+03  0.7546771E-02  0.1146773E+00
         21   -1    0    0  502  501  0.00000000000E+00  0.00000000000E+00  0.68021882272E+03  0.68021882272E+03  0.00000000000E+00 0.  1.
         21   -1    0    0  501  502 -0.00000000000E+00 -0.00000000000E+00 -0.60914446424E+02  0.60914446424E+02  0.00000000000E+00 0.  1.
         25    1    1    2    0    0 -0.21205787204E+02  0.58369568491E+02  0.23647252345E+03  0.27459232743E+03  0.12500000000E+03 0.  0.
         25    1    1    2    0    0 -0.66684254096E+01 -0.17111822933E+02  0.23381958306E+03  0.26577035163E+03  0.12500000000E+03 0.  0.
         25    1    1    2    0    0  0.27874212613E+02 -0.41257745558E+02  0.14901226979E+03  0.20077059009E+03  0.12500000000E+03 0.  0.
</event>
<event>
 5    0  0.5539899E-005  0.4556871E+03  0.7546771E-02  0.1026040E+00
         21   -1    0    0  502  501  0.00000000000E+00  0.00000000000E+00  0.46593032118E+03  0.46593032118E+03  0.00000000000E+00 0. -1.
         21   -1    0    0  501  502 -0.00000000000E+00 -0.00000000000E+00 -0.44566916190E+03  0.44566916190E+03  0.00000000000E+00 0. -1.
         25    1    1    2    0    0  0.82747392174E+02 -0.17402618786E+03 -0.75472956155E+02  0.24177140460E+03  0.12500000000E+03 0.  0.
         25    1    1    2    0    0 -0.10777252052E+02  0.36890395712E+03  0.15645135922E+03  0.41989082693E+03  0.12500000000E+03 0.  0.
         25    1    1    2    0    0 -0.71970140122E+02 -0.19487776925E+03 -0.60717243785E+02  0.24993725155E+03  0.12500000000E+03 0.  0.
</event>
<event>
 5    0  0.5539899E-005  0.3284435E+03  0.7546771E-02  0.1071828E+00
         21   -1    0    0  502  501  0.00000000000E+00  0.00000000000E+00  0.88848242989E+02  0.88848242989E+02  0.00000000000E+00 0. -1.
         21   -1    0    0  501  502 -0.00000000000E+00 -0.00000000000E+00 -0.12141503910E+04  0.12141503910E+04  0.00000000000E+00 0. -1.
         25    1    1    2    0    0 -0.11612039395E+03 -0.12495458102E+03 -0.55760500147E+03  0.59636057119E+03  0.12500000000E+03 0.  0.
         25    1    1    2    0    0  0.10280119059E+03  0.21001292985E+03 -0.31361774428E+03  0.41067579064E+03  0.12500000000E+03 0.  0.
         25    1    1    2    0    0  0.13319203353E+02 -0.85058348832E+02 -0.25407940226E+03  0.29596227215E+03  0.12500000000E+03 0.  0.
</event>
<event>
 5    0  0.5539899E-005  0.2981449E+03  0.7546771E-02  0.1086172E+00
         21   -1    0    0  502  501  0.00000000000E+00  0.00000000000E+00  0.80239578356E+03  0.80239578356E+03  0.00000000000E+00 0. -1.
         21   -1    0    0  501  502 -0.00000000000E+00 -0.00000000000E+00 -0.11078120891E+03  0.11078120891E+03  0.00000000000E+00 0. -1.
         25    1    1    2    0    0  0.49263949373E+02 -0.10355174637E+03  0.23023009696E+03  0.28597342260E+03  0.12500000000E+03 0.  0.
         25    1    1    2    0    0 -0.17479425063E+03  0.96784557812E+01  0.30356291846E+03  0.37205127070E+03  0.12500000000E+03 0.  0.
         25    1    1    2    0    0  0.12553030126E+03  0.93873290593E+02  0.15782155923E+03  0.25515229918E+03  0.12500000000E+03 0.  0.
</event>
<event>
 5    0  0.5539899E-005  0.2612753E+03  0.7546771E-02  0.1106379E+00
         21   -1    0    0  502  501  0.00000000000E+00  0.00000000000E+00  0.23719347962E+02  0.23719347962E+02  0.00000000000E+00 0.  1.
         21   -1    0    0  501  502 -0.00000000000E+00 -0.00000000000E+00 -0.28780214560E+04  0.28780214560E+04  0.00000000000E+00 0.  1.
         25    1    1    2    0    0  0.92556174821E+02  0.75822656386E+01 -0.17684224916E+04  0.17752654013E+04  0.12500000000E+03 0.  0.
         25    1    1    2    0    0 -0.51831038252E+02 -0.71495418785E+02 -0.52411829376E+03  0.54600644436E+03  0.12500000000E+03 0.  0.
         25    1    1    2    0    0 -0.40725136569E+02  0.63913153147E+02 -0.56176132273E+03  0.58046895835E+03  0.12500000000E+03 0.  0.
</event>
<event>
 5    0  0.5539899E-005  0.3182305E+03  0.7546771E-02  0.1076467E+00
         21   -1    0    0  502  501  0.00000000000E+00  0.00000000000E+00  0.13324893320E+04  0.13324893320E+04  0.00000000000E+00 0.  1.
         21   -1    0    0  501  502 -0.00000000000E+00 -0.00000000000E+00 -0.76001105789E+02  0.76001105789E+02  0.00000000000E+00 0.  1.
         25    1    1    2    0    0  0.12421211005E+03 -0.28558624573E+02  0.99108386179E+03  0.10070334972E+04  0.12500000000E+03 0.  0.
         25    1    1    2    0    0 -0.19529842141E+02 -0.25172314428E+02  0.10198351300E+03  0.16444055787E+03  0.12500000000E+03 0.  0.
         25    1    1    2    0    0 -0.10468226791E+03  0.53730939001E+02  0.16342085146E+03  0.23701638279E+03  0.12500000000E+03 0.  0.
</event>
<event>
 5    0  0.5539899E-005  0.3121982E+03  0.7546771E-02  0.1079297E+00
         21   -1    0    0  502  501  0.00000000000E+00  0.00000000000E+00  0.11559060758E+03  0.11559060758E+03  0.00000000000E+00 0.  1.
         21   -1    0    0  501  502 -0.00000000000E+00 -0.00000000000E+00 -0.84321492938E+03  0.84321492938E+03  0.00000000000E+00 0.  1.
         25    1    1    2    0    0 -0.13372567315E+03 -0.55599256410E+02 -0.13729172581E+03  0.23547367358E+03  0.12500000000E+03 0.  0.
         25    1    1    2    0    0  0.12857941912E+03  0.60794436136E+02 -0.93906053060E+02  0.21135746329E+03  0.12500000000E+03 0.  0.
         25    1    1    2    0    0  0.51462540356E+01 -0.51951797257E+01 -0.49642654292E+03  0.51197440008E+03  0.12500000000E+03 0.  0.
</event>
<event>
 5    0  0.5539899E-005  0.2096434E+03  0.7546771E-02  0.1141849E+00
         21   -1    0    0  502  501  0.00000000000E+00  0.00000000000E+00  0.83855301084E+03  0.83855301084E+03  0.00000000000E+00 0.  1.
         21   -1    0    0  501  502 -0.00000000000E+00 -0.00000000000E+00 -0.52412139517E+02  0.52412139517E+02  0.00000000000E+00 0.  1.
         25    1    1    2    0    0  0.14259420653E+02  0.21238999249E+02  0.12190455677E+03  0.17646571091E+03  0.12500000000E+03 0.  0.
         25    1    1    2    0    0  0.22667426015E+02 -0.31887325086E+02  0.29436658969E+03  0.32219140713E+03  0.12500000000E+03 0.  0.
         25    1    1    2    0    0 -0.36926846668E+02  0.10648325837E+02  0.36986972486E+03  0.39230803231E+03  0.12500000000E+03 0.  0.
</event>
<event>
 5    0  0.5539899E-005  0.4387854E+03  0.7546771E-02  0.1031120E+00
         21   -1    0    0  502  501  0.00000000000E+00  0.00000000000E+00  0.11489695150E+03  0.11489695150E+03  0.00000000000E+00 0.  1.
         21   -1    0    0  501  502 -0.00000000000E+00 -0.00000000000E+00 -0.16756981622E+04  0.16756981622E+04  0.00000000000E+00 0.  1.
         25    1    1    2    0    0  0.21972824547E+03 -0.19114814518E+03 -0.86382937449E+03  0.92013276406E+03  0.12500000000E+03 0.  0.
         25    1    1    2    0    0 -0.13613736587E+03  0.14540525578E+03 -0.10421302478E+03  0.25721863332E+03  0.12500000000E+03 0.  0.
         25    1    1    2    0    0 -0.83590879609E+02  0.45742889403E+02 -0.59275881137E+03  0.61324371627E+03  0.12500000000E+03 0.  0.
</event>
<event>
 5    0  0.5539899E-005  0.3984141E+03  0.7546771E-02  0.1044330E+00
         21   -1    0    0  502  501  0.00000000000E+00  0.00000000000E+00  0.14220949408E+04  0.14220949408E+04  0.00000000000E+00 0.  1.
         21   -1    0    0  501  502 -0.00000000000E+00 -0.00000000000E+00 -0.11161966153E+03  0.11161966153E+03  0.00000000000E+00 0.  1.
         25    1    1    2    0    0 -0.87831276726E+02 -0.27841712090E+03  0.40269110314E+03  0.51285041769E+03  0.12500000000E+03 0.  0.
         25    1    1    2    0    0 -0.20706441392E+02  0.21351916016E+03  0.30986019003E+03  0.39706111096E+03  0.12500000000E+03 0.  0.
         25    1    1    2    0    0  0.10853771812E+03  0.64897960737E+02  0.59792398611E+03  0.62380307368E+03  0.12500000000E+03 0.  0.
</event>
<event>
 5    0  0.5539899E-005  0.2660583E+03  0.7546771E-02  0.1103557E+00
         21   -1    0    0  502  501  0.00000000000E+00  0.00000000000E+00  0.90123492708E+02  0.90123492708E+02  0.00000000000E+00 0. -1.
         21   -1    0    0  501  502 -0.00000000000E+00 -0.00000000000E+00 -0.78544490934E+03  0.78544490934E+03  0.00000000000E+00 0. -1.
         25    1    1    2    0    0 -0.98340706020E+02 -0.67882982073E+01 -0.31687215517E+03  0.35461237736E+03  0.12500000000E+03 0.  0.
         25    1    1    2    0    0  0.20791652874E+02  0.92200346163E+02 -0.28904006573E+03  0.32878922771E+03  0.12500000000E+03 0.  0.
         25    1    1    2    0    0  0.77549053147E+02 -0.85412047956E+02 -0.89409195733E+02  0.19216679698E+03  0.12500000000E+03 0.  0.
</event>
<event>
 5    0  0.5539899E-005  0.2922012E+03  0.7546771E-02  0.1089205E+00
         21   -1    0    0  502  501  0.00000000000E+00  0.00000000000E+00  0.58998454625E+03  0.58998454625E+03  0.00000000000E+00 0.  1.
         21   -1    0    0  501  502 -0.00000000000E+00 -0.00000000000E+00 -0.14471825761E+03  0.14471825761E+03  0.00000000000E+00 0.  1.
         25    1    1    2    0    0  0.60119878134E+02  0.15111312498E+03  0.61579338629E+02  0.21416486928E+03  0.12500000000E+03 0.  0.
         25    1    1    2    0    0 -0.11821829436E+03 -0.10553520194E+03  0.18023700926E+03  0.27059863909E+03  0.12500000000E+03 0.  0.
         25    1    1    2    0    0  0.58098416225E+02 -0.45577923037E+02  0.20344994076E+03  0.24993929549E+03  0.12500000000E+03 0.  0.
</event>
<event>
 5    0  0.5539899E-005  0.2622525E+03  0.7546771E-02  0.1105797E+00
         21   -1    0    0  502  501  0.00000000000E+00  0.00000000000E+00  0.55059350255E+02  0.55059350255E+02  0.00000000000E+00 0. -1.
         21   -1    0    0  501  502 -0.00000000000E+00 -0.00000000000E+00 -0.12491314869E+04  0.12491314869E+04  0.00000000000E+00 0. -1.
         25    1    1    2    0    0  0.12614111699E+03  0.37403863870E+02 -0.48335795896E+03  0.51630470356E+03  0.12500000000E+03 0.  0.
         25    1    1    2    0    0 -0.54668460292E+02 -0.11181151492E+03 -0.40835677532E+03  0.44482660821E+03  0.12500000000E+03 0.  0.
         25    1    1    2    0    0 -0.71472656701E+02  0.74407651051E+02 -0.30235740233E+03  0.34305952535E+03  0.12500000000E+03 0.  0.
</event>
<event>
 5    0  0.5539899E-005  0.2775338E+03  0.7546771E-02  0.1097044E+00
         21   -1    0    0  502  501  0.00000000000E+00  0.00000000000E+00  0.92938723437E+02  0.92938723437E+02  0.00000000000E+00 0.  1.
         21   -1    0    0  501  502 -0.00000000000E+00 -0.00000000000E+00 -0.82877219701E+03  0.82877219701E+03  0.00000000000E+00 0.  1.
         25    1    1    2    0    0 -0.42642099349E+02 -0.17816467073E+03 -0.27692511375E+03  0.35478657973E+03  0.12500000000E+03 0.  0.
         25    1    1    2    0    0 -0.26771899367E+02  0.12915233340E+03 -0.25257891378E+03  0.31115617864E+03  0.12500000000E+03 0.  0.
         25    1    1    2    0    0  0.69413998715E+02  0.49012337324E+02 -0.20632944605E+03  0.25576816208E+03  0.12500000000E+03 0.  0.
</event>
<event>
 5    0  0.5539899E-005  0.3501264E+03  0.7546771E-02  0.1062563E+00
         21   -1    0    0  502  501  0.00000000000E+00  0.00000000000E+00  0.17081503654E+04  0.17081503654E+04  0.00000000000E+00 0.  1.
         21   -1    0    0  501  502 -0.00000000000E+00 -0.00000000000E+00 -0.71766824220E+02  0.71766824220E+02  0.00000000000E+00 0.  1.
         25    1    1    2    0    0  0.22915502971E+03  0.90142012273E+02  0.97152579339E+03  0.10100123649E+04  0.12500000000E+03 0.  0.
         25    1    1    2    0    0 -0.31062634867E+02 -0.53007474779E+02  0.16008674305E+03  0.21219671290E+03  0.12500000000E+03 0.  0.
         25    1    1    2    0    0 -0.19809239484E+03 -0.37134537495E+02  0.50477100477E+03  0.55770811185E+03  0.12500000000E+03 0.  0.
</event>
<event>
 5    0  0.5539899E-005  0.2153136E+03  0.7546771E-02  0.1137426E+00
         21   -1    0    0  502  501  0.00000000000E+00  0.00000000000E+00  0.20835448956E+03  0.20835448956E+03  0.00000000000E+00 0. -1.
         21   -1    0    0  501  502 -0.00000000000E+00 -0.00000000000E+00 -0.22250510892E+03  0.22250510892E+03  0.00000000000E+00 0. -1.
         25    1    1    2    0    0  0.56878015403E+02  0.89906967977E+01  0.21546226963E+02  0.13930248082E+03  0.12500000000E+03 0.  0.
         25    1    1    2    0    0  0.32992412234E+01  0.48807772873E+02 -0.43391757208E+02  0.14107064996E+03  0.12500000000E+03 0.  0.
         25    1    1    2    0    0 -0.60177256626E+02 -0.57798469671E+02  0.76949108870E+01  0.15048646771E+03  0.12500000000E+03 0.  0.
</event>
<event>
 5    0  0.5539899E-005  0.3755529E+03  0.7546771E-02  0.1052590E+00
         21   -1    0    0  502  501  0.00000000000E+00  0.00000000000E+00  0.11203951060E+04  0.11203951060E+04  0.00000000000E+00 0. -1.
         21   -1    0    0  501  502 -0.00000000000E+00 -0.00000000000E+00 -0.12588416956E+03  0.12588416956E+03  0.00000000000E+00 0. -1.
         25    1    1    2    0    0 -0.82217343117E+02 -0.30272669901E+02  0.57707927520E+03  0.59692680951E+03  0.12500000000E+03 0.  0.
         25    1    1    2    0    0  0.10301258142E+03 -0.18506390896E+03  0.23318417930E+03  0.33891017070E+03  0.12500000000E+03 0.  0.
         25    1    1    2    0    0 -0.20795238301E+02  0.21533657886E+03  0.18424748191E+03  0.31044229532E+03  0.12500000000E+03 0.  0.
</event>
<event>
 5    0  0.5539899E-005  0.2595560E+03  0.7546771E-02  0.1107410E+00
         21   -1    0    0  502  501  0.00000000000E+00  0.00000000000E+00  0.17927556252E+04  0.17927556252E+04  0.00000000000E+00 0. -1.
         21   -1    0    0  501  502 -0.00000000000E+00 -0.00000000000E+00 -0.37578633418E+02  0.37578633418E+02  0.00000000000E+00 0. -1.
         25    1    1    2    0    0 -0.12161422209E+03  0.28305083370E+02  0.58599741243E+03  0.61205323636E+03  0.12500000000E+03 0.  0.
         25    1    1    2    0    0  0.37263405023E+02 -0.15180971980E+02  0.21323129984E+03  0.25042286336E+03  0.12500000000E+03 0.  0.
         25    1    1    2    0    0  0.84350817072E+02 -0.13124111389E+02  0.95594827952E+03  0.96785815890E+03  0.12500000000E+03 0.  0.
</event>
<event>
 5    0  0.5539899E-005  0.3066884E+03  0.7546771E-02  0.1081944E+00
         21   -1    0    0  502  501  0.00000000000E+00  0.00000000000E+00  0.18435126514E+03  0.18435126514E+03  0.00000000000E+00 0. -1.
         21   -1    0    0  501  502 -0.00000000000E+00 -0.00000000000E+00 -0.51020951465E+03  0.51020951465E+03  0.00000000000E+00 0. -1.
         25    1    1    2    0    0 -0.64127695991E+02 -0.12301943934E+03  0.36728076161E+01  0.18677428454E+03  0.12500000000E+03 0.  0.
         25    1    1    2    0    0 -0.61174175255E+02  0.54974421299E+02 -0.28969981600E+02  0.15240973246E+03  0.12500000000E+03 0.  0.
         25    1    1    2    0    0  0.12530187125E+03  0.68045018037E+02 -0.30056107552E+03  0.35537676280E+03  0.12500000000E+03 0.  0.
</event>
<event>
 5    0  0.5539899E-005  0.2691684E+03  0.7546771E-02  0.1101757E+00
         21   -1    0    0  502  501  0.00000000000E+00  0.00000000000E+00  0.14016961409E+03  0.14016961409E+03  0.00000000000E+00 0. -1.
         21   -1    0    0  501  502 -0.00000000000E+00 -0.00000000000E+00 -0.51688537561E+03  0.51688537561E+03  0.00000000000E+00 0. -1.
         25    1    1    2    0    0 -0.84386190548E+02  0.25977114688E+02 -0.17095803326E+03  0.22945040592E+03  0.12500000000E+03 0.  0.
         25    1    1    2    0    0  0.68977784779E+02 -0.96235335712E+02 -0.22368753758E+03  0.28227697232E+03  0.12500000000E+03 0.  0.
         25    1    1    2    0    0  0.15408405768E+02  0.70258221024E+02  0.17929809314E+02  0.14532761146E+03  0.12500000000E+03 0.  0.
</event>
<event>
 5    0  0.5539899E-005  0.2830552E+03  0.7546771E-02  0.1094032E+00
         21   -1    0    0  502  501  0.00000000000E+00  0.00000000000E+00  0.16868157893E+03  0.16868157893E+03  0.00000000000E+00 0.  1.
         21   -1    0    0  501  502 -0.00000000000E+00 -0.00000000000E+00 -0.47497930728E+03  0.47497930728E+03  0.00000000000E+00 0.  1.
         25    1    1    2    0    0 -0.63772942316E+02  0.25843696714E+02 -0.43830732783E+02  0.14926827516E+03  0.12500000000E+03 0.  0.
         25    1    1    2    0    0 -0.13233166158E+03 -0.30574832606E+02 -0.93638185488E+02  0.20697729060E+03  0.12500000000E+03 0.  0.
         25    1    1    2    0    0  0.19610460389E+03  0.47311358920E+01 -0.16882881008E+03  0.28741532045E+03  0.12500000000E+03 0.  0.
</event>
<event>
 5    0  0.5539899E-005  0.2157553E+03  0.7546771E-02  0.1137088E+00
         21   -1    0    0  502  501  0.00000000000E+00  0.00000000000E+00  0.26986438214E+03  0.26986438214E+03  0.00000000000E+00 0.  1.
         21   -1    0    0  501  502 -0.00000000000E+00 -0.00000000000E+00 -0.17249528504E+03  0.17249528504E+03  0.00000000000E+00 0.  1.
         25    1    1    2    0    0 -0.57797424622E+02  0.58511295408E+02  0.11798908067E+02  0.15009439768E+03  0.12500000000E+03 0.  0.
         25    1    1    2    0    0  0.28061261251E+02  0.13874889761E+02  0.61701984762E+02  0.14287085732E+03  0.12500000000E+03 0.  0.
         25    1    1    2    0    0  0.29736163371E+02 -0.72386185169E+02  0.23868204263E+02  0.14939441218E+03  0.12500000000E+03 0.  0.
</event>
<event>
 5    0  0.5539899E-005  0.2599428E+03  0.7546771E-02  0.1107178E+00
         21   -1    0    0  502  501  0.00000000000E+00  0.00000000000E+00  0.62958893836E+02  0.62958893836E+02  0.00000000000E+00 0. -1.
         21   -1    0    0  501  502 -0.00000000000E+00 -0.00000000000E+00 -0.10732442183E+04  0.10732442183E+04  0.00000000000E+00 0. -1.
         25    1    1    2    0    0  0.21305892258E+02 -0.57854954650E+02 -0.57120476898E+03  0.58796345543E+03  0.12500000000E+03 0.  0.
         25    1    1    2    0    0 -0.45619580338E+02 -0.25289855531E+02 -0.34191853135E+03  0.36776895599E+03  0.12500000000E+03 0.  0.
         25    1    1    2    0    0  0.24313688081E+02  0.83144810181E+02 -0.97162024157E+02  0.18047070074E+03  0.12500000000E+03 0.  0.
</event>
<event>
 5    0  0.5539899E-005  0.2562734E+03  0.7546771E-02  0.1109403E+00
         21   -1    0    0  502  501  0.00000000000E+00  0.00000000000E+00  0.66937264126E+02  0.66937264126E+02  0.00000000000E+00 0. -1.
         21   -1    0    0  501  502 -0.00000000000E+00 -0.00000000000E+00 -0.98115853637E+03  0.98115853637E+03  0.00000000000E+00 0. -1.
         25    1    1    2    0    0  0.27276804675E+02 -0.31381193718E+02 -0.12106527148E+03  0.17891507301E+03  0.12500000000E+03 0.  0.
         25    1    1    2    0    0 -0.67394114614E+02  0.27659823707E+01 -0.67647750344E+03  0.69122820400E+03  0.12500000000E+03 0.  0.
         25    1    1    2    0    0  0.40117309940E+02  0.28615211348E+02 -0.11667849733E+03  0.17795252349E+03  0.12500000000E+03 0.  0.
</event>
<event>
 5    0  0.5539899E-005  0.2712768E+03  0.7546771E-02  0.1100551E+00
         21   -1    0    0  502  501  0.00000000000E+00  0.00000000000E+00  0.10093038197E+04  0.10093038197E+04  0.00000000000E+00 0.  1.
         21   -1    0    0  501  502 -0.00000000000E+00 -0.00000000000E+00 -0.72912752374E+02  0.72912752374E+02  0.00000000000E+00 0.  1.
         25    1    1    2    0    0 -0.95421375271E+02 -0.77316382791E+01  0.30502962924E+03  0.34326825051E+03  0.12500000000E+03 0.  0.
         25    1    1    2    0    0 -0.22262644164E+02 -0.16253187703E+02  0.51377745371E+03  0.52948282633E+03  0.12500000000E+03 0.  0.
         25    1    1    2    0    0  0.11768401944E+03  0.23984825982E+02  0.11758398433E+03  0.20946549520E+03  0.12500000000E+03 0.  0.
</event>
<event>
 5    0  0.5539899E-005  0.4340323E+03  0.7546771E-02  0.1032594E+00
         21   -1    0    0  502  501  0.00000000000E+00  0.00000000000E+00  0.45205408816E+03  0.45205408816E+03  0.00000000000E+00 0. -1.
         21   -1    0    0  501  502 -0.00000000000E+00 -0.00000000000E+00 -0.41672898912E+03  0.41672898912E+03  0.00000000000E+00 0. -1.
         25    1    1    2    0    0 -0.30547512049E+02  0.34553261465E+03  0.65538895931E+02  0.37449470645E+03  0.12500000000E+03 0.  0.
         25    1    1    2    0    0 -0.12716723822E+02 -0.37640628786E+01  0.72176411468E+01  0.12590860804E+03  0.12500000000E+03 0.  0.
         25    1    1    2    0    0  0.43264235872E+02 -0.34176855177E+03 -0.37431438039E+02  0.36837976280E+03  0.12500000000E+03 0.  0.
</event>
<event>
 5    0  0.5539899E-005  0.2859166E+03  0.7546771E-02  0.1092501E+00
         21   -1    0    0  502  501  0.00000000000E+00  0.00000000000E+00  0.18407381599E+04  0.18407381599E+04  0.00000000000E+00 0.  1.
         21   -1    0    0  501  502 -0.00000000000E+00 -0.00000000000E+00 -0.44410601823E+02  0.44410601823E+02  0.00000000000E+00 0.  1.
         25    1    1    2    0    0 -0.85662776079E+02 -0.11263467008E+03  0.11545044273E+04  0.11698419350E+04  0.12500000000E+03 0.  0.
         25    1    1    2    0    0  0.15615126669E+02  0.87979484424E+02  0.44374686854E+03  0.46959610859E+03  0.12500000000E+03 0.  0.
         25    1    1    2    0    0  0.70047649410E+02  0.24655185660E+02  0.19807626221E+03  0.24571071816E+03  0.12500000000E+03 0.  0.
</event>
<event>
 5    0  0.5539899E-005  0.2352654E+03  0.7546771E-02  0.1122988E+00
         21   -1    0    0  502  501  0.00000000000E+00  0.00000000000E+00  0.16978838052E+03  0.16978838052E+03  0.00000000000E+00 0. -1.
         21   -1    0    0  501  502 -0.00000000000E+00 -0.00000000000E+00 -0.32599303395E+03  0.32599303395E+03  0.00000000000E+00 0. -1.
         25    1    1    2    0    0  0.76876746593E+02  0.54677411642E+02 -0.13104090179E+03  0.20419689384E+03  0.12500000000E+03 0.  0.
         25    1    1    2    0    0 -0.83750384205E+02 -0.62401103096E+02  0.34871338709E+01  0.16292693032E+03  0.12500000000E+03 0.  0.
         25    1    1    2    0    0  0.68736376121E+01  0.77236914546E+01 -0.28650885513E+02  0.12865759031E+03  0.12500000000E+03 0.  0.
</event>
<event>
 5    0  0.5539899E-005  0.2657360E+03  0.7546771E-02  0.1103745E+00
         21   -1    0    0  502  501  0.00000000000E+00  0.00000000000E+00  0.75271822773E+02  0.75271822773E+02  0.00000000000E+00 0.  1.
         21   -1    0    0  501  502 -0.00000000000E+00 -0.00000000000E+00 -0.93814147250E+03  0.93814147250E+03  0.00000000000E+00 0.  1.
         25    1    1    2    0    0 -0.11113269007E+03  0.62093182969E+02 -0.60648809895E+03  0.63218577360E+03  0.12500000000E+03 0.  0.
         25    1    1    2    0    0  0.53761850372E+02 -0.25633250992E+02 -0.14534427503E+03  0.20074201950E+03  0.12500000000E+03 0.  0.
         25    1    1    2    0    0  0.57370839694E+02 -0.36459931977E+02 -0.11103727575E+03  0.18048550217E+03  0.12500000000E+03 0.  0.
</event>
<event>
 5    0  0.5539899E-005  0.2865910E+03  0.7546771E-02  0.1092143E+00
         21   -1    0    0  502  501  0.00000000000E+00  0.00000000000E+00  0.17485294424E+04  0.17485294424E+04  0.00000000000E+00 0.  1.
         21   -1    0    0  501  502 -0.00000000000E+00 -0.00000000000E+00 -0.46973419682E+02  0.46973419682E+02  0.00000000000E+00 0.  1.
         25    1    1    2    0    0 -0.16509826434E+02  0.13504171169E+02  0.77507381764E+03  0.78537848188E+03  0.12500000000E+03 0.  0.
         25    1    1    2    0    0  0.12451235174E+03 -0.11013400402E+03  0.54474931507E+03  0.58310345638E+03  0.12500000000E+03 0.  0.
         25    1    1    2    0    0 -0.10800252531E+03  0.96629832851E+02  0.38173289005E+03  0.42702092386E+03  0.12500000000E+03 0.  0.
</event>
<event>
 5    0  0.5539899E-005  0.2614780E+03  0.7546771E-02  0.1106258E+00
         21   -1    0    0  502  501  0.00000000000E+00  0.00000000000E+00  0.24418128994E+03  0.24418128994E+03  0.00000000000E+00 0.  1.
         21   -1    0    0  501  502 -0.00000000000E+00 -0.00000000000E+00 -0.27999987845E+03  0.27999987845E+03  0.00000000000E+00 0.  1.
         25    1    1    2    0    0 -0.35520851703E+02 -0.14933397832E+03 -0.66401748888E+02  0.20879789329E+03  0.12500000000E+03 0.  0.
         25    1    1    2    0    0  0.84844797699E+01  0.11703963994E+03 -0.23047208083E+02  0.17299259382E+03  0.12500000000E+03 0.  0.
         25    1    1    2    0    0  0.27036371933E+02  0.32294338374E+02  0.53630368460E+02  0.14239068129E+03  0.12500000000E+03 0.  0.
</event>
<event>
 5    0  0.5539899E-005  0.2472525E+03  0.7546771E-02  0.1115054E+00
         21   -1    0    0  502  501  0.00000000000E+00  0.00000000000E+00  0.43902176917E+03  0.43902176917E+03  0.00000000000E+00 0.  1.
         21   -1    0    0  501  502 -0.00000000000E+00 -0.00000000000E+00 -0.13925009405E+03  0.13925009405E+03  0.00000000000E+00 0.  1.
         25    1    1    2    0    0 -0.15025276992E+03  0.61569424786E+01  0.15065199736E+03  0.24684980680E+03  0.12500000000E+03 0.  0.
         25    1    1    2    0    0  0.96967089407E+02 -0.25349405593E+01  0.98467461195E+02  0.18635955373E+03  0.12500000000E+03 0.  0.
         25    1    1    2    0    0  0.53285680512E+02 -0.36220019193E+01  0.50652216556E+02  0.14506250269E+03  0.12500000000E+03 0.  0.
</event>
<event>
 5    0  0.5539899E-005  0.2308285E+03  0.7546771E-02  0.1126058E+00
         21   -1    0    0  502  501  0.00000000000E+00  0.00000000000E+00  0.12315084654E+03  0.12315084654E+03  0.00000000000E+00 0. -1.
         21   -1    0    0  501  502 -0.00000000000E+00 -0.00000000000E+00 -0.43265475227E+03  0.43265475227E+03  0.00000000000E+00 0. -1.
         25    1    1    2    0    0  0.28028550808E+02 -0.31195275974E+02 -0.11590843041E+03  0.17555201265E+03  0.12500000000E+03 0.  0.
         25    1    1    2    0    0 -0.19817904723E+02  0.10118421261E+03 -0.16996128840E+03  0.23482511319E+03  0.12500000000E+03 0.  0.
         25    1    1    2    0    0 -0.82106460850E+01 -0.69988936636E+02 -0.23634186913E+02  0.14542847297E+03  0.12500000000E+03 0.  0.
</event>
<event>
 5    0  0.5539899E-005  0.3292749E+03  0.7546771E-02  0.1071458E+00
         21   -1    0    0  502  501  0.00000000000E+00  0.00000000000E+00  0.66655613557E+03  0.66655613557E+03  0.00000000000E+00 0. -1.
         21   -1    0    0  501  502 -0.00000000000E+00 -0.00000000000E+00 -0.16265991094E+03  0.16265991094E+03  0.00000000000E+00 0. -1.
         25    1    1    2    0    0 -0.60435770845E+02  0.95773355896E+01 -0.47729927410E+02  0.14713039701E+03  0.12500000000E+03 0.  0.
         25    1    1    2    0    0  0.16099510452E+03  0.63826610223E+02  0.38024619074E+03  0.43612546982E+03  0.12500000000E+03 0.  0.
         25    1    1    2    0    0 -0.10055933367E+03 -0.73403945813E+02  0.17137996130E+03  0.24596017968E+03  0.12500000000E+03 0.  0.
</event>
<event>
 5    0  0.5539899E-005  0.3752404E+03  0.7546771E-02  0.1052707E+00
         21   -1    0    0  502  501  0.00000000000E+00  0.00000000000E+00  0.18338862222E+03  0.18338862222E+03  0.00000000000E+00 0. -1.
         21   -1    0    0  501  502 -0.00000000000E+00 -0.00000000000E+00 -0.76779751984E+03  0.76779751984E+03  0.00000000000E+00 0. -1.
         25    1    1    2    0    0 -0.27246898514E+02  0.12387378014E+03 -0.10082867536E+03  0.20464244100E+03  0.12500000000E+03 0.  0.
         25    1    1    2    0    0 -0.13608560598E+03  0.14129996695E+03 -0.18195946901E+03  0.29532900497E+03  0.12500000000E+03 0.  0.
         25    1    1    2    0    0  0.16333250449E+03 -0.26517374709E+03 -0.30162075326E+03  0.45121469609E+03  0.12500000000E+03 0.  0.
</event>
<event>
 5    0  0.5539899E-005  0.2716074E+03  0.7546771E-02  0.1100363E+00
         21   -1    0    0  502  501  0.00000000000E+00  0.00000000000E+00  0.24324895158E+04  0.24324895158E+04  0.00000000000E+00 0.  1.
         21   -1    0    0  501  502 -0.00000000000E+00 -0.00000000000E+00 -0.30327195497E+02  0.30327195497E+02  0.00000000000E+00 0.  1.
         25    1    1    2    0    0  0.35844795633E+02  0.17763779540E+01  0.24366696387E+03  0.27620027910E+03  0.12500000000E+03 0.  0.
         25    1    1    2    0    0 -0.54489363506E+02  0.67210590776E+02  0.16816251915E+04  0.16884829401E+04  0.12500000000E+03 0.  0.
         25    1    1    2    0    0  0.18644567874E+02 -0.68986968730E+02  0.47687016489E+03  0.49813349208E+03  0.12500000000E+03 0.  0.
</event>
<event>
 5    0  0.5539899E-005  0.4196850E+03  0.7546771E-02  0.1037169E+00
         21   -1    0    0  502  501  0.00000000000E+00  0.00000000000E+00  0.73719094697E+03  0.73719094697E+03  0.00000000000E+00 0.  1.
         21   -1    0    0  501  502 -0.00000000000E+00 -0.00000000000E+00 -0.23892795921E+03  0.23892795921E+03  0.00000000000E+00 0.  1.
         25    1    1    2    0    0  0.50851887474E+02 -0.29890702809E+03  0.22966960572E+03  0.40038038625E+03  0.12500000000E+03 0.  0.
         25    1    1    2    0    0 -0.17090660166E+03  0.75792168400E+02  0.14337271767E+03  0.26671005878E+03  0.12500000000E+03 0.  0.
         25    1    1    2    0    0  0.12005471418E+03  0.22311485969E+03  0.12522066438E+03  0.30902846115E+03  0.12500000000E+03 0.  0.
</event>
<event>
 5    0  0.5539899E-005  0.2451775E+03  0.7546771E-02  0.1116391E+00
         21   -1    0    0  502  501  0.00000000000E+00  0.00000000000E+00  0.22874840050E+03  0.22874840050E+03  0.00000000000E+00 0. -1.
         21   -1    0    0  501  502 -0.00000000000E+00 -0.00000000000E+00 -0.26278663661E+03  0.26278663661E+03  0.00000000000E+00 0. -1.
         25    1    1    2    0    0 -0.39223964867E+02 -0.63998791015E+02  0.27828126050E+02  0.14843776228E+03  0.12500000000E+03 0.  0.
         25    1    1    2    0    0  0.40980257578E+02  0.46328080437E+02 -0.13755920436E+03  0.19589080441E+03  0.12500000000E+03 0.  0.
         25    1    1    2    0    0 -0.17562927108E+01  0.17670710578E+02  0.75692842188E+02  0.14720647042E+03  0.12500000000E+03 0.  0.
</event>
<event>
 5    0  0.5539899E-005  0.2979046E+03  0.7546771E-02  0.1086293E+00
         21   -1    0    0  502  501  0.00000000000E+00  0.00000000000E+00  0.80375761391E+02  0.80375761391E+02  0.00000000000E+00 0. -1.
         21   -1    0    0  501  502 -0.00000000000E+00 -0.00000000000E+00 -0.11041528881E+04  0.11041528881E+04  0.00000000000E+00 0. -1.
         25    1    1    2    0    0 -0.36101835071E+02  0.11520343359E+02 -0.66756897745E+03  0.68022746229E+03  0.12500000000E+03 0.  0.
         25    1    1    2    0    0 -0.59047857836E+02 -0.10270270370E+03 -0.14017801799E+03  0.22205713587E+03  0.12500000000E+03 0.  0.
         25    1    1    2    0    0  0.95149692907E+02  0.91182360343E+02 -0.21603013130E+03  0.28224405136E+03  0.12500000000E+03 0.  0.
</event>
<event>
 5    0  0.5539899E-005  0.2351368E+03  0.7546771E-02  0.1123076E+00
         21   -1    0    0  502  501  0.00000000000E+00  0.00000000000E+00  0.12736294559E+03  0.12736294559E+03  0.00000000000E+00 0. -1.
         21   -1    0    0  501  502 -0.00000000000E+00 -0.00000000000E+00 -0.43410841681E+03  0.43410841681E+03  0.00000000000E+00 0. -1.
         25    1    1    2    0    0  0.48733990267E+01 -0.21819313526E+02 -0.12332334273E+03  0.17701265300E+03  0.12500000000E+03 0.  0.
         25    1    1    2    0    0 -0.25360141279E+01 -0.96447986179E+02 -0.46708386047E+02  0.16466729710E+03  0.12500000000E+03 0.  0.
         25    1    1    2    0    0 -0.23373848989E+01  0.11826729970E+03 -0.13671374244E+03  0.21979141230E+03  0.12500000000E+03 0.  0.
</event>
<event>
 5    0  0.5539899E-005  0.2467135E+03  0.7546771E-02  0.1115400E+00
         21   -1    0    0  502  501  0.00000000000E+00  0.00000000000E+00  0.32866257980E+03  0.32866257980E+03  0.00000000000E+00 0.  1.
         21   -1    0    0  501  502 -0.00000000000E+00 -0.00000000000E+00 -0.18519766282E+03  0.18519766282E+03  0.00000000000E+00 0.  1.
         25    1    1    2    0    0  0.23794251056E+02  0.10222964696E+03  0.15571310854E+03  0.22558510428E+03  0.12500000000E+03 0.  0.
         25    1    1    2    0    0  0.78912496309E+00 -0.85166520611E+02  0.27499791984E+02  0.15373743041E+03  0.12500000000E+03 0.  0.
         25    1    1    2    0    0 -0.24583376019E+02 -0.17063126347E+02 -0.39747983549E+02  0.13453770792E+03  0.12500000000E+03 0.  0.
</event>
<event>
 5    0  0.5539899E-005  0.2516110E+03  0.7546771E-02  0.1112291E+00
         21   -1    0    0  502  501  0.00000000000E+00  0.00000000000E+00  0.42274842696E+03  0.42274842696E+03  0.00000000000E+00 0. -1.
         21   -1    0    0  501  502 -0.00000000000E+00 -0.00000000000E+00 -0.14975363952E+03  0.14975363952E+03  0.00000000000E+00 0. -1.
         25    1    1    2    0    0 -0.65328398677E+02 -0.74400734373E+02  0.10194089700E+02  0.15978794827E+03  0.12500000000E+03 0.  0.
         25    1    1    2    0    0  0.52354606845E+02 -0.42986547635E+02  0.15206493267E+03  0.20817682840E+03  0.12500000000E+03 0.  0.
         25    1    1    2    0    0  0.12973791833E+02  0.11738728201E+03  0.11073576507E+03  0.20453728979E+03  0.12500000000E+03 0.  0.
</event>
<event>
 5    0  0.5539899E-005  0.3262365E+03  0.7546771E-02  0.1072814E+00
         21   -1    0    0  502  501  0.00000000000E+00  0.00000000000E+00  0.26846251225E+03  0.26846251225E+03  0.00000000000E+00 0.  1.
         21   -1    0    0  501  502 -0.00000000000E+00 -0.00000000000E+00 -0.39644375455E+03  0.39644375455E+03  0.00000000000E+00 0.  1.
         25    1    1    2    0    0  0.24625278609E+03  0.33890500811E+02 -0.71017700779E+02  0.28715416509E+03  0.12500000000E+03 0.  0.
         25    1    1    2    0    0 -0.10076167261E+03 -0.52678185254E+02  0.20134501267E+02  0.17017139598E+03  0.12500000000E+03 0.  0.
         25    1    1    2    0    0 -0.14549111348E+03  0.18787684444E+02 -0.77098042793E+02  0.20758070573E+03  0.12500000000E+03 0.  0.
</event>
<event>
 5    0  0.5539899E-005  0.2835614E+03  0.7546771E-02  0.1093760E+00
         21   -1    0    0  502  501  0.00000000000E+00  0.00000000000E+00  0.37991355554E+03  0.37991355554E+03  0.00000000000E+00 0. -1.
         21   -1    0    0  501  502 -0.00000000000E+00 -0.00000000000E+00 -0.21164567198E+03  0.21164567198E+03  0.00000000000E+00 0. -1.
         25    1    1    2    0    0  0.21326198646E+02  0.69792079652E+02  0.56593043391E+02  0.15541400738E+03  0.12500000000E+03 0.  0.
         25    1    1    2    0    0 -0.32850968924E+02  0.13145194418E+03  0.44808384461E+02  0.18971449893E+03  0.12500000000E+03 0.  0.
         25    1    1    2    0    0  0.11524770277E+02 -0.20124402383E+03  0.66866455711E+02  0.24643072121E+03  0.12500000000E+03 0.  0.
</event>
<event>
 5    0  0.5539899E-005  0.2658372E+03  0.7546771E-02  0.1103686E+00
         21   -1    0    0  502  501  0.00000000000E+00  0.00000000000E+00  0.36301409168E+03  0.36301409168E+03  0.00000000000E+00 0.  1.
         21   -1    0    0  501  502 -0.00000000000E+00 -0.00000000000E+00 -0.19467403203E+03  0.19467403203E+03  0.00000000000E+00 0.  1.
         25    1    1    2    0    0 -0.49342795047E+02  0.89406835434E+02  0.16773596766E+03  0.23278455381E+03  0.12500000000E+03 0.  0.
         25    1    1    2    0    0 -0.64339231843E+02 -0.61888255989E+02  0.44635721459E+01  0.15367048012E+03  0.12500000000E+03 0.  0.
         25    1    1    2    0    0  0.11368202689E+03 -0.27518579445E+02 -0.38594801513E+01  0.17123308979E+03  0.12500000000E+03 0.  0.
</event>
<event>
 5    0  0.6386706E-005  0.2719581E+03  0.7546771E-02  0.1100164E+00
         21   -1    0    0  502  501  0.00000000000E+00  0.00000000000E+00  0.21688688999E+03  0.21688688999E+03  0.00000000000E+00 0.  1.
         21   -1    0    0  501  502 -0.00000000000E+00 -0.00000000000E+00 -0.34101288094E+03  0.34101288094E+03  0.00000000000E+00 0.  1.
         25    1    1    2    0    0 -0.94876882204E+02 -0.29499714481E+02 -0.90624292655E+02  0.18360179288E+03  0.12500000000E+03 0.  0.
         25    1    1    2    0    0  0.18003205854E+03  0.10661482964E+02 -0.66473468834E+01  0.21953222210E+03  0.12500000000E+03 0.  0.
         25    1    1    2    0    0 -0.85155176334E+02  0.18838231517E+02 -0.26854351419E+02  0.15476575595E+03  0.12500000000E+03 0.  0.
</event>
<event>
 5    0  0.5539899E-005  0.3095283E+03  0.7546771E-02  0.1080572E+00
         21   -1    0    0  502  501  0.00000000000E+00  0.00000000000E+00  0.57149029175E+02  0.57149029175E+02  0.00000000000E+00 0. -1.
         21   -1    0    0  501  502 -0.00000000000E+00 -0.00000000000E+00 -0.16764551184E+04  0.16764551184E+04  0.00000000000E+00 0. -1.
         25    1    1    2    0    0 -0.63072863984E+02  0.71048275939E+01 -0.58962356250E+03  0.60606073145E+03  0.12500000000E+03 0.  0.
         25    1    1    2    0    0  0.66049135632E+01  0.16803285210E+03 -0.30926575542E+03  0.37356254060E+03  0.12500000000E+03 0.  0.
         25    1    1    2    0    0  0.56467950420E+02 -0.17513767969E+03 -0.72041677126E+03  0.75398087548E+03  0.12500000000E+03 0.  0.
</event>
<event>
 5    0  0.5539899E-005  0.3310562E+03  0.7546771E-02  0.1070670E+00
         21   -1    0    0  502  501  0.00000000000E+00  0.00000000000E+00  0.25372892677E+03  0.25372892677E+03  0.00000000000E+00 0.  1.
         21   -1    0    0  501  502 -0.00000000000E+00 -0.00000000000E+00 -0.43195011931E+03  0.43195011931E+03  0.00000000000E+00 0.  1.
         25    1    1    2    0    0  0.13568101743E+02  0.50732302629E+01 -0.51214175309E+02  0.13585920213E+03  0.12500000000E+03 0.  0.
         25    1    1    2    0    0 -0.10018509914E+03  0.21326107074E+03 -0.88183279704E+02  0.28092459701E+03  0.12500000000E+03 0.  0.
         25    1    1    2    0    0  0.86616997397E+02 -0.21833430101E+03 -0.38823737520E+02  0.26889524694E+03  0.12500000000E+03 0.  0.
</event>
<event>
 5    0  0.5539899E-005  0.4158476E+03  0.7546771E-02  0.1038426E+00
         21   -1    0    0  502  501  0.00000000000E+00  0.00000000000E+00  0.40615004417E+03  0.40615004417E+03  0.00000000000E+00 0.  1.
         21   -1    0    0  501  502 -0.00000000000E+00 -0.00000000000E+00 -0.42577667945E+03  0.42577667945E+03  0.00000000000E+00 0.  1.
         25    1    1    2    0    0  0.14032915734E+03  0.12699964352E+03 -0.21287767592E+03  0.31106765624E+03  0.12500000000E+03 0.  0.
         25    1    1    2    0    0 -0.24386498638E+03 -0.57654597770E+02  0.20017084398E+03  0.34422020715E+03  0.12500000000E+03 0.  0.
         25    1    1    2    0    0  0.10353582904E+03 -0.69345045752E+02 -0.69198033394E+01  0.17663886023E+03  0.12500000000E+03 0.  0.
</event>
<event>
 5    0  0.5539899E-005  0.4443126E+03  0.7546771E-02  0.1029432E+00
         21   -1    0    0  502  501  0.00000000000E+00  0.00000000000E+00  0.85621864108E+02  0.85621864108E+02  0.00000000000E+00 0.  1.
         21   -1    0    0  501  502 -0.00000000000E+00 -0.00000000000E+00 -0.23056454931E+04  0.23056454931E+04  0.00000000000E+00 0.  1.
         25    1    1    2    0    0 -0.24221051014E+03 -0.63810598532E+02 -0.16131650986E+04  0.16372734527E+04  0.12500000000E+03 0.  0.
         25    1    1    2    0    0  0.53609016605E+01 -0.31418136089E+02 -0.70579037289E+02  0.14704502388E+03  0.12500000000E+03 0.  0.
         25    1    1    2    0    0  0.23684960847E+03  0.95228734622E+02 -0.53627949313E+03  0.60694888062E+03  0.12500000000E+03 0.  0.
</event>
<event>
 5    0  0.5762864E-005  0.2844503E+03  0.7546771E-02  0.1093283E+00
         21   -1    0    0  502  501  0.00000000000E+00  0.00000000000E+00  0.30839441393E+03  0.30839441393E+03  0.00000000000E+00 0.  1.
         21   -1    0    0  501  502 -0.00000000000E+00 -0.00000000000E+00 -0.26236525074E+03  0.26236525074E+03  0.00000000000E+00 0.  1.
         25    1    1    2    0    0 -0.53112687280E+02 -0.85074607382E+02 -0.15603362519E+03  0.22367417947E+03  0.12500000000E+03 0.  0.
         25    1    1    2    0    0 -0.11272274064E+00  0.24504346601E+02  0.12925421419E+03  0.18147211245E+03  0.12500000000E+03 0.  0.
         25    1    1    2    0    0  0.53225410020E+02  0.60570260781E+02  0.72808574176E+02  0.16561337276E+03  0.12500000000E+03 0.  0.
</event>
<event>
 5    0  0.5539899E-005  0.2782415E+03  0.7546771E-02  0.1096653E+00
         21   -1    0    0  502  501  0.00000000000E+00  0.00000000000E+00  0.22376342162E+03  0.22376342162E+03  0.00000000000E+00 0.  1.
         21   -1    0    0  501  502 -0.00000000000E+00 -0.00000000000E+00 -0.34598285182E+03  0.34598285182E+03  0.00000000000E+00 0.  1.
         25    1    1    2    0    0  0.84076078454E+02  0.44963227841E+01 -0.20668198053E+03  0.25579570943E+03  0.12500000000E+03 0.  0.
         25    1    1    2    0    0 -0.10699048660E+03  0.10254140334E+02  0.86140439365E+02  0.18600345941E+03  0.12500000000E+03 0.  0.
         25    1    1    2    0    0  0.22914408148E+02 -0.14750463118E+02 -0.16778890306E+01  0.12794710460E+03  0.12500000000E+03 0.  0.
</event>
<event>
 5    0  0.5539899E-005  0.3848012E+03  0.7546771E-02  0.1049173E+00
         21   -1    0    0  502  501  0.00000000000E+00  0.00000000000E+00  0.19083446347E+03  0.19083446347E+03  0.00000000000E+00 0.  1.
         21   -1    0    0  501  502 -0.00000000000E+00 -0.00000000000E+00 -0.77591854555E+03  0.77591854555E+03  0.00000000000E+00 0.  1.
         25    1    1    2    0    0  0.18097080690E+03 -0.35979577378E+02 -0.31020291139E+03  0.38196309923E+03  0.12500000000E+03 0.  0.
         25    1    1    2    0    0 -0.19881680541E+03  0.93096826244E+02  0.25569934339E+02  0.25391723595E+03  0.12500000000E+03 0.  0.
         25    1    1    2    0    0  0.17845998503E+02 -0.57117248865E+02 -0.30045110502E+03  0.33087267384E+03  0.12500000000E+03 0.  0.
</event>
<event>
 5    0  0.5539899E-005  0.4869235E+03  0.7546771E-02  0.1017250E+00
         21   -1    0    0  502  501  0.00000000000E+00  0.00000000000E+00  0.25465260008E+03  0.25465260008E+03  0.00000000000E+00 0. -1.
         21   -1    0    0  501  502 -0.00000000000E+00 -0.00000000000E+00 -0.93105080378E+03  0.93105080378E+03  0.00000000000E+00 0. -1.
         25    1    1    2    0    0 -0.13548580228E+03  0.19313490009E+03 -0.32858896178E+03  0.42338303940E+03  0.12500000000E+03 0.  0.
         25    1    1    2    0    0 -0.22015168739E+03  0.17811072964E+01 -0.14803519114E+03  0.29327351674E+03  0.12500000000E+03 0.  0.
         25    1    1    2    0    0  0.35563748967E+03 -0.19491600739E+03 -0.19977405078E+03  0.46904684772E+03  0.12500000000E+03 0.  0.
</event>
<event>
 5    0  0.5539899E-005  0.2575607E+03  0.7546771E-02  0.1108618E+00
         21   -1    0    0  502  501  0.00000000000E+00  0.00000000000E+00  0.21090087025E+03  0.21090087025E+03  0.00000000000E+00 0. -1.
         21   -1    0    0  501  502 -0.00000000000E+00 -0.00000000000E+00 -0.31454349439E+03  0.31454349439E+03  0.00000000000E+00 0. -1.
         25    1    1    2    0    0 -0.32683016004E+02 -0.90693161313E+02 -0.40828834891E+02  0.16305036891E+03  0.12500000000E+03 0.  0.
         25    1    1    2    0    0  0.10498162011E+03  0.12636962316E+02  0.40213773861E+02  0.16859116521E+03  0.12500000000E+03 0.  0.
         25    1    1    2    0    0 -0.72298604107E+02  0.78056198998E+02 -0.10302756311E+03  0.19380283052E+03  0.12500000000E+03 0.  0.
</event>
<event>
 5    0  0.5539899E-005  0.4430107E+03  0.7546771E-02  0.1029827E+00
         21   -1    0    0  502  501  0.00000000000E+00  0.00000000000E+00  0.71247329527E+03  0.71247329527E+03  0.00000000000E+00 0. -1.
         21   -1    0    0  501  502 -0.00000000000E+00 -0.00000000000E+00 -0.27546080115E+03  0.27546080115E+03  0.00000000000E+00 0. -1.
         25    1    1    2    0    0 -0.18174914270E+03  0.68794321940E+02  0.42606342461E+03  0.48468593068E+03  0.12500000000E+03 0.  0.
         25    1    1    2    0    0  0.28976402598E+03 -0.10677919772E+03  0.17461700365E+02  0.33360890095E+03  0.12500000000E+03 0.  0.
         25    1    1    2    0    0 -0.10801488327E+03  0.37984875782E+02 -0.65126308530E+01  0.16963926479E+03  0.12500000000E+03 0.  0.
</event>
<event>
 5    0  0.5539899E-005  0.4417403E+03  0.7546771E-02  0.1030214E+00
         21   -1    0    0  502  501  0.00000000000E+00  0.00000000000E+00  0.17165933544E+04  0.17165933544E+04  0.00000000000E+00 0.  1.
         21   -1    0    0  501  502 -0.00000000000E+00 -0.00000000000E+00 -0.11367542487E+03  0.11367542487E+03  0.00000000000E+00 0.  1.
         25    1    1    2    0    0  0.14039838005E+03 -0.21919104337E+02  0.19813342176E+03  0.27399635960E+03  0.12500000000E+03 0.  0.
         25    1    1    2    0    0 -0.10908599673E+02 -0.17792847373E+02 -0.12232510021E+02  0.12731935150E+03  0.12500000000E+03 0.  0.
         25    1    1    2    0    0 -0.12948978038E+03  0.39711951710E+02  0.14170170177E+04  0.14289530681E+04  0.12500000000E+03 0.  0.
</event>
<event>
 5    0  0.5539899E-005  0.4192477E+03  0.7546771E-02  0.1037311E+00
         21   -1    0    0  502  501  0.00000000000E+00  0.00000000000E+00  0.30867134691E+03  0.30867134691E+03  0.00000000000E+00 0. -1.
         21   -1    0    0  501  502 -0.00000000000E+00 -0.00000000000E+00 -0.56943629827E+03  0.56943629827E+03  0.00000000000E+00 0. -1.
         25    1    1    2    0    0 -0.36075722030E+02  0.17348094641E+03 -0.13168539509E+02  0.21724526904E+03  0.12500000000E+03 0.  0.
         25    1    1    2    0    0  0.12749865501E+03 -0.32329772375E+03 -0.24893072543E+03  0.44538615972E+03  0.12500000000E+03 0.  0.
         25    1    1    2    0    0 -0.91422932982E+02  0.14981677734E+03  0.13343135737E+01  0.21547621641E+03  0.12500000000E+03 0.  0.
</event>
<event>
 5    0  0.5539899E-005  0.4659447E+03  0.7546771E-02  0.1023071E+00
         21   -1    0    0  502  501  0.00000000000E+00  0.00000000000E+00  0.56663326364E+03  0.56663326364E+03  0.00000000000E+00 0.  1.
         21   -1    0    0  501  502 -0.00000000000E+00 -0.00000000000E+00 -0.38314811107E+03  0.38314811107E+03  0.00000000000E+00 0.  1.
         25    1    1    2    0    0 -0.34232537028E+03 -0.13761082720E+03 -0.97415671834E+02  0.40154478209E+03  0.12500000000E+03 0.  0.
         25    1    1    2    0    0  0.20667390227E+03  0.44809961252E+01  0.16819572561E+03  0.29436199367E+03  0.12500000000E+03 0.  0.
         25    1    1    2    0    0  0.13565146801E+03  0.13312983108E+03  0.11270509879E+03  0.25387459895E+03  0.12500000000E+03 0.  0.
</event>
<event>
 5    0  0.5539899E-005  0.3464043E+03  0.7546771E-02  0.1064101E+00
         21   -1    0    0  502  501  0.00000000000E+00  0.00000000000E+00  0.13875880532E+03  0.13875880532E+03  0.00000000000E+00 0.  1.
         21   -1    0    0  501  502 -0.00000000000E+00 -0.00000000000E+00 -0.86478073706E+03  0.86478073706E+03  0.00000000000E+00 0.  1.
         25    1    1    2    0    0 -0.28114354128E+02  0.19882290731E+03 -0.18709823543E+03  0.30158202048E+03  0.12500000000E+03 0.  0.
         25    1    1    2    0    0  0.11755514416E+01  0.27070603918E+02 -0.31086326329E+02  0.13162659003E+03  0.12500000000E+03 0.  0.
         25    1    1    2    0    0  0.26938802687E+02 -0.22589351123E+03 -0.50783736998E+03  0.57033093187E+03  0.12500000000E+03 0.  0.
</event>
<event>
 5    0  0.5539899E-005  0.2707581E+03  0.7546771E-02  0.1100846E+00
         21   -1    0    0  502  501  0.00000000000E+00  0.00000000000E+00  0.94706904794E+03  0.94706904794E+03  0.00000000000E+00 0.  1.
         21   -1    0    0  501  502 -0.00000000000E+00 -0.00000000000E+00 -0.77407196493E+02  0.77407196493E+02  0.00000000000E+00 0.  1.
         25    1    1    2    0    0  0.32690878246E+02  0.78308299260E+01  0.36803087782E+03  0.39013041722E+03  0.12500000000E+03 0.  0.
         25    1    1    2    0    0 -0.81448703459E+02 -0.12002888363E+03  0.15601711266E+03  0.24699628265E+03  0.12500000000E+03 0.  0.
         25    1    1    2    0    0  0.48757825213E+02  0.11219805370E+03  0.34561386098E+03  0.38734954456E+03  0.12500000000E+03 0.  0.
</event>
<event>
 5    0  0.5539899E-005  0.3322054E+03  0.7546771E-02  0.1070165E+00
         21   -1    0    0  502  501  0.00000000000E+00  0.00000000000E+00  0.17333963467E+03  0.17333963467E+03  0.00000000000E+00 0.  1.
         21   -1    0    0  501  502 -0.00000000000E+00 -0.00000000000E+00 -0.63667153846E+03  0.63667153846E+03  0.00000000000E+00 0.  1.
         25    1    1    2    0    0  0.43531047874E+01 -0.17813446800E+03 -0.38238315891E+03  0.43999172541E+03  0.12500000000E+03 0.  0.
         25    1    1    2    0    0 -0.89855412629E+02  0.11279742479E+03 -0.74755966730E+02  0.20496514040E+03  0.12500000000E+03 0.  0.
         25    1    1    2    0    0  0.85502307842E+02  0.65337043210E+02 -0.61927781510E+01  0.16505430731E+03  0.12500000000E+03 0.  0.
</event>
<event>
 5    0  0.5539899E-005  0.2795754E+03  0.7546771E-02  0.1095921E+00
         21   -1    0    0  502  501  0.00000000000E+00  0.00000000000E+00  0.62164135155E+02  0.62164135155E+02  0.00000000000E+00 0. -1.
         21   -1    0    0  501  502 -0.00000000000E+00 -0.00000000000E+00 -0.12573556414E+04  0.12573556414E+04  0.00000000000E+00 0. -1.
         25    1    1    2    0    0 -0.14283258087E+03 -0.85921310768E+02 -0.33117132632E+03  0.39125831005E+03  0.12500000000E+03 0.  0.
         25    1    1    2    0    0  0.34472869131E+02  0.12902849083E+02 -0.18988881441E+03  0.23029898840E+03  0.12500000000E+03 0.  0.
         25    1    1    2    0    0  0.10835971174E+03  0.73018461685E+02 -0.67413136547E+03  0.69796247806E+03  0.12500000000E+03 0.  0.
</event>
<event>
 5    0  0.5539899E-005  0.3417465E+03  0.7546771E-02  0.1066055E+00
         21   -1    0    0  502  501  0.00000000000E+00  0.00000000000E+00  0.25493448685E+03  0.25493448685E+03  0.00000000000E+00 0.  1.
         21   -1    0    0  501  502 -0.00000000000E+00 -0.00000000000E+00 -0.45812024268E+03  0.45812024268E+03  0.00000000000E+00 0.  1.
         25    1    1    2    0    0  0.12333718907E+03  0.69601998719E+02 -0.68608831994E+02  0.20096933164E+03  0.12500000000E+03 0.  0.
         25    1    1    2    0    0  0.39004402073E+02 -0.36076372039E+02 -0.24261210918E+03  0.27804403162E+03  0.12500000000E+03 0.  0.
         25    1    1    2    0    0 -0.16234159114E+03 -0.33525626679E+02  0.10803518534E+03  0.23404136628E+03  0.12500000000E+03 0.  0.
</event>
<event>
 5    0  0.5539899E-005  0.2950333E+03  0.7546771E-02  0.1087750E+00
         21   -1    0    0  502  501  0.00000000000E+00  0.00000000000E+00  0.32432794646E+04  0.32432794646E+04  0.00000000000E+00 0. -1.
         21   -1    0    0  501  502 -0.00000000000E+00 -0.00000000000E+00 -0.26838462684E+02  0.26838462684E+02  0.00000000000E+00 0. -1.
         25    1    1    2    0    0  0.61177953288E+02 -0.94039421841E+02  0.23572559232E+04  0.23632322447E+04  0.12500000000E+03 0.  0.
         25    1    1    2    0    0 -0.27688837081E+02  0.14842256926E+02  0.51245076851E+03  0.52841059266E+03  0.12500000000E+03 0.  0.
         25    1    1    2    0    0 -0.33489116207E+02  0.79197164915E+02  0.34673431022E+03  0.37847508996E+03  0.12500000000E+03 0.  0.
</event>
<event>
 5    0  0.5539899E-005  0.3153356E+03  0.7546771E-02  0.1077816E+00
         21   -1    0    0  502  501  0.00000000000E+00  0.00000000000E+00  0.56641373533E+02  0.56641373533E+02  0.00000000000E+00 0.  1.
         21   -1    0    0  501  502 -0.00000000000E+00 -0.00000000000E+00 -0.17555457393E+04  0.17555457393E+04  0.00000000000E+00 0.  1.
         25    1    1    2    0    0 -0.26715147550E+02 -0.43104689378E+02 -0.81455575051E+03  0.82564991616E+03  0.12500000000E+03 0.  0.
         25    1    1    2    0    0 -0.91760259506E+02  0.16031421618E+03 -0.53744501806E+03  0.58188722324E+03  0.12500000000E+03 0.  0.
         25    1    1    2    0    0  0.11847540706E+03 -0.11720952681E+03 -0.34690359717E+03  0.40464997341E+03  0.12500000000E+03 0.  0.
</event>
<event>
 5    0  0.5539899E-005  0.3615803E+03  0.7546771E-02  0.1057960E+00
         21   -1    0    0  502  501  0.00000000000E+00  0.00000000000E+00  0.86467389248E+03  0.86467389248E+03  0.00000000000E+00 0.  1.
         21   -1    0    0  501  502 -0.00000000000E+00 -0.00000000000E+00 -0.15120185474E+03  0.15120185474E+03  0.00000000000E+00 0.  1.
         25    1    1    2    0    0 -0.68167255846E+02  0.10996411636E+03  0.11342869855E+02  0.18025687880E+03  0.12500000000E+03 0.  0.
         25    1    1    2    0    0 -0.19854580191E+02 -0.21211456629E+03  0.26967677949E+03  0.36570118811E+03  0.12500000000E+03 0.  0.
         25    1    1    2    0    0  0.88021836037E+02  0.10215044993E+03  0.43245238840E+03  0.46991768032E+03  0.12500000000E+03 0.  0.
</event>
<event>
 5    0  0.5539899E-005  0.3099928E+03  0.7546771E-02  0.1080349E+00
         21   -1    0    0  502  501  0.00000000000E+00  0.00000000000E+00  0.17718371266E+03  0.17718371266E+03  0.00000000000E+00 0. -1.
         21   -1    0    0  501  502 -0.00000000000E+00 -0.00000000000E+00 -0.54234980049E+03  0.54234980049E+03  0.00000000000E+00 0. -1.
         25    1    1    2    0    0  0.16081621699E+03  0.31679161941E+02 -0.25074442421E+02  0.20765151724E+03  0.12500000000E+03 0.  0.
         25    1    1    2    0    0 -0.20390827348E+01  0.50494770716E+02 -0.23221613461E+03  0.26852041431E+03  0.12500000000E+03 0.  0.
         25    1    1    2    0    0 -0.15877713426E+03 -0.82173932657E+02 -0.10787551080E+03  0.24336158160E+03  0.12500000000E+03 0.  0.
</event>
<event>
 5    0  0.5539899E-005  0.2813930E+03  0.7546771E-02  0.1094931E+00
         21   -1    0    0  502  501  0.00000000000E+00  0.00000000000E+00  0.21504386965E+04  0.21504386965E+04  0.00000000000E+00 0.  1.
         21   -1    0    0  501  502 -0.00000000000E+00 -0.00000000000E+00 -0.36821329991E+02  0.36821329991E+02  0.00000000000E+00 0.  1.
         25    1    1    2    0    0  0.21321709902E+02 -0.12459998120E+03  0.75899247660E+03  0.77953470107E+03  0.12500000000E+03 0.  0.
         25    1    1    2    0    0 -0.66123239192E+02  0.42477601108E+02  0.23689040516E+03  0.27913920078E+03  0.12500000000E+03 0.  0.
         25    1    1    2    0    0  0.44801529290E+02  0.82122380091E+02  0.11177344848E+04  0.11285861247E+04  0.12500000000E+03 0.  0.
</event>
<event>
 5    0  0.5539899E-005  0.4161918E+03  0.7546771E-02  0.1038313E+00
         21   -1    0    0  502  501  0.00000000000E+00  0.00000000000E+00  0.26060042191E+03  0.26060042191E+03  0.00000000000E+00 0. -1.
         21   -1    0    0  501  502 -0.00000000000E+00 -0.00000000000E+00 -0.66467884092E+03  0.66467884092E+03  0.00000000000E+00 0. -1.
         25    1    1    2    0    0  0.96790687594E+02 -0.35223844002E+03 -0.20979023044E+03  0.43940561742E+03  0.12500000000E+03 0.  0.
         25    1    1    2    0    0 -0.74025702656E+02  0.19319107288E+03 -0.10173809139E+03  0.26225604766E+03  0.12500000000E+03 0.  0.
         25    1    1    2    0    0 -0.22764984938E+02  0.15904736715E+03 -0.92550097177E+02  0.22361759775E+03  0.12500000000E+03 0.  0.
</event>
<event>
 5    0  0.5539899E-005  0.2225699E+03  0.7546771E-02  0.1131981E+00
         21   -1    0    0  502  501  0.00000000000E+00  0.00000000000E+00  0.39911352871E+03  0.39911352871E+03  0.00000000000E+00 0.  1.
         21   -1    0    0  501  502 -0.00000000000E+00 -0.00000000000E+00 -0.12411844364E+03  0.12411844364E+03  0.00000000000E+00 0.  1.
         25    1    1    2    0    0 -0.34517668268E+02  0.15363917789E+02  0.16109288153E+03  0.20737269799E+03  0.12500000000E+03 0.  0.
         25    1    1    2    0    0 -0.19160916811E+02  0.58906040679E+02  0.49669411656E+02  0.14808481629E+03  0.12500000000E+03 0.  0.
         25    1    1    2    0    0  0.53678585079E+02 -0.74269958469E+02  0.64232791886E+02  0.16777445807E+03  0.12500000000E+03 0.  0.
</event>
<event>
 5    0  0.5539899E-005  0.2655680E+03  0.7546771E-02  0.1103843E+00
         21   -1    0    0  502  501  0.00000000000E+00  0.00000000000E+00  0.26938687094E+03  0.26938687094E+03  0.00000000000E+00 0. -1.
         21   -1    0    0  501  502 -0.00000000000E+00 -0.00000000000E+00 -0.26180324173E+03  0.26180324173E+03  0.00000000000E+00 0. -1.
         25    1    1    2    0    0  0.89808743374E+01 -0.12123714039E+03 -0.61704360481E+02  0.18496358673E+03  0.12500000000E+03 0.  0.
         25    1    1    2    0    0 -0.22830887936E+02 -0.41372951980E+02  0.29101667631E+02  0.13676577663E+03  0.12500000000E+03 0.  0.
         25    1    1    2    0    0  0.13850013598E+02  0.16261009237E+03  0.40186322061E+02  0.20946074930E+03  0.12500000000E+03 0.  0.
</event>
<event>
 5    0  0.5539899E-005  0.2494267E+03  0.7546771E-02  0.1113668E+00
         21   -1    0    0  502  501  0.00000000000E+00  0.00000000000E+00  0.70337002641E+03  0.70337002641E+03  0.00000000000E+00 0. -1.
         21   -1    0    0  501  502 -0.00000000000E+00 -0.00000000000E+00 -0.88450827742E+02  0.88450827742E+02  0.00000000000E+00 0. -1.
         25    1    1    2    0    0 -0.73031317373E+02 -0.73304060542E+01  0.24946857208E+03  0.28852534833E+03  0.12500000000E+03 0.  0.
         25    1    1    2    0    0 -0.26905874896E+02  0.98723161248E+02  0.16184437327E+03  0.22866742188E+03  0.12500000000E+03 0.  0.
         25    1    1    2    0    0  0.99937192269E+02 -0.91392755194E+02  0.20360625332E+03  0.27462808394E+03  0.12500000000E+03 0.  0.
</event>
<event>
 5    0  0.5539899E-005  0.3560123E+03  0.7546771E-02  0.1060174E+00
         21   -1    0    0  502  501  0.00000000000E+00  0.00000000000E+00  0.18111566774E+03  0.18111566774E+03  0.00000000000E+00 0. -1.
         21   -1    0    0  501  502 -0.00000000000E+00 -0.00000000000E+00 -0.69980022571E+03  0.69980022571E+03  0.00000000000E+00 0. -1.
         25    1    1    2    0    0 -0.27389699046E+02 -0.99483987602E+02 -0.18514398298E+03  0.24607022135E+03  0.12500000000E+03 0.  0.
         25    1    1    2    0    0  0.67039469334E+02 -0.10668238973E+03  0.46098974041E+02  0.18337267554E+03  0.12500000000E+03 0.  0.
         25    1    1    2    0    0 -0.39649770288E+02  0.20616637733E+03 -0.37963954903E+03  0.45147299655E+03  0.12500000000E+03 0.  0.
</event>
<event>
 5    0  0.5539899E-005  0.2929349E+03  0.7546771E-02  0.1088827E+00
         21   -1    0    0  502  501  0.00000000000E+00  0.00000000000E+00  0.62833790858E+02  0.62833790858E+02  0.00000000000E+00 0. -1.
         21   -1    0    0  501  502 -0.00000000000E+00 -0.00000000000E+00 -0.13656804585E+04  0.13656804585E+04  0.00000000000E+00 0. -1.
         25    1    1    2    0    0 -0.82587555931E+02  0.12043112384E+02 -0.59071544662E+03  0.60953710292E+03  0.12500000000E+03 0.  0.
         25    1    1    2    0    0  0.12070557179E+03 -0.10457418182E+03 -0.56952018745E+03  0.60455259364E+03  0.12500000000E+03 0.  0.
         25    1    1    2    0    0 -0.38118015860E+02  0.92531069436E+02 -0.14261103353E+03  0.21442455277E+03  0.12500000000E+03 0.  0.
</event>
<event>
 5    0  0.5539899E-005  0.2902928E+03  0.7546771E-02  0.1090196E+00
         21   -1    0    0  502  501  0.00000000000E+00  0.00000000000E+00  0.64268257708E+03  0.64268257708E+03  0.00000000000E+00 0.  1.
         21   -1    0    0  501  502 -0.00000000000E+00 -0.00000000000E+00 -0.13112210462E+03  0.13112210462E+03  0.00000000000E+00 0.  1.
         25    1    1    2    0    0  0.55492809222E+01  0.56058094910E+02  0.20971660502E+03  0.25055809495E+03  0.12500000000E+03 0.  0.
         25    1    1    2    0    0 -0.14318476536E+03 -0.12031173569E+03  0.11810458991E+03  0.25406787466E+03  0.12500000000E+03 0.  0.
         25    1    1    2    0    0  0.13763548444E+03  0.64253640784E+02  0.18373927752E+03  0.26917871208E+03  0.12500000000E+03 0.  0.
</event>
<event>
 5    0  0.6359328E-005  0.3115269E+03  0.7546771E-02  0.1079616E+00
         21   -1    0    0  502  501  0.00000000000E+00  0.00000000000E+00  0.66415066227E+02  0.66415066227E+02  0.00000000000E+00 0. -1.
         21   -1    0    0  501  502 -0.00000000000E+00 -0.00000000000E+00 -0.14612495564E+04  0.14612495564E+04  0.00000000000E+00 0. -1.
         25    1    1    2    0    0 -0.58350017694E+02 -0.81418940255E+02 -0.22247548383E+03  0.27414249817E+03  0.12500000000E+03 0.  0.
         25    1    1    2    0    0  0.12353319040E+03 -0.85953197113E+02 -0.33404262496E+03  0.38711481051E+03  0.12500000000E+03 0.  0.
         25    1    1    2    0    0 -0.65183172702E+02  0.16737213737E+03 -0.83831638137E+03  0.86640731394E+03  0.12500000000E+03 0.  0.
</event>
<event>
 5    0  0.5539899E-005  0.3610713E+03  0.7546771E-02  0.1058160E+00
         21   -1    0    0  502  501  0.00000000000E+00  0.00000000000E+00  0.22983561950E+03  0.22983561950E+03  0.00000000000E+00 0.  1.
         21   -1    0    0  501  502 -0.00000000000E+00 -0.00000000000E+00 -0.56724242093E+03  0.56724242093E+03  0.00000000000E+00 0.  1.
         25    1    1    2    0    0  0.46757727550E+02 -0.13107685607E+03 -0.73813581236E+02  0.20109915977E+03  0.12500000000E+03 0.  0.
         25    1    1    2    0    0  0.12871967477E+03 -0.53793232878E+02 -0.24916377526E+03  0.31172111490E+03  0.12500000000E+03 0.  0.
         25    1    1    2    0    0 -0.17547740232E+03  0.18487008895E+03 -0.14429444932E+02  0.28425776576E+03  0.12500000000E+03 0.  0.
</event>
<event>
 5    0  0.5539899E-005  0.3347382E+03  0.7546771E-02  0.1069059E+00
         21   -1    0    0  502  501  0.00000000000E+00  0.00000000000E+00  0.16045656053E+03  0.16045656053E+03  0.00000000000E+00 0.  1.
         21   -1    0    0  501  502 -0.00000000000E+00 -0.00000000000E+00 -0.69831792477E+03  0.69831792477E+03  0.00000000000E+00 0.  1.
         25    1    1    2    0    0 -0.16819098381E+03 -0.29394938394E+02  0.38415168132E+01  0.21164126887E+03  0.12500000000E+03 0.  0.
         25    1    1    2    0    0  0.18684366816E+03  0.92875320283E+01 -0.32071584301E+03  0.39176583126E+03  0.12500000000E+03 0.  0.
         25    1    1    2    0    0 -0.18652684348E+02  0.20107406366E+02 -0.22098703804E+03  0.25536738516E+03  0.12500000000E+03 0.  0.
</event>
<event>
 5    0  0.5539899E-005  0.3268838E+03  0.7546771E-02  0.1072524E+00
         21   -1    0    0  502  501  0.00000000000E+00  0.00000000000E+00  0.71046616481E+02  0.71046616481E+02  0.00000000000E+00 0.  1.
         21   -1    0    0  501  502 -0.00000000000E+00 -0.00000000000E+00 -0.15039847309E+04  0.15039847309E+04  0.00000000000E+00 0.  1.
         25    1    1    2    0    0  0.89566815891E+02  0.60467873297E+02 -0.79745652610E+03  0.81439578168E+03  0.12500000000E+03 0.  0.
         25    1    1    2    0    0 -0.75235710066E+02 -0.24581877633E+02 -0.60955691312E+03  0.62725537950E+03  0.12500000000E+03 0.  0.
         25    1    1    2    0    0 -0.14331105826E+02 -0.35885995664E+02 -0.25924675170E+02  0.13338018617E+03  0.12500000000E+03 0.  0.
</event>
<event>
 5    0  0.5539899E-005  0.2365311E+03  0.7546771E-02  0.1122125E+00
         21   -1    0    0  502  501  0.00000000000E+00  0.00000000000E+00  0.52366312735E+03  0.52366312735E+03  0.00000000000E+00 0.  1.
         21   -1    0    0  501  502 -0.00000000000E+00 -0.00000000000E+00 -0.10683771905E+03  0.10683771905E+03  0.00000000000E+00 0.  1.
         25    1    1    2    0    0 -0.12887770677E+03 -0.28460687892E+02  0.15183977006E+03  0.23685394198E+03  0.12500000000E+03 0.  0.
         25    1    1    2    0    0  0.82612689315E+02 -0.70397028135E+01  0.10897949895E+03  0.18540751075E+03  0.12500000000E+03 0.  0.
         25    1    1    2    0    0  0.46265017457E+02  0.35500390705E+02  0.15600613929E+03  0.20823939367E+03  0.12500000000E+03 0.  0.
</event>
<event>
 5    0  0.5539899E-005  0.6056712E+03  0.7546771E-02  0.9893709E-01
         21   -1    0    0  502  501  0.00000000000E+00  0.00000000000E+00  0.17572664721E+03  0.17572664721E+03  0.00000000000E+00 0. -1.
         21   -1    0    0  501  502 -0.00000000000E+00 -0.00000000000E+00 -0.20875468634E+04  0.20875468634E+04  0.00000000000E+00 0. -1.
         25    1    1    2    0    0  0.24234381396E+02  0.16234080813E+03 -0.14394032037E+04  0.14541143099E+04  0.12500000000E+03 0.  0.
         25    1    1    2    0    0  0.76683123518E+02 -0.30560708362E+03 -0.48706332430E+03  0.59340683589E+03  0.12500000000E+03 0.  0.
         25    1    1    2    0    0 -0.10091750491E+03  0.14326627549E+03  0.14646311843E+02  0.21575236486E+03  0.12500000000E+03 0.  0.
</event>
<event>
 5    0  0.5539899E-005  0.4291881E+03  0.7546771E-02  0.1034117E+00
         21   -1    0    0  502  501  0.00000000000E+00  0.00000000000E+00  0.42778437901E+03  0.42778437901E+03  0.00000000000E+00 0. -1.
         21   -1    0    0  501  502 -0.00000000000E+00 -0.00000000000E+00 -0.43059647769E+03  0.43059647769E+03  0.00000000000E+00 0. -1.
         25    1    1    2    0    0  0.14966599078E+02 -0.23705566219E+03 -0.18655542695E+03  0.32687507306E+03  0.12500000000E+03 0.  0.
         25    1    1    2    0    0 -0.18435714903E+02  0.27609725128E+03  0.24186279958E+03  0.38819090866E+03  0.12500000000E+03 0.  0.
         25    1    1    2    0    0  0.34691158251E+01 -0.39041589091E+02 -0.58119471305E+02  0.14331487497E+03  0.12500000000E+03 0.  0.
</event>
<event>
 5    0  0.5539899E-005  0.3098200E+03  0.7546771E-02  0.1080432E+00
         21   -1    0    0  502  501  0.00000000000E+00  0.00000000000E+00  0.22183703389E+03  0.22183703389E+03  0.00000000000E+00 0. -1.
         21   -1    0    0  501  502 -0.00000000000E+00 -0.00000000000E+00 -0.43269794865E+03  0.43269794865E+03  0.00000000000E+00 0. -1.
         25    1    1    2    0    0 -0.51718763057E+02  0.18713863358E+03 -0.73998598828E+00  0.23091393681E+03  0.12500000000E+03 0.  0.
         25    1    1    2    0    0  0.19193399515E+02  0.99887422221E+01 -0.40192428770E+02  0.13307363708E+03  0.12500000000E+03 0.  0.
         25    1    1    2    0    0  0.32525363542E+02 -0.19712737581E+03 -0.16992850000E+03  0.29054740866E+03  0.12500000000E+03 0.  0.
</event>
<event>
 5    0  0.5539899E-005  0.5227195E+03  0.7546771E-02  0.1008013E+00
         21   -1    0    0  502  501  0.00000000000E+00  0.00000000000E+00  0.76014535521E+03  0.76014535521E+03  0.00000000000E+00 0.  1.
         21   -1    0    0  501  502 -0.00000000000E+00 -0.00000000000E+00 -0.35945194524E+03  0.35945194524E+03  0.00000000000E+00 0.  1.
         25    1    1    2    0    0  0.96788494448E+02  0.39131667933E+02  0.67119926027E+03  0.69067557296E+03  0.12500000000E+03 0.  0.
         25    1    1    2    0    0  0.41085874409E+02 -0.30934873162E+02 -0.60169717179E+02  0.14795408179E+03  0.12500000000E+03 0.  0.
         25    1    1    2    0    0 -0.13787436886E+03 -0.81967947716E+01 -0.21033613312E+03  0.28096764569E+03  0.12500000000E+03 0.  0.
</event>
<event>
 5    0  0.5539899E-005  0.2666940E+03  0.7546771E-02  0.1103187E+00
         21   -1    0    0  502  501  0.00000000000E+00  0.00000000000E+00  0.12156776148E+03  0.12156776148E+03  0.00000000000E+00 0.  1.
         21   -1    0    0  501  502 -0.00000000000E+00 -0.00000000000E+00 -0.58507027389E+03  0.58507027389E+03  0.00000000000E+00 0.  1.
         25    1    1    2    0    0  0.92978982514E+02  0.32103394251E+02 -0.46196574350E+02  0.16563466604E+03  0.12500000000E+03 0.  0.
         25    1    1    2    0    0  0.34085088449E+02 -0.49825900444E+02 -0.28918969298E+03  0.32078044226E+03  0.12500000000E+03 0.  0.
         25    1    1    2    0    0 -0.12706407096E+03  0.17722506194E+02 -0.12811624508E+03  0.22022292708E+03  0.12500000000E+03 0.  0.
</event>
<event>
 5    0  0.5539899E-005  0.3276642E+03  0.7546771E-02  0.1072175E+00
         21   -1    0    0  502  501  0.00000000000E+00  0.00000000000E+00  0.99627625132E+03  0.99627625132E+03  0.00000000000E+00 0. -1.
         21   -1    0    0  501  502 -0.00000000000E+00 -0.00000000000E+00 -0.10776509847E+03  0.10776509847E+03  0.00000000000E+00 0. -1.
         25    1    1    2    0    0  0.17993054039E+03 -0.86110096745E+02  0.28042291081E+03  0.36613106538E+03  0.12500000000E+03 0.  0.
         25    1    1    2    0    0 -0.18099749653E+03  0.15202092471E+03  0.46755110577E+03  0.53860884862E+03  0.12500000000E+03 0.  0.
         25    1    1    2    0    0  0.10669561399E+01 -0.65910827967E+02  0.14053713626E+03  0.19930143579E+03  0.12500000000E+03 0.  0.
</event>
<event>
 5    0  0.5539899E-005  0.2616601E+03  0.7546771E-02  0.1106150E+00
         21   -1    0    0  502  501  0.00000000000E+00  0.00000000000E+00  0.67963454415E+03  0.67963454415E+03  0.00000000000E+00 0. -1.
         21   -1    0    0  501  502 -0.00000000000E+00 -0.00000000000E+00 -0.10073946700E+03  0.10073946700E+03  0.00000000000E+00 0. -1.
         25    1    1    2    0    0 -0.30874473764E+02 -0.11602848133E+03  0.36484228106E+03  0.40391921427E+03  0.12500000000E+03 0.  0.
         25    1    1    2    0    0 -0.38190155578E+02  0.67816721973E+02  0.15711054165E+03  0.21532839585E+03  0.12500000000E+03 0.  0.
         25    1    1    2    0    0  0.69064629342E+02  0.48211759357E+02  0.56942254452E+02  0.16112640103E+03  0.12500000000E+03 0.  0.
</event>
<event>
 5    0  0.5539899E-005  0.2396002E+03  0.7546771E-02  0.1120059E+00
         21   -1    0    0  502  501  0.00000000000E+00  0.00000000000E+00  0.45311405692E+02  0.45311405692E+02  0.00000000000E+00 0.  1.
         21   -1    0    0  501  502 -0.00000000000E+00 -0.00000000000E+00 -0.12669717504E+04  0.12669717504E+04  0.00000000000E+00 0.  1.
         25    1    1    2    0    0  0.54315212826E+02 -0.46573186910E+02 -0.31559987471E+03  0.34691135035E+03  0.12500000000E+03 0.  0.
         25    1    1    2    0    0  0.72664399093E+02  0.44506754405E+02 -0.34545908564E+03  0.37713120520E+03  0.12500000000E+03 0.  0.
         25    1    1    2    0    0 -0.12697961192E+03  0.20664325043E+01 -0.56060138435E+03  0.58824060054E+03  0.12500000000E+03 0.  0.
</event>
<event>
 5    0  0.5539899E-005  0.3173992E+03  0.7546771E-02  0.1076853E+00
         21   -1    0    0  502  501  0.00000000000E+00  0.00000000000E+00  0.10730039606E+03  0.10730039606E+03  0.00000000000E+00 0.  1.
         21   -1    0    0  501  502 -0.00000000000E+00 -0.00000000000E+00 -0.93888033889E+03  0.93888033889E+03  0.00000000000E+00 0.  1.
         25    1    1    2    0    0  0.13815280527E+03  0.41863784181E+01 -0.66622874891E+03  0.69180161119E+03  0.12500000000E+03 0.  0.
         25    1    1    2    0    0 -0.33658665959E+02 -0.15648308166E+02 -0.13024675864E+02  0.13104357109E+03  0.12500000000E+03 0.  0.
         25    1    1    2    0    0 -0.10449413931E+03  0.11461929748E+02 -0.15232651806E+03  0.22333555267E+03  0.12500000000E+03 0.  0.
</event>
<event>
 5    0  0.5539899E-005  0.3138069E+03  0.7546771E-02  0.1078535E+00
         21   -1    0    0  502  501  0.00000000000E+00  0.00000000000E+00  0.37965136953E+03  0.37965136953E+03  0.00000000000E+00 0.  1.
         21   -1    0    0  501  502 -0.00000000000E+00 -0.00000000000E+00 -0.25938207148E+03  0.25938207148E+03  0.00000000000E+00 0.  1.
         25    1    1    2    0    0  0.89850267718E+02  0.45290667702E+02 -0.15669165361E+03  0.22428015851E+03  0.12500000000E+03 0.  0.
         25    1    1    2    0    0 -0.11748676460E+03  0.35759919964E+01  0.15962594224E+03  0.23435308620E+03  0.12500000000E+03 0.  0.
         25    1    1    2    0    0  0.27636496883E+02 -0.48866659698E+02  0.11733500942E+03  0.18040019630E+03  0.12500000000E+03 0.  0.
</event>
<event>
 5    0  0.5539899E-005  0.2614067E+03  0.7546771E-02  0.1106301E+00
         21   -1    0    0  502  501  0.00000000000E+00  0.00000000000E+00  0.10837692124E+03  0.10837692124E+03  0.00000000000E+00 0.  1.
         21   -1    0    0  501  502 -0.00000000000E+00 -0.00000000000E+00 -0.63051690199E+03  0.63051690199E+03  0.00000000000E+00 0.  1.
         25    1    1    2    0    0 -0.34539098319E+02 -0.93798502229E+02 -0.19990419973E+03  0.25608162254E+03  0.12500000000E+03 0.  0.
         25    1    1    2    0    0  0.52213909913E+02  0.67220908614E+02 -0.31982751132E+03  0.35377899872E+03  0.12500000000E+03 0.  0.
         25    1    1    2    0    0 -0.17674811595E+02  0.26577593616E+02 -0.24082697031E+01  0.12903320197E+03  0.12500000000E+03 0.  0.
</event>
<event>
 5    0  0.5539899E-005  0.3435785E+03  0.7546771E-02  0.1065282E+00
         21   -1    0    0  502  501  0.00000000000E+00  0.00000000000E+00  0.77847149802E+02  0.77847149802E+02  0.00000000000E+00 0.  1.
         21   -1    0    0  501  502 -0.00000000000E+00 -0.00000000000E+00 -0.15163837536E+04  0.15163837536E+04  0.00000000000E+00 0.  1.
         25    1    1    2    0    0  0.48608373795E+02  0.67297128412E+02 -0.49292712243E+02  0.15794444902E+03  0.12500000000E+03 0.  0.
         25    1    1    2    0    0 -0.11527251785E+03  0.29808016481E+02 -0.46047844728E+03  0.49177400463E+03  0.12500000000E+03 0.  0.
         25    1    1    2    0    0  0.66664144054E+02 -0.97105144893E+02 -0.92876544432E+03  0.94451244980E+03  0.12500000000E+03 0.  0.
</event>
<event>
 5    0  0.5539899E-005  0.2741516E+03  0.7546771E-02  0.1098927E+00
         21   -1    0    0  502  501  0.00000000000E+00  0.00000000000E+00  0.57151456834E+02  0.57151456834E+02  0.00000000000E+00 0.  1.
         21   -1    0    0  501  502 -0.00000000000E+00 -0.00000000000E+00 -0.13150863633E+04  0.13150863633E+04  0.00000000000E+00 0.  1.
         25    1    1    2    0    0 -0.10170514285E+03 -0.63381946674E+02 -0.23525457083E+03  0.29211456715E+03  0.12500000000E+03 0.  0.
         25    1    1    2    0    0  0.17347773228E+02  0.20090892766E+02 -0.78497998263E+03  0.79531324793E+03  0.12500000000E+03 0.  0.
         25    1    1    2    0    0  0.84357369620E+02  0.43291053908E+02 -0.23770035301E+03  0.28481000506E+03  0.12500000000E+03 0.  0.
</event>
<event>
 5    0  0.5539899E-005  0.2462314E+03  0.7546771E-02  0.1115710E+00
         21   -1    0    0  502  501  0.00000000000E+00  0.00000000000E+00  0.37153653290E+02  0.37153653290E+02  0.00000000000E+00 0. -1.
         21   -1    0    0  501  502 -0.00000000000E+00 -0.00000000000E+00 -0.16318687554E+04  0.16318687554E+04  0.00000000000E+00 0. -1.
         25    1    1    2    0    0 -0.18069576657E+02  0.12467132079E+03 -0.60910439786E+03  0.63443093818E+03  0.12500000000E+03 0.  0.
         25    1    1    2    0    0  0.64390020457E+02 -0.14337974625E+02 -0.42562955919E+03  0.44848319245E+03  0.12500000000E+03 0.  0.
         25    1    1    2    0    0 -0.46320443800E+02 -0.11033334616E+03 -0.55998114502E+03  0.58610827802E+03  0.12500000000E+03 0.  0.
</event>
<event>
 5    0  0.5539899E-005  0.2596085E+03  0.7546771E-02  0.1107379E+00
         21   -1    0    0  502  501  0.00000000000E+00  0.00000000000E+00  0.70111227241E+03  0.70111227241E+03  0.00000000000E+00 0.  1.
         21   -1    0    0  501  502 -0.00000000000E+00 -0.00000000000E+00 -0.96128111435E+02  0.96128111435E+02  0.00000000000E+00 0.  1.
         25    1    1    2    0    0  0.27309808146E+02  0.10857911513E+00  0.16364839463E+02  0.12899087325E+03  0.12500000000E+03 0.  0.
         25    1    1    2    0    0 -0.39737970588E+01  0.25879784495E+02  0.98635172444E+02  0.16136744266E+03  0.12500000000E+03 0.  0.
         25    1    1    2    0    0 -0.23336011087E+02 -0.25988363610E+02  0.48998414907E+03  0.50688206794E+03  0.12500000000E+03 0.  0.
</event>
<event>
 5    0  0.5539899E-005  0.3165385E+03  0.7546771E-02  0.1077254E+00
         21   -1    0    0  502  501  0.00000000000E+00  0.00000000000E+00  0.31142038203E+04  0.31142038203E+04  0.00000000000E+00 0.  1.
         21   -1    0    0  501  502 -0.00000000000E+00 -0.00000000000E+00 -0.32174065263E+02  0.32174065263E+02  0.00000000000E+00 0.  1.
         25    1    1    2    0    0  0.49276255039E+02  0.97279371343E+02  0.17352979073E+04  0.17432083216E+04  0.12500000000E+03 0.  0.
         25    1    1    2    0    0 -0.15978005029E+03 -0.98265595689E+02  0.70875301140E+03  0.74373491443E+03  0.12500000000E+03 0.  0.
         25    1    1    2    0    0  0.11050379525E+03  0.98622434597E+00  0.63797883635E+03  0.65943464956E+03  0.12500000000E+03 0.  0.
</event>
<event>
 5    0  0.5539899E-005  0.3024950E+03  0.7546771E-02  0.1084000E+00
         21   -1    0    0  502  501  0.00000000000E+00  0.00000000000E+00  0.44391777587E+03  0.44391777587E+03  0.00000000000E+00 0.  1.
         21   -1    0    0  501  502 -0.00000000000E+00 -0.00000000000E+00 -0.20612646991E+03  0.20612646991E+03  0.00000000000E+00 0.  1.
         25    1    1    2    0    0 -0.62342774118E+02 -0.88375595725E+02  0.24233612166E+03  0.29334052442E+03  0.12500000000E+03 0.  0.
         25    1    1    2    0    0 -0.74524530937E+02  0.27944881798E+02  0.46244273706E+02  0.15523644862E+03  0.12500000000E+03 0.  0.
         25    1    1    2    0    0  0.13686730506E+03  0.60430713927E+02 -0.50789089414E+02  0.20146727273E+03  0.12500000000E+03 0.  0.
</event>
<event>
 5    0  0.5539899E-005  0.2929775E+03  0.7546771E-02  0.1088805E+00
         21   -1    0    0  502  501  0.00000000000E+00  0.00000000000E+00  0.16071789598E+03  0.16071789598E+03  0.00000000000E+00 0. -1.
         21   -1    0    0  501  502 -0.00000000000E+00 -0.00000000000E+00 -0.53407764971E+03  0.53407764971E+03  0.00000000000E+00 0. -1.
         25    1    1    2    0    0  0.37573109169E+02 -0.61412003605E+02 -0.19862516994E+03  0.24547938987E+03  0.12500000000E+03 0.  0.
         25    1    1    2    0    0 -0.88511356628E+02  0.56415943659E+02 -0.24705185028E+03  0.29610240742E+03  0.12500000000E+03 0.  0.
         25    1    1    2    0    0  0.50938247460E+02  0.49960599466E+01  0.72317266477E+02  0.15321374840E+03  0.12500000000E+03 0.  0.
</event>
<event>
 5    0  0.5539899E-005  0.2247242E+03  0.7546771E-02  0.1130409E+00
         21   -1    0    0  502  501  0.00000000000E+00  0.00000000000E+00  0.15010455415E+04  0.15010455415E+04  0.00000000000E+00 0.  1.
         21   -1    0    0  501  502 -0.00000000000E+00 -0.00000000000E+00 -0.33643849405E+02  0.33643849405E+02  0.00000000000E+00 0.  1.
         25    1    1    2    0    0 -0.40085092333E+02  0.87913244000E+02  0.52820868404E+03  0.55133017965E+03  0.12500000000E+03 0.  0.
         25    1    1    2    0    0 -0.14897386282E+02 -0.81822332401E+02  0.40434412181E+03  0.43131890179E+03  0.12500000000E+03 0.  0.
         25    1    1    2    0    0  0.54982478616E+02 -0.60909115992E+01  0.53484888624E+03  0.55204030947E+03  0.12500000000E+03 0.  0.
</event>
<event>
 5    0  0.5539899E-005  0.2282420E+03  0.7546771E-02  0.1127883E+00
         21   -1    0    0  502  501  0.00000000000E+00  0.00000000000E+00  0.18164193856E+04  0.18164193856E+04  0.00000000000E+00 0. -1.
         21   -1    0    0  501  502 -0.00000000000E+00 -0.00000000000E+00 -0.28679726757E+02  0.28679726757E+02  0.00000000000E+00 0. -1.
         25    1    1    2    0    0  0.20609739233E+02 -0.96804197828E+02  0.55876290161E+03  0.58106522377E+03  0.12500000000E+03 0.  0.
         25    1    1    2    0    0 -0.47709396446E+02  0.53087946334E+01  0.45751664945E+03  0.47670835354E+03  0.12500000000E+03 0.  0.
         25    1    1    2    0    0  0.27099657213E+02  0.91495403195E+02  0.77146010784E+03  0.78732553509E+03  0.12500000000E+03 0.  0.
</event>
