<event>
 6    0  0.9315069E+002  0.1898364E+03  0.7546771E-02  0.1158609E+00
         21   -1    0    0  505  501  0.00000000000E+00  0.00000000000E+00  0.23056943485E+03  0.23056943485E+03  0.00000000000E+00 0. -1.
         21   -1    0    0  504  502 -0.00000000000E+00 -0.00000000000E+00 -0.59972573828E+03  0.59972573828E+03  0.00000000000E+00 0.  1.
         21    1    1    2  503  502 -0.12311811136E+03  0.34291886678E+02  0.11860992499E+03  0.17436260248E+03  0.00000000000E+00 0. -1.
         21    1    1    2  504  506  0.18975129531E+03 -0.57399450772E+02 -0.47530895013E+03  0.51499402821E+03  0.00000000000E+00 0.  1.
         21    1    1    2  505  503 -0.30567280753E+02  0.70643092926E+02  0.90696166372E+01  0.77505246124E+02  0.00000000000E+00 0. -1.
         21    1    1    2  506  501 -0.36065903195E+02 -0.47535528833E+02 -0.21526894929E+02  0.63433296304E+02  0.00000000000E+00 0.  1.
<scales pt_clust_3="189.83639" pt_clust_4="14000.00000" pt_clust_5="71.72888" pt_clust_6="59.66889"></scales>
<clustering>
<clus scale="   59.669">  1  6  2 -1</clus>
<clus scale="   71.729">  1  5  2 -1</clus>
<clus scale="  189.836">  1  3  2 -1</clus>
<clus scale="   59.669">  1  3  2 -1</clus>
</clustering>
</event>
<event>
 6    0  0.9315069E+002  0.1309027E+03  0.7546771E-02  0.1226122E+00
         21   -1    0    0  505  501  0.00000000000E+00  0.00000000000E+00  0.85052412019E+03  0.85052412019E+03  0.00000000000E+00 0.  1.
         21   -1    0    0  504  502 -0.00000000000E+00 -0.00000000000E+00 -0.36000150013E+03  0.36000150013E+03  0.00000000000E+00 0. -1.
         21    1    1    2  503  502 -0.58219364517E+02  0.59404341795E+02 -0.17994735357E+03  0.19824081387E+03  0.00000000000E+00 0. -1.
         21    1    1    2  504  506  0.12505964090E+03  0.23715011171E+02  0.11583802147E+03  0.17210683530E+03  0.00000000000E+00 0.  1.
         21    1    1    2  505  503 -0.17464246817E+03 -0.14879460341E+03 -0.39478212198E+02  0.23280540142E+03  0.00000000000E+00 0. -1.
         21    1    1    2  506  501  0.10780219178E+03  0.65675250445E+02  0.59411016435E+03  0.60737256973E+03  0.00000000000E+00 0.  1.
<scales pt_clust_3="83.17674" pt_clust_4="120.23513" pt_clust_5="14000.00000" pt_clust_6="130.90267"></scales>
<clustering>
<clus scale="   83.177">  2  3  1 -1</clus>
<clus scale="  120.235">  2  4  1 -1</clus>
<clus scale="  130.903">  1  6  2 -1</clus>
<clus scale="  130.903">  1  3  2 -1</clus>
</clustering>
</event>
<event>
 6    0  0.9315069E+002  0.1819965E+03  0.7546771E-02  0.1165885E+00
         21   -1    0    0  504  501  0.00000000000E+00  0.00000000000E+00  0.23717802054E+03  0.23717802054E+03  0.00000000000E+00 0. -1.
         21   -1    0    0  503  502 -0.00000000000E+00 -0.00000000000E+00 -0.14245179352E+04  0.14245179352E+04  0.00000000000E+00 0.  1.
         21    1    1    2  503  501 -0.12121887830E+03  0.20592954178E+03 -0.19258071279E+02  0.23973290542E+03  0.00000000000E+00 0. -1.
         21    1    1    2  504  506  0.26512960769E+02 -0.15939951882E+03  0.60489650420E+02  0.17254026051E+03  0.00000000000E+00 0. -1.
         21    1    1    2  505  502  0.36149731014E+02 -0.28614359047E+02 -0.11444257512E+04  0.11453540434E+04  0.00000000000E+00 0.  1.
         21    1    1    2  506  505  0.58556186512E+02 -0.17915663917E+02 -0.84145742618E+02  0.10406874648E+03  0.00000000000E+00 0. -1.
<scales pt_clust_3="14000.00000" pt_clust_4="181.99654" pt_clust_5="46.10406" pt_clust_6="75.89723"></scales>
<clustering>
<clus scale="   46.104">  2  5  1 -1</clus>
<clus scale="   75.897">  2  6  1 -1</clus>
<clus scale="  181.997">  1  4  2 -1</clus>
<clus scale="  181.997">  1  3  2 -1</clus>
</clustering>
</event>
<event>
 6    0  0.9315069E+002  0.1401260E+03  0.7546771E-02  0.1213159E+00
         21   -1    0    0  503  501  0.00000000000E+00  0.00000000000E+00  0.91861519785E+03  0.91861519785E+03  0.00000000000E+00 0.  1.
         21   -1    0    0  506  502 -0.00000000000E+00 -0.00000000000E+00 -0.10408058333E+03  0.10408058333E+03  0.00000000000E+00 0.  1.
         21    1    1    2  503  504 -0.19173596979E+02 -0.55658883004E+02  0.47837777898E+03  0.48198634576E+03  0.00000000000E+00 0.  1.
         21    1    1    2  504  502 -0.46522657839E+02 -0.66655393568E+02  0.36334971958E+03  0.37233092526E+03  0.00000000000E+00 0.  1.
         21    1    1    2  505  501  0.51620661973E+02  0.80828525423E+02  0.26096855886E+02  0.99393104146E+02  0.00000000000E+00 0.  1.
         21    1    1    2  506  505  0.14075592845E+02  0.41485751150E+02 -0.53289739925E+02  0.68985406020E+02  0.00000000000E+00 0.  1.
<scales pt_clust_3="38.77522" pt_clust_4="38.77522" pt_clust_5="132.51138" pt_clust_6="43.80856"></scales>
<clustering>
<clus scale="   38.775">  3  4 -1 -1</clus>
<clus scale="   43.809">  2  6  1 -1</clus>
<clus scale="  132.511">  2  5  1 -1</clus>
<clus scale="  140.126">  1  3  2 -1</clus>
</clustering>
</event>
<event>
 6    0  0.9315069E+002  0.2618453E+03  0.7546771E-02  0.1106040E+00
         21   -1    0    0  505  501  0.00000000000E+00  0.00000000000E+00  0.87037403784E+03  0.87037403784E+03  0.00000000000E+00 0.  1.
         21   -1    0    0  504  502 -0.00000000000E+00 -0.00000000000E+00 -0.31585199716E+03  0.31585199716E+03  0.00000000000E+00 0.  1.
         21    1    1    2  503  502  0.66603482396E+02 -0.20732931891E+03  0.25738410133E+03  0.33714692044E+03  0.00000000000E+00 0.  1.
         21    1    1    2  504  501 -0.27830658321E+03  0.10946241251E+03 -0.12230839010E+03  0.32310356899E+03  0.00000000000E+00 0.  1.
         21    1    1    2  505  506  0.40976596466E+02  0.26349733432E+02  0.30388020901E+03  0.30776057470E+03  0.00000000000E+00 0.  1.
         21    1    1    2  506  503  0.17072650434E+03  0.71517172967E+02  0.11556612045E+03  0.21821497087E+03  0.00000000000E+00 0.  1.
<scales pt_clust_3="261.84532" pt_clust_4="14000.00000" pt_clust_5="48.71745" pt_clust_6="199.29858"></scales>
<clustering>
<clus scale="   48.717">  1  5  2 -1</clus>
<clus scale="  199.299">  1  6  2 -1</clus>
<clus scale="  261.845">  1  3  2 -1</clus>
<clus scale="   48.717">  1  3  2 -1</clus>
</clustering>
</event>
<event>
 6    0  0.9315069E+002  0.7696218E+02  0.7546771E-02  0.1337900E+00
         21   -1    0    0  506  501  0.00000000000E+00  0.00000000000E+00  0.13133466236E+03  0.13133466236E+03  0.00000000000E+00 0.  1.
         21   -1    0    0  503  502 -0.00000000000E+00 -0.00000000000E+00 -0.83857394307E+03  0.83857394307E+03  0.00000000000E+00 0.  1.
         21    1    1    2  503  504  0.10552535778E+02  0.77585733406E+02 -0.69732166559E+03  0.70170393140E+03  0.00000000000E+00 0.  1.
         21    1    1    2  504  501  0.66086843798E+02  0.28922752586E+01 -0.95146978332E+02  0.11588262883E+03  0.00000000000E+00 0. -1.
         21    1    1    2  505  502 -0.64061770011E+02 -0.35317290815E+02  0.27962946990E+02  0.78314416373E+02  0.00000000000E+00 0.  1.
         21    1    1    2  506  505 -0.12577609565E+02 -0.45160717850E+02  0.57266416212E+02  0.74007628829E+02  0.00000000000E+00 0.  1.
<scales pt_clust_3="76.96218" pt_clust_4="64.24167" pt_clust_5="14000.00000" pt_clust_6="46.87949"></scales>
<clustering>
<clus scale="   46.879">  1  6  2 -1</clus>
<clus scale="   64.242">  1  4  2 -1</clus>
<clus scale="   76.962">  2  3  1 -1</clus>
<clus scale="   46.879">  1  3  2 -1</clus>
</clustering>
</event>
<event>
 6    0  0.9315069E+002  0.1347193E+03  0.7546771E-02  0.1220616E+00
         21   -1    0    0  504  501  0.00000000000E+00  0.00000000000E+00  0.39607703538E+03  0.39607703538E+03  0.00000000000E+00 0. -1.
         21   -1    0    0  505  502 -0.00000000000E+00 -0.00000000000E+00 -0.66151198489E+02  0.66151198489E+02  0.00000000000E+00 0. -1.
         21    1    1    2  503  501  0.44696106944E+02 -0.11618242481E+02  0.10236503710E+03  0.11230016186E+03  0.00000000000E+00 0. -1.
         21    1    1    2  504  506 -0.56517412259E+02 -0.48730214381E+02  0.73381098174E+02  0.10465962570E+03  0.00000000000E+00 0. -1.
         21    1    1    2  505  503  0.93885598584E+02  0.50805961950E+02  0.72160922141E+02  0.12885243527E+03  0.00000000000E+00 0. -1.
         21    1    1    2  506  502 -0.82064293269E+02  0.95424949108E+01  0.82018779481E+02  0.11641601104E+03  0.00000000000E+00 0. -1.
<scales pt_clust_3="46.18144" pt_clust_4="62.83736" pt_clust_5="119.01492" pt_clust_6="62.83736"></scales>
<clustering>
<clus scale="   46.181">  1  3  2 -1</clus>
<clus scale="   62.837">  4  6 -1 -1</clus>
<clus scale="  119.015">  2  5  1 -1</clus>
<clus scale="   46.181">  1  3  2 -1</clus>
</clustering>
</event>
<event>
 6    0  0.9315069E+002  0.1304918E+03  0.7546771E-02  0.1226728E+00
         21   -1    0    0  503  501  0.00000000000E+00  0.00000000000E+00  0.25531654563E+03  0.25531654563E+03  0.00000000000E+00 0. -1.
         21   -1    0    0  505  502 -0.00000000000E+00 -0.00000000000E+00 -0.48562366175E+03  0.48562366175E+03  0.00000000000E+00 0.  1.
         21    1    1    2  503  502 -0.29794446548E+02 -0.13821713336E+02  0.51017336946E+01  0.33238178219E+02  0.00000000000E+00 0. -1.
         21    1    1    2  504  506  0.52769356108E+02  0.23473203443E+02 -0.14709820953E+03  0.15802999548E+03  0.00000000000E+00 0.  1.
         21    1    1    2  505  504  0.64052210501E+02  0.27606397740E+02 -0.30517587210E+03  0.31304490377E+03  0.00000000000E+00 0.  1.
         21    1    1    2  506  501 -0.87027120061E+02 -0.37257887847E+02  0.21686523182E+03  0.23662712990E+03  0.00000000000E+00 0. -1.
<scales pt_clust_3="32.84431" pt_clust_4="30.22569" pt_clust_5="30.22569" pt_clust_6="126.19348"></scales>
<clustering>
<clus scale="   30.226">  4  5 -1 -1</clus>
<clus scale="   32.844">  1  3  2 -1</clus>
<clus scale="  126.193">  1  6  2 -1</clus>
<clus scale="   32.844">  1  3  2 -1</clus>
</clustering>
</event>
<event>
 6    0  0.9315069E+002  0.7200857E+02  0.7546771E-02  0.1353393E+00
         21   -1    0    0  505  501  0.00000000000E+00  0.00000000000E+00  0.34202787710E+03  0.34202787710E+03  0.00000000000E+00 0. -1.
         21   -1    0    0  506  502 -0.00000000000E+00 -0.00000000000E+00 -0.25196519066E+04  0.25196519066E+04  0.00000000000E+00 0. -1.
         21    1    1    2  503  504 -0.27998123993E+02  0.10433115034E+03 -0.32282524435E+03  0.34041889235E+03  0.00000000000E+00 0.  1.
         21    1    1    2  504  501  0.64014588761E+02 -0.32945802176E+02  0.32823838282E+03  0.33604126147E+03  0.00000000000E+00 0. -1.
         21    1    1    2  505  502 -0.19313678359E+02 -0.28909142928E+02 -0.16073518755E+04  0.16077278402E+04  0.00000000000E+00 0. -1.
         21    1    1    2  506  503 -0.16702786409E+02 -0.42476205239E+02 -0.57568529247E+03  0.57749178960E+03  0.00000000000E+00 0.  1.
<scales pt_clust_3="14000.00000" pt_clust_4="72.00857" pt_clust_5="34.76718" pt_clust_6="67.27988"></scales>
<clustering>
<clus scale="   34.767">  2  5  1 -1</clus>
<clus scale="   67.280">  2  6  1 -1</clus>
<clus scale="   72.009">  1  4  2 -1</clus>
<clus scale="   72.009">  1  3  2 -1</clus>
</clustering>
</event>
<event>
 6    0  0.9315069E+002  0.8294216E+02  0.7546771E-02  0.1320903E+00
         21   -1    0    0  506  501  0.00000000000E+00  0.00000000000E+00  0.10407163048E+04  0.10407163048E+04  0.00000000000E+00 0.  1.
         21   -1    0    0  505  502 -0.00000000000E+00 -0.00000000000E+00 -0.31580431496E+03  0.31580431496E+03  0.00000000000E+00 0.  1.
         21    1    1    2  503  502 -0.85654884650E+02  0.28038602222E+02 -0.19641209292E+03  0.21610329179E+03  0.00000000000E+00 0.  1.
         21    1    1    2  504  501  0.24603495540E+02  0.78280891952E+02 -0.10849137021E+02  0.82770367957E+02  0.00000000000E+00 0. -1.
         21    1    1    2  505  504  0.30113998172E+02 -0.28600318847E+02 -0.53893058750E+02  0.68038907292E+02  0.00000000000E+00 0.  1.
         21    1    1    2  506  503  0.30937390938E+02 -0.77719175327E+02  0.98606627851E+03  0.98960805271E+03  0.00000000000E+00 0.  1.
<scales pt_clust_3="61.47644" pt_clust_4="82.94216" pt_clust_5="41.53109" pt_clust_6="14000.00000"></scales>
<clustering>
<clus scale="   41.531">  2  5  1 -1</clus>
<clus scale="   61.476">  2  3  1 -1</clus>
<clus scale="   82.942">  2  4  1 -1</clus>
<clus scale="   82.942">  1  3  2 -1</clus>
</clustering>
</event>
<event>
 6    0  0.9315069E+002  0.1441233E+03  0.7546771E-02  0.1207886E+00
         21   -1    0    0  503  501  0.00000000000E+00  0.00000000000E+00  0.45989407337E+03  0.45989407337E+03  0.00000000000E+00 0. -1.
         21   -1    0    0  504  502 -0.00000000000E+00 -0.00000000000E+00 -0.61192126496E+03  0.61192126496E+03  0.00000000000E+00 0. -1.
         21    1    1    2  503  506  0.97116357798E+02 -0.98246355133E+02  0.16469458303E+03  0.21496101723E+03  0.00000000000E+00 0. -1.
         21    1    1    2  504  505 -0.87551595831E+02  0.26539591427E+02  0.15022477209E+03  0.17588949370E+03  0.00000000000E+00 0. -1.
         21    1    1    2  505  501 -0.28543839036E+02  0.43866324628E+02  0.10007998939E+03  0.11293807799E+03  0.00000000000E+00 0. -1.
         21    1    1    2  506  502  0.18979077068E+02  0.27840439078E+02 -0.56702653610E+03  0.56802674942E+03  0.00000000000E+00 0. -1.
<scales pt_clust_3="135.78576" pt_clust_4="37.75756" pt_clust_5="37.75756" pt_clust_6="33.69415"></scales>
<clustering>
<clus scale="   33.694">  2  6  1 -1</clus>
<clus scale="   37.758">  4  5 -1 -1</clus>
<clus scale="  135.786">  2  3  1 -1</clus>
<clus scale="  144.123">  1  3  2 -1</clus>
</clustering>
</event>
<event>
 6    0  0.9315069E+002  0.1380056E+03  0.7546771E-02  0.1216038E+00
         21   -1    0    0  506  501  0.00000000000E+00  0.00000000000E+00  0.59539320161E+02  0.59539320161E+02  0.00000000000E+00 0. -1.
         21   -1    0    0  504  502 -0.00000000000E+00 -0.00000000000E+00 -0.84939448279E+03  0.84939448279E+03  0.00000000000E+00 0. -1.
         21    1    1    2  503  501  0.24984882499E+02 -0.49950518211E+02 -0.55680539462E+02  0.78864574416E+02  0.00000000000E+00 0.  1.
         21    1    1    2  504  505  0.24819260196E+02  0.19482862441E+02 -0.31673504825E+03  0.31830279357E+03  0.00000000000E+00 0. -1.
         21    1    1    2  505  503 -0.16260305246E+03 -0.10605780928E+02 -0.31200985135E+03  0.35199770255E+03  0.00000000000E+00 0. -1.
         21    1    1    2  506  502  0.11279890977E+03  0.41073436698E+02 -0.10542972357E+03  0.15976873242E+03  0.00000000000E+00 0. -1.
<scales pt_clust_3="55.18977" pt_clust_4="31.55277" pt_clust_5="138.00564" pt_clust_6="14000.00000"></scales>
<clustering>
<clus scale="   31.553">  2  4  1 -1</clus>
<clus scale="   55.190">  1  3  2 -1</clus>
<clus scale="  138.006">  2  5  1 -1</clus>
<clus scale="   55.190">  1  3  2 -1</clus>
</clustering>
</event>
<event>
 6    0  0.9315069E+002  0.1188957E+03  0.7546771E-02  0.1244930E+00
         21   -1    0    0  504  501  0.00000000000E+00  0.00000000000E+00  0.92199749774E+02  0.92199749774E+02  0.00000000000E+00 0.  1.
         21   -1    0    0  505  502 -0.00000000000E+00 -0.00000000000E+00 -0.72964666262E+03  0.72964666262E+03  0.00000000000E+00 0. -1.
         21    1    1    2  503  506 -0.50456829900E+02 -0.49165703939E+02 -0.21870747061E+02  0.73766440232E+02  0.00000000000E+00 0.  1.
         21    1    1    2  504  503  0.88567467373E+00 -0.39057131036E+02 -0.11352986837E+02  0.40683340749E+02  0.00000000000E+00 0.  1.
         21    1    1    2  505  501 -0.42800162010E+02  0.22126276889E+02  0.34112311637E+02  0.59034530593E+02  0.00000000000E+00 0.  1.
         21    1    1    2  506  502  0.92371317237E+02  0.66096558086E+02 -0.63833549058E+03  0.64836210082E+03  0.00000000000E+00 0. -1.
<scales pt_clust_3="31.19082" pt_clust_4="31.19082" pt_clust_5="48.18118" pt_clust_6="111.27365"></scales>
<clustering>
<clus scale="   31.191">  3  4 -1 -1</clus>
<clus scale="   48.181">  1  5  2 -1</clus>
<clus scale="  111.274">  2  6  1 -1</clus>
<clus scale="   48.181">  1  3  2 -1</clus>
</clustering>
</event>
<event>
 6    0  0.9315069E+002  0.7385189E+02  0.7546771E-02  0.1347464E+00
         21   -1    0    0  505  501  0.00000000000E+00  0.00000000000E+00  0.43795290675E+03  0.43795290675E+03  0.00000000000E+00 0. -1.
         21   -1    0    0  506  502 -0.00000000000E+00 -0.00000000000E+00 -0.12388575004E+03  0.12388575004E+03  0.00000000000E+00 0. -1.
         21    1    1    2  503  501 -0.32052705850E+02  0.63768668508E+02  0.28864886168E+03  0.29734152819E+03  0.00000000000E+00 0. -1.
         21    1    1    2  504  503 -0.35401352544E+02 -0.26699778291E+02  0.47410923975E+02  0.64914787490E+02  0.00000000000E+00 0. -1.
         21    1    1    2  505  502  0.10511227644E+03 -0.53097940330E+02  0.40799292099E+02  0.12462970819E+03  0.00000000000E+00 0. -1.
         21    1    1    2  506  504 -0.37658218051E+02  0.16029050114E+02 -0.62791921039E+02  0.74952632923E+02  0.00000000000E+00 0.  1.
<scales pt_clust_3="73.85189" pt_clust_4="47.92215" pt_clust_5="14000.00000" pt_clust_6="40.92764"></scales>
<clustering>
<clus scale="   40.928">  2  6  1 -1</clus>
<clus scale="   47.922">  2  4  1 -1</clus>
<clus scale="   73.852">  1  3  2 -1</clus>
<clus scale="   73.852">  1  3  2 -1</clus>
</clustering>
</event>
<event>
 6    0  0.9315069E+002  0.7581721E+02  0.7546771E-02  0.1341359E+00
         21   -1    0    0  504  501  0.00000000000E+00  0.00000000000E+00  0.29862188613E+04  0.29862188613E+04  0.00000000000E+00 0.  1.
         21   -1    0    0  503  502 -0.00000000000E+00 -0.00000000000E+00 -0.18888328981E+03  0.18888328981E+03  0.00000000000E+00 0. -1.
         21    1    1    2  503  505  0.38033876138E+02  0.65234116206E+02 -0.17537013443E+03  0.19093650699E+03  0.00000000000E+00 0. -1.
         21    1    1    2  504  502  0.70130726763E+02  0.37483930550E+01  0.56933556211E+03  0.57365089695E+03  0.00000000000E+00 0. -1.
         21    1    1    2  505  506 -0.77428669426E+02 -0.98259919520E+02  0.12230109948E+04  0.12293925752E+04  0.00000000000E+00 0. -1.
         21    1    1    2  506  501 -0.30735933475E+02  0.29277410259E+02  0.11803591490E+04  0.11811221719E+04  0.00000000000E+00 0.  1.
<scales pt_clust_3="75.81721" pt_clust_4="61.78822" pt_clust_5="14000.00000" pt_clust_6="42.44837"></scales>
<clustering>
<clus scale="   42.448">  1  6  2 -1</clus>
<clus scale="   61.788">  1  4  2 -1</clus>
<clus scale="   75.817">  2  3  1 -1</clus>
<clus scale="   42.448">  1  3  2 -1</clus>
</clustering>
</event>
<event>
 6    0  0.9315069E+002  0.2614026E+03  0.7546771E-02  0.1106303E+00
         21   -1    0    0  506  501  0.00000000000E+00  0.00000000000E+00  0.71003101502E+03  0.71003101502E+03  0.00000000000E+00 0. -1.
         21   -1    0    0  504  502 -0.00000000000E+00 -0.00000000000E+00 -0.45349737150E+03  0.45349737150E+03  0.00000000000E+00 0.  1.
         21    1    1    2  503  501  0.14632990220E+03 -0.16138238401E+03  0.25048734499E+03  0.33196479353E+03  0.00000000000E+00 0. -1.
         21    1    1    2  504  503 -0.38136967787E+02 -0.10776114465E+03 -0.34691526561E+03  0.36526304785E+03  0.00000000000E+00 0.  1.
         21    1    1    2  505  502 -0.12003254492E+03  0.22492360893E+03  0.26867227745E+03  0.37038255138E+03  0.00000000000E+00 0. -1.
         21    1    1    2  506  505  0.11839610509E+02  0.44219919729E+02  0.84289286682E+02  0.95917993761E+02  0.00000000000E+00 0. -1.
<scales pt_clust_3="244.17402" pt_clust_4="114.31051" pt_clust_5="39.54748" pt_clust_6="39.54748"></scales>
<clustering>
<clus scale="   39.547">  5  6 -1 -1</clus>
<clus scale="  114.311">  2  4  1 -1</clus>
<clus scale="  244.174">  1  3  2 -1</clus>
<clus scale="  244.174">  1  3  2 -1</clus>
</clustering>
</event>
<event>
 6    0  0.9315069E+002  0.1552129E+03  0.7546771E-02  0.1194210E+00
         21   -1    0    0  506  501  0.00000000000E+00  0.00000000000E+00  0.86058687422E+02  0.86058687422E+02  0.00000000000E+00 0. -1.
         21   -1    0    0  505  502 -0.00000000000E+00 -0.00000000000E+00 -0.16246076355E+04  0.16246076355E+04  0.00000000000E+00 0.  1.
         21    1    1    2  503  502  0.49173839712E+02  0.28106028763E+02 -0.10330268446E+04  0.10345784054E+04  0.00000000000E+00 0.  1.
         21    1    1    2  504  503  0.59395817444E+02  0.11117221528E+03 -0.45558191431E+03  0.47269652551E+03  0.00000000000E+00 0.  1.
         21    1    1    2  505  501 -0.42273024066E+02 -0.36708835157E+02 -0.58484573464E+02  0.80962908022E+02  0.00000000000E+00 0. -1.
         21    1    1    2  506  504 -0.66296633090E+02 -0.10256940889E+03  0.85443842101E+01  0.12242848402E+03  0.00000000000E+00 0. -1.
<scales pt_clust_3="56.07004" pt_clust_4="155.21290" pt_clust_5="55.98703" pt_clust_6="14000.00000"></scales>
<clustering>
<clus scale="   55.987">  1  5  2 -1</clus>
<clus scale="   56.070">  2  3  1 -1</clus>
<clus scale="  155.213">  2  4  1 -1</clus>
<clus scale="   55.987">  1  3  2 -1</clus>
</clustering>
</event>
<event>
 6    0  0.9315069E+002  0.9544755E+02  0.7546771E-02  0.1290171E+00
         21   -1    0    0  506  501  0.00000000000E+00  0.00000000000E+00  0.14587571664E+04  0.14587571664E+04  0.00000000000E+00 0. -1.
         21   -1    0    0  504  502 -0.00000000000E+00 -0.00000000000E+00 -0.57059606202E+02  0.57059606202E+02  0.00000000000E+00 0.  1.
         21    1    1    2  503  505 -0.35029721114E+02  0.92459939379E+02  0.47197529702E+03  0.48222049184E+03  0.00000000000E+00 0.  1.
         21    1    1    2  504  501 -0.26556282278E+02 -0.78236597085E+02 -0.28651369234E+01  0.82670492084E+02  0.00000000000E+00 0.  1.
         21    1    1    2  505  502  0.26558749163E+02 -0.20486158025E+02  0.23063135085E+02  0.40705749320E+02  0.00000000000E+00 0.  1.
         21    1    1    2  506  503  0.35027254230E+02  0.62628157307E+01  0.90952426505E+03  0.91022003939E+03  0.00000000000E+00 0. -1.
<scales pt_clust_3="14000.00000" pt_clust_4="95.44755" pt_clust_5="33.54176" pt_clust_6="35.74573"></scales>
<clustering>
<clus scale="   33.542">  2  5  1 -1</clus>
<clus scale="   35.746">  1  6  2 -1</clus>
<clus scale="   95.448">  2  4  1 -1</clus>
<clus scale="   35.746">  1  3  2 -1</clus>
</clustering>
</event>
<event>
 6    0  0.9315069E+002  0.2142558E+03  0.7546771E-02  0.1138240E+00
         21   -1    0    0  504  501  0.00000000000E+00  0.00000000000E+00  0.31492836272E+03  0.31492836272E+03  0.00000000000E+00 0.  1.
         21   -1    0    0  506  502 -0.00000000000E+00 -0.00000000000E+00 -0.37634818431E+03  0.37634818431E+03  0.00000000000E+00 0.  1.
         21    1    1    2  503  505  0.12612509921E+03 -0.18006444226E+03 -0.11303576377E+03  0.24719997554E+03  0.00000000000E+00 0.  1.
         21    1    1    2  504  503 -0.20996587159E+02 -0.47641689301E+02  0.83287517075E+02  0.98221167435E+02  0.00000000000E+00 0.  1.
         21    1    1    2  505  502 -0.71086664482E+02 -0.89818310397E+01 -0.74010805190E+02  0.10301255477E+03  0.00000000000E+00 0.  1.
         21    1    1    2  506  501 -0.34041847568E+02  0.23668796260E+03  0.42339230287E+02  0.24284284928E+03  0.00000000000E+00 0.  1.
<scales pt_clust_3="214.25578" pt_clust_4="52.06330" pt_clust_5="73.44240" pt_clust_6="14000.00000"></scales>
<clustering>
<clus scale="   52.063">  1  4  2 -1</clus>
<clus scale="   73.442">  2  5  1 -1</clus>
<clus scale="  214.256">  2  3  1 -1</clus>
<clus scale="   52.063">  1  3  2 -1</clus>
</clustering>
</event>
<event>
 6    0  0.9315069E+002  0.1316173E+03  0.7546771E-02  0.1225076E+00
         21   -1    0    0  505  501  0.00000000000E+00  0.00000000000E+00  0.78826226140E+03  0.78826226140E+03  0.00000000000E+00 0.  1.
         21   -1    0    0  506  502 -0.00000000000E+00 -0.00000000000E+00 -0.87446347798E+02  0.87446347798E+02  0.00000000000E+00 0.  1.
         21    1    1    2  503  501  0.74176425302E+02 -0.94012135203E+02  0.48688337296E+03  0.50139389955E+03  0.00000000000E+00 0.  1.
         21    1    1    2  504  502  0.33618365452E+01  0.75000282340E+02  0.99816679731E+01  0.75736239619E+02  0.00000000000E+00 0.  1.
         21    1    1    2  505  504  0.62996062576E+02  0.28053209830E+02  0.10812102172E+03  0.12824056230E+03  0.00000000000E+00 0.  1.
         21    1    1    2  506  503 -0.14053432442E+03 -0.90413569676E+01  0.95829850943E+02  0.17033790773E+03  0.00000000000E+00 0.  1.
<scales pt_clust_3="14000.00000" pt_clust_4="77.14945" pt_clust_5="68.96004" pt_clust_6="131.61726"></scales>
<clustering>
<clus scale="   68.960">  1  5  2 -1</clus>
<clus scale="   77.149">  2  4  1 -1</clus>
<clus scale="  131.617">  2  6  1 -1</clus>
<clus scale="   68.960">  1  3  2 -1</clus>
</clustering>
</event>
<event>
 6    0  0.9315069E+002  0.1247502E+03  0.7546771E-02  0.1235460E+00
         21   -1    0    0  506  501  0.00000000000E+00  0.00000000000E+00  0.27095153151E+03  0.27095153151E+03  0.00000000000E+00 0.  1.
         21   -1    0    0  504  502 -0.00000000000E+00 -0.00000000000E+00 -0.54261345661E+03  0.54261345661E+03  0.00000000000E+00 0.  1.
         21    1    1    2  503  502  0.19882214862E+02  0.49199251544E+02 -0.40664572510E+03  0.41009342175E+03  0.00000000000E+00 0.  1.
         21    1    1    2  504  505  0.66527221584E+02  0.21060384884E+02 -0.63568640168E+02  0.94394825261E+02  0.00000000000E+00 0.  1.
         21    1    1    2  505  501 -0.13935236073E+03 -0.22395108085E+02  0.19073598080E+03  0.23727797133E+03  0.00000000000E+00 0.  1.
         21    1    1    2  506  503  0.52942924280E+02 -0.47864528343E+02  0.78164593731E+01  0.71798769780E+02  0.00000000000E+00 0.  1.
<scales pt_clust_3="53.06476" pt_clust_4="124.75019" pt_clust_5="14000.00000" pt_clust_6="68.06760"></scales>
<clustering>
<clus scale="   53.065">  2  3  1 -1</clus>
<clus scale="   68.068">  2  6  1 -1</clus>
<clus scale="  124.750">  2  4  1 -1</clus>
<clus scale="  124.750">  1  3  2 -1</clus>
</clustering>
</event>
<event>
 6    0  0.9315069E+002  0.1635176E+03  0.7546771E-02  0.1184782E+00
         21   -1    0    0  503  501  0.00000000000E+00  0.00000000000E+00  0.68031900483E+03  0.68031900483E+03  0.00000000000E+00 0. -1.
         21   -1    0    0  505  502 -0.00000000000E+00 -0.00000000000E+00 -0.13213840851E+03  0.13213840851E+03  0.00000000000E+00 0. -1.
         21    1    1    2  503  504  0.10567994468E+03 -0.30554153686E+02  0.23785344327E+03  0.26206119036E+03  0.00000000000E+00 0. -1.
         21    1    1    2  504  502  0.27294524187E+02 -0.46245032751E+02  0.10282760286E+03  0.11600478445E+03  0.00000000000E+00 0. -1.
         21    1    1    2  505  506 -0.13174807615E+03 -0.96852791446E+02 -0.38468639709E+00  0.16351809308E+03  0.00000000000E+00 0. -1.
         21    1    1    2  506  501 -0.12263927220E+01  0.17365197788E+03  0.20788423659E+03  0.27087334547E+03  0.00000000000E+00 0. -1.
<scales pt_clust_3="40.07446" pt_clust_4="40.07446" pt_clust_5="163.51764" pt_clust_6="140.64182"></scales>
<clustering>
<clus scale="   40.074">  3  4 -1 -1</clus>
<clus scale="  163.518">  2  5  1 -1</clus>
<clus scale="  140.642">  2  6  1 -1</clus>
<clus scale="  163.518">  1  3  2 -1</clus>
</clustering>
</event>
<event>
 6    0  0.9315069E+002  0.1776164E+03  0.7546771E-02  0.1170130E+00
         21   -1    0    0  506  501  0.00000000000E+00  0.00000000000E+00  0.35782096149E+03  0.35782096149E+03  0.00000000000E+00 0.  1.
         21   -1    0    0  501  502 -0.00000000000E+00 -0.00000000000E+00 -0.15777905537E+03  0.15777905537E+03  0.00000000000E+00 0.  1.
         21    1    1    2  503  504 -0.34428237014E+02  0.94074047637E+02  0.14033026746E+03  0.17241755685E+03  0.00000000000E+00 0.  1.
         21    1    1    2  504  505  0.45729675686E+02 -0.81198275212E+02 -0.19947663098E+01  0.93211277367E+02  0.00000000000E+00 0.  1.
         21    1    1    2  505  502  0.37126505214E+02 -0.56284996885E+02 -0.73618233410E+02  0.99829968217E+02  0.00000000000E+00 0.  1.
         21    1    1    2  506  503 -0.48427943886E+02  0.43409224461E+02  0.13532463838E+03  0.15014121443E+03  0.00000000000E+00 0.  1.
<scales pt_clust_3="167.50682" pt_clust_4="64.67343" pt_clust_5="64.67343" pt_clust_6="38.57235"></scales>
<clustering>
<clus scale="   38.572">  3  6 -1 -1</clus>
<clus scale="   64.673">  4  5 -1 -1</clus>
<clus scale="  167.507">  1  3  2 -1</clus>
<clus scale="  167.507">  1  3  2 -1</clus>
</clustering>
</event>
<event>
 6    0  0.9315069E+002  0.8688978E+02  0.7546771E-02  0.1310563E+00
         21   -1    0    0  506  501  0.00000000000E+00  0.00000000000E+00  0.50140441941E+03  0.50140441941E+03  0.00000000000E+00 0.  1.
         21   -1    0    0  504  502 -0.00000000000E+00 -0.00000000000E+00 -0.14107838194E+03  0.14107838194E+03  0.00000000000E+00 0. -1.
         21    1    1    2  503  505 -0.55932928760E+02  0.49507493485E+02  0.10293798969E+03  0.12718378101E+03  0.00000000000E+00 0. -1.
         21    1    1    2  504  503 -0.82939305765E+02 -0.28739677033E+02 -0.94429421442E+02  0.12892561076E+03  0.00000000000E+00 0. -1.
         21    1    1    2  505  501  0.46902569257E+02  0.27274693374E+02  0.95261132710E+02  0.10962866097E+03  0.00000000000E+00 0.  1.
         21    1    1    2  506  502  0.91969665268E+02 -0.48042509825E+02  0.25655633651E+03  0.27674474861E+03  0.00000000000E+00 0.  1.
<scales pt_clust_3="71.34428" pt_clust_4="86.88978" pt_clust_5="54.25643" pt_clust_6="14000.00000"></scales>
<clustering>
<clus scale="   54.256">  1  5  2 -1</clus>
<clus scale="   71.344">  1  3  2 -1</clus>
<clus scale="   86.890">  2  4  1 -1</clus>
<clus scale="   54.256">  1  3  2 -1</clus>
</clustering>
</event>
<event>
 6    0  0.9315069E+002  0.1422718E+03  0.7546771E-02  0.1210304E+00
         21   -1    0    0  505  501  0.00000000000E+00  0.00000000000E+00  0.58124713215E+02  0.58124713215E+02  0.00000000000E+00 0. -1.
         21   -1    0    0  503  502 -0.00000000000E+00 -0.00000000000E+00 -0.15892194956E+04  0.15892194956E+04  0.00000000000E+00 0. -1.
         21    1    1    2  503  506 -0.93436609726E+01  0.63306899649E+02 -0.37879394780E+03  0.38416132344E+03  0.00000000000E+00 0. -1.
         21    1    1    2  504  501  0.96036329012E+02 -0.10157238247E+03 -0.83838375252E+02  0.16299938201E+03  0.00000000000E+00 0. -1.
         21    1    1    2  505  502 -0.12136738013E+03 -0.59765335495E+02 -0.36867214260E+03  0.39270992478E+03  0.00000000000E+00 0. -1.
         21    1    1    2  506  504  0.34674712093E+02  0.98030818317E+02 -0.69979031675E+03  0.70747357860E+03  0.00000000000E+00 0. -1.
<scales pt_clust_3="31.87776" pt_clust_4="136.34532" pt_clust_5="135.28465" pt_clust_6="31.87776"></scales>
<clustering>
<clus scale="   31.878">  3  6 -1 -1</clus>
<clus scale="  135.285">  2  5  1 -1</clus>
<clus scale="  136.345">  1  4  2 -1</clus>
<clus scale="  136.345">  1  3  2 -1</clus>
</clustering>
</event>
<event>
 6    0  0.9315069E+002  0.8350958E+02  0.7546771E-02  0.1319377E+00
         21   -1    0    0  504  501  0.00000000000E+00  0.00000000000E+00  0.19244152947E+03  0.19244152947E+03  0.00000000000E+00 0.  1.
         21   -1    0    0  505  502 -0.00000000000E+00 -0.00000000000E+00 -0.18690954991E+03  0.18690954991E+03  0.00000000000E+00 0.  1.
         21    1    1    2  503  501  0.78190603067E+02 -0.17736044929E+02 -0.22645144830E+02  0.83313506000E+02  0.00000000000E+00 0.  1.
         21    1    1    2  504  506  0.54323746713E+01  0.64235175398E+02  0.11131682556E+03  0.12863554759E+03  0.00000000000E+00 0.  1.
         21    1    1    2  505  503  0.46062104812E+01 -0.45675501926E+02 -0.61160373120E+02  0.76472608765E+02  0.00000000000E+00 0.  1.
         21    1    1    2  506  502 -0.88229188219E+02 -0.82362854346E+00 -0.21979328049E+02  0.90929417018E+02  0.00000000000E+00 0.  1.
<scales pt_clust_3="83.50958" pt_clust_4="61.15875" pt_clust_5="45.90717" pt_clust_6="14000.00000"></scales>
<clustering>
<clus scale="   45.907">  2  5  1 -1</clus>
<clus scale="   61.159">  1  4  2 -1</clus>
<clus scale="   83.510">  1  3  2 -1</clus>
<clus scale="   61.159">  1  3  2 -1</clus>
</clustering>
</event>
<event>
 6    0  0.9315069E+002  0.8940831E+02  0.7546771E-02  0.1304291E+00
         21   -1    0    0  504  501  0.00000000000E+00  0.00000000000E+00  0.10007674429E+03  0.10007674429E+03  0.00000000000E+00 0. -1.
         21   -1    0    0  506  502 -0.00000000000E+00 -0.00000000000E+00 -0.20937815784E+03  0.20937815784E+03  0.00000000000E+00 0. -1.
         21    1    1    2  503  502 -0.39304781231E+02 -0.80011888696E+01 -0.55867458261E+02  0.68775415255E+02  0.00000000000E+00 0. -1.
         21    1    1    2  504  505  0.98221281013E+02 -0.77309010796E+01 -0.43093697537E+01  0.98619255437E+02  0.00000000000E+00 0. -1.
         21    1    1    2  505  503  0.72654318847E+01 -0.43726907007E+02 -0.16053486702E+02  0.47143857841E+02  0.00000000000E+00 0. -1.
         21    1    1    2  506  501 -0.66181931666E+02  0.59458996956E+02 -0.33071098837E+02  0.94916373595E+02  0.00000000000E+00 0. -1.
<scales pt_clust_3="40.11091" pt_clust_4="89.40831" pt_clust_5="45.46148" pt_clust_6="14000.00000"></scales>
<clustering>
<clus scale="   40.111">  2  3  1 -1</clus>
<clus scale="   45.461">  2  5  1 -1</clus>
<clus scale="   89.408">  1  4  2 -1</clus>
<clus scale="   89.408">  1  3  2 -1</clus>
</clustering>
</event>
<event>
 6    0  0.9315069E+002  0.1030938E+03  0.7546771E-02  0.1273921E+00
         21   -1    0    0  505  501  0.00000000000E+00  0.00000000000E+00  0.13201001487E+04  0.13201001487E+04  0.00000000000E+00 0. -1.
         21   -1    0    0  504  502 -0.00000000000E+00 -0.00000000000E+00 -0.45539801605E+02  0.45539801605E+02  0.00000000000E+00 0.  1.
         21    1    1    2  503  501  0.59002447256E+02  0.72588284294E+02  0.38021455535E+03  0.39155262213E+03  0.00000000000E+00 0. -1.
         21    1    1    2  504  503  0.51458251631E+02 -0.69259736388E+01  0.20362706766E+03  0.21014257888E+03  0.00000000000E+00 0. -1.
         21    1    1    2  505  506 -0.54344694182E+02 -0.40789040342E+02  0.69874470284E+03  0.70204077612E+03  0.00000000000E+00 0. -1.
         21    1    1    2  506  502 -0.56116004705E+02 -0.24873270313E+02 -0.80259787510E+01  0.61903973177E+02  0.00000000000E+00 0.  1.
<scales pt_clust_3="50.82010" pt_clust_4="50.82010" pt_clust_5="77.30046" pt_clust_6="61.38148"></scales>
<clustering>
<clus scale="   50.820">  3  4 -1 -1</clus>
<clus scale="   61.381">  2  6  1 -1</clus>
<clus scale="   77.300">  1  5  2 -1</clus>
<clus scale="   77.300">  1  3  2 -1</clus>
</clustering>
</event>
<event>
 6    0  0.9315069E+002  0.1273815E+03  0.7546771E-02  0.1231394E+00
         21   -1    0    0  504  501  0.00000000000E+00  0.00000000000E+00  0.89626410462E+03  0.89626410462E+03  0.00000000000E+00 0.  1.
         21   -1    0    0  503  502 -0.00000000000E+00 -0.00000000000E+00 -0.39729605680E+03  0.39729605680E+03  0.00000000000E+00 0. -1.
         21    1    1    2  503  506 -0.53826640640E+01 -0.64780230230E+02 -0.30446966188E+03  0.31133137701E+03  0.00000000000E+00 0. -1.
         21    1    1    2  504  505 -0.31497435756E+02  0.13324558608E+03  0.75660126418E+03  0.76889007512E+03  0.00000000000E+00 0.  1.
         21    1    1    2  505  502  0.10235126005E+03  0.12739866068E+02  0.14658988122E+02  0.10417759142E+03  0.00000000000E+00 0. -1.
         21    1    1    2  506  501 -0.65471160233E+02 -0.81205221917E+02  0.32177457413E+02  0.10916111787E+03  0.00000000000E+00 0. -1.
<scales pt_clust_3="65.00347" pt_clust_4="14000.00000" pt_clust_5="101.58371" pt_clust_6="127.38154"></scales>
<clustering>
<clus scale="   65.003">  2  3  1 -1</clus>
<clus scale="  101.584">  2  5  1 -1</clus>
<clus scale="  127.382">  2  6  1 -1</clus>
<clus scale="  127.382">  1  3  2 -1</clus>
</clustering>
</event>
<event>
 6    0  0.9315069E+002  0.1083984E+03  0.7546771E-02  0.1263565E+00
         21   -1    0    0  506  501  0.00000000000E+00  0.00000000000E+00  0.16361085706E+03  0.16361085706E+03  0.00000000000E+00 0. -1.
         21   -1    0    0  503  502 -0.00000000000E+00 -0.00000000000E+00 -0.25003554569E+04  0.25003554569E+04  0.00000000000E+00 0.  1.
         21    1    1    2  503  501 -0.53734208919E+02  0.79887307150E+02 -0.26802751129E+03  0.28479482765E+03  0.00000000000E+00 0. -1.
         21    1    1    2  504  502 -0.48973396258E+02  0.95305650345E+02 -0.21115941176E+04  0.21143110646E+04  0.00000000000E+00 0.  1.
         21    1    1    2  505  504  0.92368971231E+02 -0.14487589678E+03 -0.39652238938E+02  0.17633307224E+03  0.00000000000E+00 0. -1.
         21    1    1    2  506  505  0.10338633947E+02 -0.30317060720E+02  0.82529267987E+02  0.88527349430E+02  0.00000000000E+00 0. -1.
<scales pt_clust_3="92.96125" pt_clust_4="108.39840" pt_clust_5="14000.00000" pt_clust_6="32.03141"></scales>
<clustering>
<clus scale="   32.031">  1  6  2 -1</clus>
<clus scale="   92.961">  1  3  2 -1</clus>
<clus scale="  108.398">  2  4  1 -1</clus>
<clus scale="   32.031">  1  3  2 -1</clus>
</clustering>
</event>
<event>
 6    0  0.9315069E+002  0.8156707E+02  0.7546771E-02  0.1324662E+00
         21   -1    0    0  503  501  0.00000000000E+00  0.00000000000E+00  0.88625090788E+03  0.88625090788E+03  0.00000000000E+00 0.  1.
         21   -1    0    0  506  502 -0.00000000000E+00 -0.00000000000E+00 -0.95526619033E+03  0.95526619033E+03  0.00000000000E+00 0. -1.
         21    1    1    2  503  504  0.62646457957E+02 -0.51312649668E+02  0.80576131761E+03  0.80982026874E+03  0.00000000000E+00 0.  1.
         21    1    1    2  504  502 -0.16912082623E+02  0.88140796777E+02 -0.70470801827E+02  0.11410938833E+03  0.00000000000E+00 0. -1.
         21    1    1    2  505  501 -0.97895284026E+02 -0.35309173552E+02  0.72828713841E+01  0.10432288621E+03  0.00000000000E+00 0. -1.
         21    1    1    2  506  505  0.52160908693E+02 -0.15189735563E+01 -0.81158866961E+03  0.81326455493E+03  0.00000000000E+00 0. -1.
<scales pt_clust_3="81.56707" pt_clust_4="14000.00000" pt_clust_5="79.15168" pt_clust_6="52.18302"></scales>
<clustering>
<clus scale="   52.183">  2  6  1 -1</clus>
<clus scale="   81.567">  1  3  2 -1</clus>
<clus scale="   79.152">  1  5  2 -1</clus>
<clus scale="   81.567">  1  3  2 -1</clus>
</clustering>
</event>
<event>
 6    0  0.9315069E+002  0.1543299E+03  0.7546771E-02  0.1195251E+00
         21   -1    0    0  504  501  0.00000000000E+00  0.00000000000E+00  0.64184026936E+02  0.64184026936E+02  0.00000000000E+00 0.  1.
         21   -1    0    0  505  502 -0.00000000000E+00 -0.00000000000E+00 -0.11214627295E+04  0.11214627295E+04  0.00000000000E+00 0. -1.
         21    1    1    2  503  502 -0.75340717624E+02 -0.63267418225E+02 -0.51582956614E+03  0.52512772851E+03  0.00000000000E+00 0. -1.
         21    1    1    2  504  506  0.15034802906E+03  0.53184115770E+02 -0.40026484088E+03  0.43086543475E+03  0.00000000000E+00 0. -1.
         21    1    1    2  505  501 -0.26957163961E+02  0.19160965874E+02  0.34202277853E+02  0.47577590443E+02  0.00000000000E+00 0.  1.
         21    1    1    2  506  503 -0.48050147479E+02 -0.90776634187E+01 -0.17538657336E+03  0.18207600270E+03  0.00000000000E+00 0. -1.
<scales pt_clust_3="30.71666" pt_clust_4="148.05225" pt_clust_5="33.07312" pt_clust_6="30.71666"></scales>
<clustering>
<clus scale="   30.717">  3  6 -1 -1</clus>
<clus scale="   33.073">  1  5  2 -1</clus>
<clus scale="  148.052">  1  4  2 -1</clus>
<clus scale="   33.073">  1  3  2 -1</clus>
</clustering>
</event>
<event>
 6    0  0.9315069E+002  0.9456589E+02  0.7546771E-02  0.1292157E+00
         21   -1    0    0  504  501  0.00000000000E+00  0.00000000000E+00  0.35313485427E+02  0.35313485427E+02  0.00000000000E+00 0. -1.
         21   -1    0    0  505  502 -0.00000000000E+00 -0.00000000000E+00 -0.14916436444E+04  0.14916436444E+04  0.00000000000E+00 0. -1.
         21    1    1    2  503  506 -0.51589505815E+02 -0.93567265319E+02 -0.60935616553E+03  0.61865276749E+03  0.00000000000E+00 0. -1.
         21    1    1    2  504  503  0.15563966263E+02  0.92402354936E+02 -0.46645834217E+02  0.10467218395E+03  0.00000000000E+00 0. -1.
         21    1    1    2  505  501  0.27957834044E+02 -0.29451066419E+02 -0.49696006429E+03  0.49861639694E+03  0.00000000000E+00 0. -1.
         21    1    1    2  506  502  0.80677055084E+01  0.30615976802E+02 -0.30336809498E+03  0.30501578149E+03  0.00000000000E+00 0.  1.
<scales pt_clust_3="14000.00000" pt_clust_4="94.56589" pt_clust_5="35.47253" pt_clust_6="31.66111"></scales>
<clustering>
<clus scale="   31.661">  2  6  1 -1</clus>
<clus scale="   35.473">  2  5  1 -1</clus>
<clus scale="   94.566">  1  4  2 -1</clus>
<clus scale="   94.566">  1  3  2 -1</clus>
</clustering>
</event>
<event>
 6    0  0.9315069E+002  0.1390269E+03  0.7546771E-02  0.1214644E+00
         21   -1    0    0  504  501  0.00000000000E+00  0.00000000000E+00  0.43985781208E+02  0.43985781208E+02  0.00000000000E+00 0.  1.
         21   -1    0    0  505  502 -0.00000000000E+00 -0.00000000000E+00 -0.10513157066E+04  0.10513157066E+04  0.00000000000E+00 0. -1.
         21    1    1    2  503  502  0.32220510226E+02 -0.11075241576E+02 -0.41084336592E+03  0.41225367624E+03  0.00000000000E+00 0.  1.
         21    1    1    2  504  503  0.10165235093E+03  0.42713576134E+02 -0.49231887124E+03  0.50451513458E+03  0.00000000000E+00 0. -1.
         21    1    1    2  505  506 -0.45133890264E+02  0.73008351765E+01 -0.49023795044E+02  0.67035085777E+02  0.00000000000E+00 0.  1.
         21    1    1    2  506  501 -0.88738970888E+02 -0.38939169735E+02 -0.55143893219E+02  0.11149759124E+03  0.00000000000E+00 0.  1.
<scales pt_clust_3="34.07084" pt_clust_4="131.25700" pt_clust_5="31.47731" pt_clust_6="31.47731"></scales>
<clustering>
<clus scale="   31.477">  5  6 -1 -1</clus>
<clus scale="   34.071">  2  3  1 -1</clus>
<clus scale="  131.257">  2  4  1 -1</clus>
<clus scale="  139.027">  1  3  2 -1</clus>
</clustering>
</event>
<event>
 6    0  0.9315069E+002  0.7168337E+02  0.7546771E-02  0.1354460E+00
         21   -1    0    0  504  501  0.00000000000E+00  0.00000000000E+00  0.93190462409E+03  0.93190462409E+03  0.00000000000E+00 0. -1.
         21   -1    0    0  506  502 -0.00000000000E+00 -0.00000000000E+00 -0.20522391247E+03  0.20522391247E+03  0.00000000000E+00 0. -1.
         21    1    1    2  503  502 -0.80576039703E+01  0.71710434612E+02 -0.14125693429E+03  0.15862166592E+03  0.00000000000E+00 0. -1.
         21    1    1    2  504  503  0.11754575633E+02 -0.68191648640E+02  0.21482966454E+02  0.72455426576E+02  0.00000000000E+00 0. -1.
         21    1    1    2  505  501  0.49383871488E+02 -0.19704627926E+02  0.84884272471E+03  0.85050632591E+03  0.00000000000E+00 0. -1.
         21    1    1    2  506  505 -0.53080843151E+02  0.16185841955E+02 -0.23880452546E+01  0.55545118143E+02  0.00000000000E+00 0. -1.
<scales pt_clust_3="71.68337" pt_clust_4="14000.00000" pt_clust_5="53.16991" pt_clust_6="38.39512"></scales>
<clustering>
<clus scale="   53.170">  1  5  2 -1</clus>
<clus scale="   38.395">  1  6  2 -1</clus>
<clus scale="   71.683">  2  3  1 -1</clus>
<clus scale="   53.170">  1  3  2 -1</clus>
</clustering>
</event>
<event>
 6    0  0.9315069E+002  0.1967650E+03  0.7546771E-02  0.1152497E+00
         21   -1    0    0  505  501  0.00000000000E+00  0.00000000000E+00  0.42882495367E+03  0.42882495367E+03  0.00000000000E+00 0.  1.
         21   -1    0    0  506  502 -0.00000000000E+00 -0.00000000000E+00 -0.90173592569E+02  0.90173592569E+02  0.00000000000E+00 0.  1.
         21    1    1    2  503  502 -0.70493668296E+02 -0.78723380748E+02  0.10618514011E+03  0.14980658172E+03  0.00000000000E+00 0.  1.
         21    1    1    2  504  501  0.70842133333E+02  0.56447450186E+02  0.10437809386E+03  0.13820169668E+03  0.00000000000E+00 0.  1.
         21    1    1    2  505  503 -0.70333677668E+02 -0.31155136230E+02  0.12004019441E+03  0.14257319875E+03  0.00000000000E+00 0.  1.
         21    1    1    2  506  504  0.69985212631E+02  0.53431066792E+02  0.80479327239E+01  0.88417069091E+02  0.00000000000E+00 0.  1.
<scales pt_clust_3="185.22428" pt_clust_4="81.36656" pt_clust_5="41.81918" pt_clust_6="81.36656"></scales>
<clustering>
<clus scale="   41.819">  3  5 -1 -1</clus>
<clus scale="   81.367">  4  6 -1 -1</clus>
<clus scale="  185.224">  1  3  2 -1</clus>
<clus scale="  185.224">  1  3  2 -1</clus>
</clustering>
</event>
<event>
 6    0  0.9315069E+002  0.1917216E+03  0.7546771E-02  0.1156918E+00
         21   -1    0    0  506  501  0.00000000000E+00  0.00000000000E+00  0.68716931191E+03  0.68716931191E+03  0.00000000000E+00 0. -1.
         21   -1    0    0  503  502 -0.00000000000E+00 -0.00000000000E+00 -0.17042375684E+03  0.17042375684E+03  0.00000000000E+00 0. -1.
         21    1    1    2  503  505 -0.11711985534E+02 -0.75884050675E+02  0.50012777317E+02  0.91634260225E+02  0.00000000000E+00 0. -1.
         21    1    1    2  504  502 -0.12450102657E+03 -0.76890607729E+02 -0.85822510369E+02  0.16964131118E+03  0.00000000000E+00 0. -1.
         21    1    1    2  505  501  0.14479150213E+03  0.11922099450E+03  0.49230007497E+03  0.52681836380E+03  0.00000000000E+00 0. -1.
         21    1    1    2  506  504 -0.85784900258E+01  0.33553663903E+02  0.60255213152E+02  0.69499133552E+02  0.00000000000E+00 0. -1.
<scales pt_clust_3="73.17375" pt_clust_4="14000.00000" pt_clust_5="191.72156" pt_clust_6="34.63292"></scales>
<clustering>
<clus scale="   34.633">  1  6  2 -1</clus>
<clus scale="   73.174">  2  3  1 -1</clus>
<clus scale="  191.722">  1  5  2 -1</clus>
<clus scale="   34.633">  1  3  2 -1</clus>
</clustering>
</event>
<event>
 6    0  0.9315069E+002  0.1274610E+03  0.7546771E-02  0.1231272E+00
         21   -1    0    0  504  501  0.00000000000E+00  0.00000000000E+00  0.99083980991E+02  0.99083980991E+02  0.00000000000E+00 0.  1.
         21   -1    0    0  506  502 -0.00000000000E+00 -0.00000000000E+00 -0.75825721491E+03  0.75825721491E+03  0.00000000000E+00 0.  1.
         21    1    1    2  503  501  0.38060789199E+02  0.65068515266E+02 -0.74425790691E+02  0.10593268463E+03  0.00000000000E+00 0.  1.
         21    1    1    2  504  505 -0.52038572901E+02 -0.63291392237E+02  0.14242861818E+02  0.83166534819E+02  0.00000000000E+00 0. -1.
         21    1    1    2  505  502 -0.92173576314E+02 -0.49455391659E+02 -0.51298559587E+03  0.52354180875E+03  0.00000000000E+00 0.  1.
         21    1    1    2  506  503  0.10615136002E+03  0.47678268631E+02 -0.86004709177E+02  0.14470016770E+03  0.00000000000E+00 0.  1.
<scales pt_clust_3="48.08928" pt_clust_4="81.93786" pt_clust_5="112.58957" pt_clust_6="48.08928"></scales>
<clustering>
<clus scale="   48.089">  3  6 -1 -1</clus>
<clus scale="   81.938">  1  4  2 -1</clus>
<clus scale="  112.590">  2  5  1 -1</clus>
<clus scale="   81.938">  1  3  2 -1</clus>
</clustering>
</event>
<event>
 6    0  0.9315069E+002  0.1226064E+03  0.7546771E-02  0.1238858E+00
         21   -1    0    0  506  501  0.00000000000E+00  0.00000000000E+00  0.93692419038E+03  0.93692419038E+03  0.00000000000E+00 0. -1.
         21   -1    0    0  503  502 -0.00000000000E+00 -0.00000000000E+00 -0.37827937442E+03  0.37827937442E+03  0.00000000000E+00 0. -1.
         21    1    1    2  503  501 -0.37857418975E+02 -0.43631972012E+01 -0.82265844301E+01  0.38985873757E+02  0.00000000000E+00 0. -1.
         21    1    1    2  504  505  0.90208056138E+01 -0.10441940454E+03 -0.25695836374E+03  0.27751105865E+03  0.00000000000E+00 0. -1.
         21    1    1    2  505  502  0.59420068315E+02 -0.10259391574E+02 -0.72324127324E+02  0.94163575905E+02  0.00000000000E+00 0. -1.
         21    1    1    2  506  504 -0.30583454954E+02  0.11904199332E+03  0.89615389144E+03  0.90454305649E+03  0.00000000000E+00 0. -1.
<scales pt_clust_3="38.10803" pt_clust_4="122.60638" pt_clust_5="51.77908" pt_clust_6="14000.00000"></scales>
<clustering>
<clus scale="   38.108">  2  3  1 -1</clus>
<clus scale="   51.779">  2  5  1 -1</clus>
<clus scale="  122.606">  2  4  1 -1</clus>
<clus scale="  122.606">  1  3  2 -1</clus>
</clustering>
</event>
<event>
 6    0  0.9315069E+002  0.7902081E+02  0.7546771E-02  0.1331853E+00
         21   -1    0    0  506  501  0.00000000000E+00  0.00000000000E+00  0.15807262638E+03  0.15807262638E+03  0.00000000000E+00 0. -1.
         21   -1    0    0  503  502 -0.00000000000E+00 -0.00000000000E+00 -0.13903689657E+03  0.13903689657E+03  0.00000000000E+00 0. -1.
         21    1    1    2  503  504 -0.77330464299E+02  0.10370547264E+02 -0.62270883354E+02  0.99825907824E+02  0.00000000000E+00 0. -1.
         21    1    1    2  504  505 -0.19162597679E+02  0.39050326867E+02  0.29092034719E+02  0.52330485019E+02  0.00000000000E+00 0. -1.
         21    1    1    2  505  501  0.27214041684E+02  0.22308184866E+02  0.93627746661E+01  0.36413194398E+02  0.00000000000E+00 0. -1.
         21    1    1    2  506  502  0.69279020294E+02 -0.71729058997E+02  0.42851803779E+02  0.10853993571E+03  0.00000000000E+00 0. -1.
<scales pt_clust_3="79.02081" pt_clust_4="47.06412" pt_clust_5="35.18891" pt_clust_6="14000.00000"></scales>
<clustering>
<clus scale="   35.189">  1  5  2 -1</clus>
<clus scale="   47.064">  1  4  2 -1</clus>
<clus scale="   79.021">  2  3  1 -1</clus>
<clus scale="   35.189">  1  3  2 -1</clus>
</clustering>
</event>
<event>
 6    0  0.9315069E+002  0.8357096E+02  0.7546771E-02  0.1319212E+00
         21   -1    0    0  505  501  0.00000000000E+00  0.00000000000E+00  0.22313641834E+03  0.22313641834E+03  0.00000000000E+00 0. -1.
         21   -1    0    0  506  502 -0.00000000000E+00 -0.00000000000E+00 -0.11871592974E+03  0.11871592974E+03  0.00000000000E+00 0. -1.
         21    1    1    2  503  504  0.86801352473E+02  0.91224608142E+02  0.11442428533E+03  0.17014499991E+03  0.00000000000E+00 0. -1.
         21    1    1    2  504  501 -0.82877769285E+01 -0.48410310629E+02  0.24439416208E+02  0.54859187801E+02  0.00000000000E+00 0. -1.
         21    1    1    2  505  502 -0.12493052639E+02 -0.40167706055E+02 -0.27843496162E+02  0.50445824926E+02  0.00000000000E+00 0. -1.
         21    1    1    2  506  503 -0.66020522905E+02 -0.26465914576E+01 -0.65997167702E+01  0.66402335445E+02  0.00000000000E+00 0. -1.
<scales pt_clust_3="14000.00000" pt_clust_4="57.09526" pt_clust_5="42.06567" pt_clust_6="83.57096"></scales>
<clustering>
<clus scale="   42.066">  2  5  1 -1</clus>
<clus scale="   57.095">  1  4  2 -1</clus>
<clus scale="   83.571">  2  6  1 -1</clus>
<clus scale="   57.095">  1  3  2 -1</clus>
</clustering>
</event>
<event>
 6    0  0.9315069E+002  0.1674352E+03  0.7546771E-02  0.1180549E+00
         21   -1    0    0  506  501  0.00000000000E+00  0.00000000000E+00  0.55961795190E+03  0.55961795190E+03  0.00000000000E+00 0.  1.
         21   -1    0    0  504  502 -0.00000000000E+00 -0.00000000000E+00 -0.93103990412E+03  0.93103990412E+03  0.00000000000E+00 0. -1.
         21    1    1    2  503  501 -0.15167289427E+03 -0.85277759725E+01  0.48835525797E+03  0.51143743293E+03  0.00000000000E+00 0.  1.
         21    1    1    2  504  505  0.18160287166E+03  0.80009593565E+01 -0.64913451503E+03  0.67410625049E+03  0.00000000000E+00 0. -1.
         21    1    1    2  505  503  0.81493458326E+02 -0.65559399063E+01 -0.16567673546E+03  0.18475103456E+03  0.00000000000E+00 0. -1.
         21    1    1    2  506  502 -0.11142343571E+03  0.70827565224E+01 -0.44965959700E+02  0.12036313804E+03  0.00000000000E+00 0.  1.
<scales pt_clust_3="153.42053" pt_clust_4="44.97142" pt_clust_5="44.97142" pt_clust_6="111.64832"></scales>
<clustering>
<clus scale="   44.971">  4  5 -1 -1</clus>
<clus scale="  111.648">  2  6  1 -1</clus>
<clus scale="  153.421">  1  3  2 -1</clus>
<clus scale="  153.421">  1  3  2 -1</clus>
</clustering>
</event>
<event>
 6    0  0.9315069E+002  0.6169609E+02  0.7546771E-02  0.1390849E+00
         21   -1    0    0  505  501  0.00000000000E+00  0.00000000000E+00  0.78875629322E+03  0.78875629322E+03  0.00000000000E+00 0.  1.
         21   -1    0    0  503  502 -0.00000000000E+00 -0.00000000000E+00 -0.48632056375E+02  0.48632056375E+02  0.00000000000E+00 0.  1.
         21    1    1    2  503  506  0.58126349700E+01 -0.58652665533E+02 -0.10950392672E+02  0.59948586297E+02  0.00000000000E+00 0.  1.
         21    1    1    2  504  501 -0.37771738928E+02 -0.13913513549E+01  0.96839372707E+02  0.10395433722E+03  0.00000000000E+00 0.  1.
         21    1    1    2  505  502  0.32045473445E+02 -0.42313274275E+02  0.30401989954E+03  0.30861857505E+03  0.00000000000E+00 0.  1.
         21    1    1    2  506  504 -0.86369487002E-01  0.10235729116E+03  0.35021535727E+03  0.36486685103E+03  0.00000000000E+00 0.  1.
<scales pt_clust_3="14000.00000" pt_clust_4="37.79736" pt_clust_5="45.55614" pt_clust_6="61.69609"></scales>
<clustering>
<clus scale="   37.797">  1  4  2 -1</clus>
<clus scale="   45.556">  1  5  2 -1</clus>
<clus scale="   61.696">  1  6  2 -1</clus>
<clus scale="   37.797">  1  3  2 -1</clus>
</clustering>
</event>
<event>
 6    0  0.9315069E+002  0.6062212E+02  0.7546771E-02  0.1395239E+00
         21   -1    0    0  504  501  0.00000000000E+00  0.00000000000E+00  0.33149975389E+03  0.33149975389E+03  0.00000000000E+00 0.  1.
         21   -1    0    0  506  502 -0.00000000000E+00 -0.00000000000E+00 -0.62282317205E+03  0.62282317205E+03  0.00000000000E+00 0.  1.
         21    1    1    2  503  502  0.32136445471E+02 -0.79606740041E+01 -0.22731893965E+03  0.22971726923E+03  0.00000000000E+00 0.  1.
         21    1    1    2  504  505 -0.23357459176E+02 -0.55535693668E+02  0.30993320576E+03  0.31573466108E+03  0.00000000000E+00 0.  1.
         21    1    1    2  505  503 -0.48680220233E+01 -0.47894577873E+02 -0.68441132860E+02  0.83676620959E+02  0.00000000000E+00 0. -1.
         21    1    1    2  506  501 -0.39109642712E+01  0.11139094555E+03 -0.30549655142E+03  0.32519437467E+03  0.00000000000E+00 0.  1.
<scales pt_clust_3="33.10776" pt_clust_4="60.62212" pt_clust_5="49.44805" pt_clust_6="14000.00000"></scales>
<clustering>
<clus scale="   33.108">  2  3  1 -1</clus>
<clus scale="   49.448">  2  5  1 -1</clus>
<clus scale="   60.622">  1  4  2 -1</clus>
<clus scale="   60.622">  1  3  2 -1</clus>
</clustering>
</event>
<event>
 6    0  0.9315069E+002  0.1411440E+03  0.7546771E-02  0.1211798E+00
         21   -1    0    0  506  501  0.00000000000E+00  0.00000000000E+00  0.11166538983E+04  0.11166538983E+04  0.00000000000E+00 0.  1.
         21   -1    0    0  503  502 -0.00000000000E+00 -0.00000000000E+00 -0.87867009967E+02  0.87867009967E+02  0.00000000000E+00 0.  1.
         21    1    1    2  503  505 -0.16354444129E+02 -0.51403479089E+02  0.42324169251E+02  0.68564719849E+02  0.00000000000E+00 0.  1.
         21    1    1    2  504  502 -0.76297802448E+01  0.34100421426E+02  0.12012049175E+02  0.36950529270E+02  0.00000000000E+00 0.  1.
         21    1    1    2  505  501 -0.89885287169E+02 -0.70259056033E+02  0.62357535773E-01  0.11408638697E+03  0.00000000000E+00 0.  1.
         21    1    1    2  506  504  0.11386951154E+03  0.87562113697E+02  0.97438831238E+03  0.98491927218E+03  0.00000000000E+00 0.  1.
<scales pt_clust_3="48.78663" pt_clust_4="34.94356" pt_clust_5="14000.00000" pt_clust_6="141.14399"></scales>
<clustering>
<clus scale="   34.944">  2  4  1 -1</clus>
<clus scale="   48.787">  2  3  1 -1</clus>
<clus scale="  141.144">  1  6  2 -1</clus>
<clus scale="  141.144">  1  3  2 -1</clus>
</clustering>
</event>
<event>
 6    0  0.9315069E+002  0.7879157E+02  0.7546771E-02  0.1332516E+00
         21   -1    0    0  503  501  0.00000000000E+00  0.00000000000E+00  0.21353181790E+03  0.21353181790E+03  0.00000000000E+00 0. -1.
         21   -1    0    0  505  502 -0.00000000000E+00 -0.00000000000E+00 -0.18757647635E+03  0.18757647635E+03  0.00000000000E+00 0. -1.
         21    1    1    2  503  506 -0.53506174768E+02 -0.66183328759E+02  0.62726778806E+02  0.10572507992E+03  0.00000000000E+00 0. -1.
         21    1    1    2  504  501  0.82542388284E+02 -0.14998893189E+02  0.78911897087E+02  0.11517508482E+03  0.00000000000E+00 0. -1.
         21    1    1    2  505  504  0.19343411339E+02  0.84479763601E+02 -0.55475170885E+02  0.10290040138E+03  0.00000000000E+00 0. -1.
         21    1    1    2  506  502 -0.48379624855E+02 -0.32975416529E+01 -0.60208163462E+02  0.77307728136E+02  0.00000000000E+00 0. -1.
<scales pt_clust_3="78.79157" pt_clust_4="76.74175" pt_clust_5="14000.00000" pt_clust_6="48.49187"></scales>
<clustering>
<clus scale="   48.492">  2  6  1 -1</clus>
<clus scale="   76.742">  1  4  2 -1</clus>
<clus scale="   78.792">  1  3  2 -1</clus>
<clus scale="   76.742">  1  3  2 -1</clus>
</clustering>
</event>
<event>
 6    0  0.9315069E+002  0.7106726E+02  0.7546771E-02  0.1356501E+00
         21   -1    0    0  504  501  0.00000000000E+00  0.00000000000E+00  0.23973744726E+03  0.23973744726E+03  0.00000000000E+00 0.  1.
         21   -1    0    0  503  502 -0.00000000000E+00 -0.00000000000E+00 -0.14918865865E+04  0.14918865865E+04  0.00000000000E+00 0.  1.
         21    1    1    2  503  505 -0.60173445591E+02 -0.11154766096E+03 -0.12676573025E+04  0.12739775355E+04  0.00000000000E+00 0.  1.
         21    1    1    2  504  502  0.18431479865E+02  0.48006363814E+02 -0.19062964073E+03  0.19744363839E+03  0.00000000000E+00 0.  1.
         21    1    1    2  505  506  0.19525558393E+02  0.40471308919E+02 -0.62907538856E+01  0.45373426811E+02  0.00000000000E+00 0.  1.
         21    1    1    2  506  501  0.22216407333E+02  0.23069988229E+02  0.21242855790E+03  0.21482943309E+03  0.00000000000E+00 0.  1.
<scales pt_clust_3="71.06726" pt_clust_4="55.29660" pt_clust_5="14000.00000" pt_clust_6="32.02801"></scales>
<clustering>
<clus scale="   32.028">  1  6  2 -1</clus>
<clus scale="   55.297">  2  4  1 -1</clus>
<clus scale="   71.067">  2  3  1 -1</clus>
<clus scale="   32.028">  1  3  2 -1</clus>
</clustering>
</event>
<event>
 6    0  0.9315069E+002  0.1782350E+03  0.7546771E-02  0.1169522E+00
         21   -1    0    0  505  501  0.00000000000E+00  0.00000000000E+00  0.76420614881E+03  0.76420614881E+03  0.00000000000E+00 0. -1.
         21   -1    0    0  504  502 -0.00000000000E+00 -0.00000000000E+00 -0.68935217700E+03  0.68935217700E+03  0.00000000000E+00 0. -1.
         21    1    1    2  503  502  0.47563371111E+02 -0.10299037806E+01 -0.59649211605E+03  0.59838631292E+03  0.00000000000E+00 0. -1.
         21    1    1    2  504  506  0.14703720456E+03  0.98242344202E+01  0.49872035339E+02  0.15557530336E+03  0.00000000000E+00 0.  1.
         21    1    1    2  505  503 -0.22996417635E+02  0.70827262761E+02  0.32978876760E+02  0.81442879902E+02  0.00000000000E+00 0. -1.
         21    1    1    2  506  501 -0.17160415803E+03 -0.79621593401E+02  0.58849517576E+03  0.61815382963E+03  0.00000000000E+00 0. -1.
<scales pt_clust_3="47.57452" pt_clust_4="14000.00000" pt_clust_5="71.32641" pt_clust_6="178.23499"></scales>
<clustering>
<clus scale="   47.575">  2  3  1 -1</clus>
<clus scale="   71.326">  2  5  1 -1</clus>
<clus scale="  178.235">  1  6  2 -1</clus>
<clus scale="  178.235">  1  3  2 -1</clus>
</clustering>
</event>
<event>
 6    0  0.9315069E+002  0.1117926E+03  0.7546771E-02  0.1257286E+00
         21   -1    0    0  504  501  0.00000000000E+00  0.00000000000E+00  0.15604949530E+03  0.15604949530E+03  0.00000000000E+00 0.  1.
         21   -1    0    0  503  502 -0.00000000000E+00 -0.00000000000E+00 -0.95892487885E+03  0.95892487885E+03  0.00000000000E+00 0. -1.
         21    1    1    2  503  505  0.31094244718E+02  0.77642228791E+01 -0.75094303480E+03  0.75162662055E+03  0.00000000000E+00 0. -1.
         21    1    1    2  504  502 -0.11803771868E+02  0.11798784071E+03 -0.14520196572E+03  0.18746751834E+03  0.00000000000E+00 0.  1.
         21    1    1    2  505  506 -0.20620336958E+02 -0.84991317696E+02  0.16570787938E+02  0.89012995640E+02  0.00000000000E+00 0.  1.
         21    1    1    2  506  501  0.13298641083E+01 -0.40760745893E+02  0.76698829027E+02  0.86867239616E+02  0.00000000000E+00 0.  1.
<scales pt_clust_3="32.04895" pt_clust_4="14000.00000" pt_clust_5="111.79263" pt_clust_6="40.62449"></scales>
<clustering>
<clus scale="   32.049">  2  3  1 -1</clus>
<clus scale="   40.624">  1  6  2 -1</clus>
<clus scale="  111.793">  1  5  2 -1</clus>
<clus scale="   40.624">  1  3  2 -1</clus>
</clustering>
</event>
<event>
 6    0  0.9315069E+002  0.5244937E+03  0.7546771E-02  0.1007576E+00
         21   -1    0    0  506  501  0.00000000000E+00  0.00000000000E+00  0.85021841309E+03  0.85021841309E+03  0.00000000000E+00 0.  1.
         21   -1    0    0  505  502 -0.00000000000E+00 -0.00000000000E+00 -0.11641471139E+04  0.11641471139E+04  0.00000000000E+00 0.  1.
         21    1    1    2  503  501  0.45328263442E+03 -0.27894137134E+03  0.43449576296E+03  0.68706622923E+03  0.00000000000E+00 0.  1.
         21    1    1    2  504  502 -0.18698957733E+03  0.17189166866E+03  0.15403301935E+02  0.25445846320E+03  0.00000000000E+00 0.  1.
         21    1    1    2  505  503 -0.45483510186E+02  0.50150382348E+01 -0.82156455352E+03  0.82283790378E+03  0.00000000000E+00 0.  1.
         21    1    1    2  506  504 -0.22080954691E+03  0.10203466445E+03  0.57736787778E+02  0.25000293082E+03  0.00000000000E+00 0.  1.
<scales pt_clust_3="517.00829" pt_clust_4="86.36067" pt_clust_5="45.75916" pt_clust_6="86.36067"></scales>
<clustering>
<clus scale="   45.759">  2  5  1 -1</clus>
<clus scale="   86.361">  4  6 -1 -1</clus>
<clus scale="  517.008">  1  3  2 -1</clus>
<clus scale="  517.008">  1  3  2 -1</clus>
</clustering>
</event>
<event>
 6    0  0.9315069E+002  0.1870625E+03  0.7546771E-02  0.1161138E+00
         21   -1    0    0  503  501  0.00000000000E+00  0.00000000000E+00  0.23445754409E+04  0.23445754409E+04  0.00000000000E+00 0.  1.
         21   -1    0    0  506  502 -0.00000000000E+00 -0.00000000000E+00 -0.22795229187E+03  0.22795229187E+03  0.00000000000E+00 0. -1.
         21    1    1    2  503  505 -0.95173765693E+02  0.57138396445E+02  0.14671262067E+04  0.14713198661E+04  0.00000000000E+00 0.  1.
         21    1    1    2  504  501  0.10897105233E+03  0.13789548695E+03  0.50894829189E+03  0.53844054396E+03  0.00000000000E+00 0.  1.
         21    1    1    2  505  502 -0.45080228396E+02 -0.50196614812E+01  0.30571816418E+03  0.30906475034E+03  0.00000000000E+00 0.  1.
         21    1    1    2  506  504  0.31282941764E+02 -0.19001422191E+03 -0.16516951372E+03  0.25370257239E+03  0.00000000000E+00 0. -1.
<scales pt_clust_3="163.68329" pt_clust_4="187.06250" pt_clust_5="42.42385" pt_clust_6="14000.00000"></scales>
<clustering>
<clus scale="   42.424">  3  5 -1 -1</clus>
<clus scale="  163.683">  1  3  2 -1</clus>
<clus scale="  187.063">  1  4  2 -1</clus>
<clus scale="  163.683">  1  3  2 -1</clus>
</clustering>
</event>
<event>
 6    0  0.9315069E+002  0.8794290E+02  0.7546771E-02  0.1307911E+00
         21   -1    0    0  505  501  0.00000000000E+00  0.00000000000E+00  0.27798519849E+03  0.27798519849E+03  0.00000000000E+00 0.  1.
         21   -1    0    0  503  502 -0.00000000000E+00 -0.00000000000E+00 -0.25257828273E+03  0.25257828273E+03  0.00000000000E+00 0. -1.
         21    1    1    2  503  504  0.71568660257E+02  0.14471894835E+02 -0.11780675596E+03  0.13859993009E+03  0.00000000000E+00 0. -1.
         21    1    1    2  504  501  0.46471052054E+02  0.38063026019E+02  0.18602610526E+03  0.19548417958E+03  0.00000000000E+00 0.  1.
         21    1    1    2  505  506  0.18202713348E+01  0.33419584072E+02  0.16732913001E+02  0.37418877118E+02  0.00000000000E+00 0. -1.
         21    1    1    2  506  502 -0.11985998365E+03 -0.85954504926E+02 -0.59545346536E+02  0.15906049444E+03  0.00000000000E+00 0. -1.
<scales pt_clust_3="73.37785" pt_clust_4="14000.00000" pt_clust_5="33.46912" pt_clust_6="87.94290"></scales>
<clustering>
<clus scale="   33.469">  1  5  2 -1</clus>
<clus scale="   73.378">  2  3  1 -1</clus>
<clus scale="   87.943">  2  6  1 -1</clus>
<clus scale="   33.469">  1  3  2 -1</clus>
</clustering>
</event>
<event>
 6    0  0.9315069E+002  0.9559362E+02  0.7546771E-02  0.1289845E+00
         21   -1    0    0  503  501  0.00000000000E+00  0.00000000000E+00  0.94909738478E+03  0.94909738478E+03  0.00000000000E+00 0. -1.
         21   -1    0    0  504  502 -0.00000000000E+00 -0.00000000000E+00 -0.40737353326E+03  0.40737353326E+03  0.00000000000E+00 0.  1.
         21    1    1    2  503  502 -0.64987731296E+02 -0.10564495794E+03 -0.65172809366E+01  0.12420441743E+03  0.00000000000E+00 0.  1.
         21    1    1    2  504  505 -0.12212110979E+02  0.81450748882E+02 -0.29327080206E+03  0.30461635460E+03  0.00000000000E+00 0.  1.
         21    1    1    2  505  506  0.11646843093E+03 -0.19264544162E+02  0.40954890938E+02  0.12495327589E+03  0.00000000000E+00 0.  1.
         21    1    1    2  506  501 -0.39268588653E+02  0.43458753223E+02  0.80055704358E+03  0.80269687013E+03  0.00000000000E+00 0. -1.
<scales pt_clust_3="14000.00000" pt_clust_4="84.24761" pt_clust_5="95.59362" pt_clust_6="58.57205"></scales>
<clustering>
<clus scale="   58.572">  1  6  2 -1</clus>
<clus scale="   84.248">  2  4  1 -1</clus>
<clus scale="   95.594">  1  5  2 -1</clus>
<clus scale="   58.572">  1  3  2 -1</clus>
</clustering>
</event>
<event>
 6    0  0.9315069E+002  0.2312240E+03  0.7546771E-02  0.1125781E+00
         21   -1    0    0  503  501  0.00000000000E+00  0.00000000000E+00  0.16920494724E+03  0.16920494724E+03  0.00000000000E+00 0. -1.
         21   -1    0    0  505  502 -0.00000000000E+00 -0.00000000000E+00 -0.29133499652E+04  0.29133499652E+04  0.00000000000E+00 0. -1.
         21    1    1    2  503  506 -0.99044016619E+01 -0.23033360631E+03  0.73057432671E+02  0.24184510712E+03  0.00000000000E+00 0. -1.
         21    1    1    2  504  502  0.76652739358E+02  0.99532004245E+02 -0.62597375454E+03  0.63845548294E+03  0.00000000000E+00 0. -1.
         21    1    1    2  505  501 -0.97234616671E+02  0.44920955253E+02 -0.16443380555E+04  0.16478228375E+04  0.00000000000E+00 0. -1.
         21    1    1    2  506  504  0.30486278975E+02  0.85880646813E+02 -0.54689064058E+03  0.55443148491E+03  0.00000000000E+00 0. -1.
<scales pt_clust_3="227.93140" pt_clust_4="33.11613" pt_clust_5="107.10958" pt_clust_6="33.11613"></scales>
<clustering>
<clus scale="   33.116">  4  6 -1 -1</clus>
<clus scale="  107.110">  2  5  1 -1</clus>
<clus scale="  227.931">  1  3  2 -1</clus>
<clus scale="  227.931">  1  3  2 -1</clus>
</clustering>
</event>
<event>
 6    0  0.9315069E+002  0.1080737E+03  0.7546771E-02  0.1264179E+00
         21   -1    0    0  506  501  0.00000000000E+00  0.00000000000E+00  0.13768839020E+04  0.13768839020E+04  0.00000000000E+00 0. -1.
         21   -1    0    0  503  502 -0.00000000000E+00 -0.00000000000E+00 -0.12317622565E+03  0.12317622565E+03  0.00000000000E+00 0. -1.
         21    1    1    2  503  505 -0.63704701308E+02  0.44376870941E+02 -0.87067155134E+02  0.11665455476E+03  0.00000000000E+00 0. -1.
         21    1    1    2  504  501  0.48819318542E+02  0.13449910364E+01  0.51610385331E+02  0.71054674285E+02  0.00000000000E+00 0. -1.
         21    1    1    2  505  504  0.46174265317E+02  0.48194767045E+02  0.10741483723E+03  0.12646242764E+03  0.00000000000E+00 0.  1.
         21    1    1    2  506  502 -0.31288882551E+02 -0.93916629022E+02  0.11817496089E+04  0.11858884710E+04  0.00000000000E+00 0. -1.
<scales pt_clust_3="77.63759" pt_clust_4="40.53943" pt_clust_5="40.53943" pt_clust_6="97.12836"></scales>
<clustering>
<clus scale="   40.539">  4  5 -1 -1</clus>
<clus scale="   77.638">  2  3  1 -1</clus>
<clus scale="   97.128">  1  6  2 -1</clus>
<clus scale="   97.128">  1  3  2 -1</clus>
</clustering>
</event>
<event>
 6    0  0.9315069E+002  0.2347791E+03  0.7546771E-02  0.1123321E+00
         21   -1    0    0  505  501  0.00000000000E+00  0.00000000000E+00  0.15556989887E+03  0.15556989887E+03  0.00000000000E+00 0. -1.
         21   -1    0    0  504  502 -0.00000000000E+00 -0.00000000000E+00 -0.18459835337E+04  0.18459835337E+04  0.00000000000E+00 0.  1.
         21    1    1    2  503  502  0.52545291450E+02  0.21095205432E+03 -0.16049739481E+04  0.16196305601E+04  0.00000000000E+00 0.  1.
         21    1    1    2  504  506  0.14589701174E+02 -0.27297113630E+02 -0.41785600819E+01  0.31232229463E+02  0.00000000000E+00 0. -1.
         21    1    1    2  505  503  0.15243126192E+02  0.27862890580E+02  0.70714589301E+02  0.77519331186E+02  0.00000000000E+00 0. -1.
         21    1    1    2  506  501 -0.82378118816E+02 -0.21151783127E+03 -0.15197571591E+03  0.27317131187E+03  0.00000000000E+00 0. -1.
<scales pt_clust_3="220.16290" pt_clust_4="30.11125" pt_clust_5="31.75994" pt_clust_6="30.11125"></scales>
<clustering>
<clus scale="   30.111">  4  6 -1 -1</clus>
<clus scale="   31.760">  1  5  2 -1</clus>
<clus scale="  220.163">  2  3  1 -1</clus>
<clus scale="   31.760">  1  3  2 -1</clus>
</clustering>
</event>
<event>
 6    0  0.9315069E+002  0.1683296E+03  0.7546771E-02  0.1179601E+00
         21   -1    0    0  503  501  0.00000000000E+00  0.00000000000E+00  0.11723459539E+04  0.11723459539E+04  0.00000000000E+00 0. -1.
         21   -1    0    0  504  502 -0.00000000000E+00 -0.00000000000E+00 -0.19660594861E+03  0.19660594861E+03  0.00000000000E+00 0. -1.
         21    1    1    2  503  506  0.85179577236E+02 -0.13842115283E+02 -0.13567124729E+03  0.16079133022E+03  0.00000000000E+00 0. -1.
         21    1    1    2  504  505  0.12990866546E+02  0.54675031796E+02  0.25085738580E+02  0.61541985633E+02  0.00000000000E+00 0. -1.
         21    1    1    2  505  501 -0.16905341202E+03 -0.34115166638E+02  0.10547054584E+04  0.10687125454E+04  0.00000000000E+00 0. -1.
         21    1    1    2  506  502  0.70882968237E+02 -0.67177498746E+01  0.31620055614E+02  0.77906041271E+02  0.00000000000E+00 0. -1.
<scales pt_clust_3="14000.00000" pt_clust_4="56.19717" pt_clust_5="168.32964" pt_clust_6="72.56940"></scales>
<clustering>
<clus scale="   56.197">  2  4  1 -1</clus>
<clus scale="   72.569">  2  6  1 -1</clus>
<clus scale="  168.330">  1  5  2 -1</clus>
<clus scale="  168.330">  1  3  2 -1</clus>
</clustering>
</event>
<event>
 6    0  0.9315069E+002  0.1299322E+03  0.7546771E-02  0.1227556E+00
         21   -1    0    0  505  501  0.00000000000E+00  0.00000000000E+00  0.10159433300E+04  0.10159433300E+04  0.00000000000E+00 0. -1.
         21   -1    0    0  506  502 -0.00000000000E+00 -0.00000000000E+00 -0.50656972669E+02  0.50656972669E+02  0.00000000000E+00 0. -1.
         21    1    1    2  503  502  0.38559061036E+02 -0.58711335190E+02  0.85108082722E+02  0.11035038655E+03  0.00000000000E+00 0. -1.
         21    1    1    2  504  503 -0.66884736967E+02 -0.44495419260E+02  0.13916233394E+03  0.16068467743E+03  0.00000000000E+00 0. -1.
         21    1    1    2  505  504 -0.11564183109E+03  0.69411600554E+02  0.43962776579E+03  0.45985168897E+03  0.00000000000E+00 0. -1.
         21    1    1    2  506  501  0.14396750702E+03  0.33795153896E+02  0.30138817484E+03  0.33571354968E+03  0.00000000000E+00 0. -1.
<scales pt_clust_3="70.24117" pt_clust_4="82.86870" pt_clust_5="129.93220" pt_clust_6="14000.00000"></scales>
<clustering>
<clus scale="   70.241">  2  3  1 -1</clus>
<clus scale="   82.869">  2  4  1 -1</clus>
<clus scale="  129.932">  1  5  2 -1</clus>
<clus scale="  129.932">  1  3  2 -1</clus>
</clustering>
</event>
<event>
 6    0  0.9315069E+002  0.9201725E+02  0.7546771E-02  0.1298039E+00
         21   -1    0    0  504  501  0.00000000000E+00  0.00000000000E+00  0.13758922847E+03  0.13758922847E+03  0.00000000000E+00 0. -1.
         21   -1    0    0  503  502 -0.00000000000E+00 -0.00000000000E+00 -0.17474374716E+03  0.17474374716E+03  0.00000000000E+00 0. -1.
         21    1    1    2  503  506  0.29860188894E+02 -0.40921254083E+02 -0.46090941518E+02  0.68487625207E+02  0.00000000000E+00 0. -1.
         21    1    1    2  504  505  0.39517226635E+00  0.10876436402E+03  0.21927897045E+02  0.11095348445E+03  0.00000000000E+00 0. -1.
         21    1    1    2  505  502 -0.46786083156E+02  0.10033384384E+02 -0.22200990010E+02  0.52749315983E+02  0.00000000000E+00 0. -1.
         21    1    1    2  506  501  0.16530721995E+02 -0.77876494326E+02  0.92095157974E+01  0.80142549993E+02  0.00000000000E+00 0. -1.
<scales pt_clust_3="38.15970" pt_clust_4="14000.00000" pt_clust_5="47.84983" pt_clust_6="92.01725"></scales>
<clustering>
<clus scale="   47.850">  2  5  1 -1</clus>
<clus scale="   38.160">  2  3  1 -1</clus>
<clus scale="   92.017">  1  6  2 -1</clus>
<clus scale="   92.017">  1  3  2 -1</clus>
</clustering>
</event>
<event>
 6    0  0.9315069E+002  0.9358157E+02  0.7546771E-02  0.1294403E+00
         21   -1    0    0  503  501  0.00000000000E+00  0.00000000000E+00  0.24992584924E+03  0.24992584924E+03  0.00000000000E+00 0.  1.
         21   -1    0    0  504  502 -0.00000000000E+00 -0.00000000000E+00 -0.10980199006E+04  0.10980199006E+04  0.00000000000E+00 0. -1.
         21    1    1    2  503  502 -0.62425069817E+01 -0.13069470768E+03 -0.22610535668E+03  0.26123496670E+03  0.00000000000E+00 0. -1.
         21    1    1    2  504  506 -0.18352185885E+02  0.40846213557E+02 -0.74391161625E+03  0.74525814902E+03  0.00000000000E+00 0. -1.
         21    1    1    2  505  501 -0.57639127610E+02  0.48641796743E+02  0.20442425736E+03  0.21789348412E+03  0.00000000000E+00 0.  1.
         21    1    1    2  506  505  0.82233820477E+02  0.41206697380E+02 -0.82501335752E+02  0.12355914997E+03  0.00000000000E+00 0. -1.
<scales pt_clust_3="14000.00000" pt_clust_4="44.77964" pt_clust_5="76.19089" pt_clust_6="93.58157"></scales>
<clustering>
<clus scale="   44.780">  2  4  1 -1</clus>
<clus scale="   76.191">  1  5  2 -1</clus>
<clus scale="   93.582">  1  6  2 -1</clus>
<clus scale="   76.191">  1  3  2 -1</clus>
</clustering>
</event>
<event>
 6    0  0.9315069E+002  0.1215460E+03  0.7546771E-02  0.1240568E+00
         21   -1    0    0  505  501  0.00000000000E+00  0.00000000000E+00  0.22159150696E+02  0.22159150696E+02  0.00000000000E+00 0.  1.
         21   -1    0    0  503  502 -0.00000000000E+00 -0.00000000000E+00 -0.14120692262E+04  0.14120692262E+04  0.00000000000E+00 0. -1.
         21    1    1    2  503  504 -0.71144425025E+02 -0.81820961842E+02 -0.89547671523E+03  0.90201704337E+03  0.00000000000E+00 0. -1.
         21    1    1    2  504  501 -0.65878701070E+01 -0.43568874758E+02 -0.12323459674E+03  0.13087556194E+03  0.00000000000E+00 0. -1.
         21    1    1    2  505  506  0.30681006379E+02  0.53066242296E+02 -0.10591915418E+03  0.12237735676E+03  0.00000000000E+00 0.  1.
         21    1    1    2  506  502  0.47051288753E+02  0.72323594304E+02 -0.26527960938E+03  0.27895841485E+03  0.00000000000E+00 0.  1.
<scales pt_clust_3="115.13673" pt_clust_4="44.06412" pt_clust_5="32.82827" pt_clust_6="32.82827"></scales>
<clustering>
<clus scale="   32.828">  5  6 -1 -1</clus>
<clus scale="   44.064">  1  4  2 -1</clus>
<clus scale="  115.137">  2  3  1 -1</clus>
<clus scale="   44.064">  1  3  2 -1</clus>
</clustering>
</event>
<event>
 6    0  0.9315069E+002  0.8696919E+02  0.7546771E-02  0.1310362E+00
         21   -1    0    0  506  501  0.00000000000E+00  0.00000000000E+00  0.14438007099E+04  0.14438007099E+04  0.00000000000E+00 0. -1.
         21   -1    0    0  505  502 -0.00000000000E+00 -0.00000000000E+00 -0.58902582340E+02  0.58902582340E+02  0.00000000000E+00 0.  1.
         21    1    1    2  503  504 -0.80020565317E+02  0.25361027179E+02  0.57453313454E+01  0.84139654180E+02  0.00000000000E+00 0.  1.
         21    1    1    2  504  502 -0.54710694964E+02 -0.15720363291E+02  0.49352323678E+02  0.75339510337E+02  0.00000000000E+00 0.  1.
         21    1    1    2  505  501  0.47970171295E+02 -0.13114041612E+01  0.10638065204E+03  0.11670347142E+03  0.00000000000E+00 0. -1.
         21    1    1    2  506  503  0.86761088986E+02 -0.83292597268E+01  0.12234198205E+04  0.12265206563E+04  0.00000000000E+00 0. -1.
<scales pt_clust_3="14000.00000" pt_clust_4="45.99870" pt_clust_5="47.98809" pt_clust_6="86.96919"></scales>
<clustering>
<clus scale="   47.988">  2  5  1 -1</clus>
<clus scale="   45.999">  2  4  1 -1</clus>
<clus scale="   86.969">  1  6  2 -1</clus>
<clus scale="   86.969">  1  3  2 -1</clus>
</clustering>
</event>
<event>
 6    0  0.9315069E+002  0.1296526E+03  0.7546771E-02  0.1227972E+00
         21   -1    0    0  504  501  0.00000000000E+00  0.00000000000E+00  0.52584475847E+03  0.52584475847E+03  0.00000000000E+00 0.  1.
         21   -1    0    0  505  502 -0.00000000000E+00 -0.00000000000E+00 -0.15150893048E+03  0.15150893048E+03  0.00000000000E+00 0.  1.
         21    1    1    2  503  506  0.40753559758E+02 -0.66883023802E+02 -0.81831066181E+02  0.11327186278E+03  0.00000000000E+00 0.  1.
         21    1    1    2  504  503 -0.46768883546E+02  0.86136272669E+02  0.39762014975E+03  0.40952236743E+03  0.00000000000E+00 0.  1.
         21    1    1    2  505  501 -0.49463973501E+02  0.27191225198E+02  0.59750414240E+02  0.82195860018E+02  0.00000000000E+00 0.  1.
         21    1    1    2  506  502  0.55479297288E+02 -0.46444474064E+02 -0.12036698217E+01  0.72363598720E+02  0.00000000000E+00 0.  1.
<scales pt_clust_3="14000.00000" pt_clust_4="129.65262" pt_clust_5="56.44508" pt_clust_6="68.02694"></scales>
<clustering>
<clus scale="   56.445">  1  5  2 -1</clus>
<clus scale="   68.027">  2  6  1 -1</clus>
<clus scale="  129.653">  1  4  2 -1</clus>
<clus scale="   56.445">  1  3  2 -1</clus>
</clustering>
</event>
<event>
 6    0  0.9315069E+002  0.9313002E+02  0.7546771E-02  0.1295444E+00
         21   -1    0    0  505  501  0.00000000000E+00  0.00000000000E+00  0.11788320681E+03  0.11788320681E+03  0.00000000000E+00 0.  1.
         21   -1    0    0  504  502 -0.00000000000E+00 -0.00000000000E+00 -0.23045670479E+03  0.23045670479E+03  0.00000000000E+00 0. -1.
         21    1    1    2  503  501 -0.31887538598E+02  0.85207787327E+00  0.56455893184E+02  0.64844498840E+02  0.00000000000E+00 0.  1.
         21    1    1    2  504  506  0.12214404339E+02 -0.29998986785E+02 -0.48887415873E+02  0.58643928179E+02  0.00000000000E+00 0. -1.
         21    1    1    2  505  502  0.79325037689E+02  0.78230257103E+02 -0.84199088669E+02  0.13964927949E+03  0.00000000000E+00 0. -1.
         21    1    1    2  506  503 -0.59651903430E+02 -0.49083348191E+02 -0.35942886629E+02  0.85202205087E+02  0.00000000000E+00 0.  1.
<scales pt_clust_3="31.89892" pt_clust_4="31.39697" pt_clust_5="93.13002" pt_clust_6="14000.00000"></scales>
<clustering>
<clus scale="   31.899">  1  3  2 -1</clus>
<clus scale="   31.397">  2  4  1 -1</clus>
<clus scale="   93.130">  2  5  1 -1</clus>
<clus scale="   31.899">  1  3  2 -1</clus>
</clustering>
</event>
<event>
 6    0  0.9315069E+002  0.9223146E+02  0.7546771E-02  0.1297536E+00
         21   -1    0    0  502  501  0.00000000000E+00  0.00000000000E+00  0.44307663946E+03  0.44307663946E+03  0.00000000000E+00 0.  1.
         21   -1    0    0  506  502 -0.00000000000E+00 -0.00000000000E+00 -0.98920989719E+03  0.98920989719E+03  0.00000000000E+00 0. -1.
         21    1    1    2  503  501 -0.16275538808E+02 -0.74124934991E+02  0.35732162166E+03  0.36529185654E+03  0.00000000000E+00 0.  1.
         21    1    1    2  504  503  0.32224968218E+02  0.33103594027E+02  0.28674339795E+02  0.54373838165E+02  0.00000000000E+00 0.  1.
         21    1    1    2  505  504  0.66615658541E+02  0.42596187859E+02 -0.22708215895E+01  0.79102704212E+02  0.00000000000E+00 0.  1.
         21    1    1    2  506  505 -0.82565087951E+02 -0.15748468957E+01 -0.92985839760E+03  0.93351813773E+03  0.00000000000E+00 0. -1.
<scales pt_clust_3="75.89071" pt_clust_4="30.75527" pt_clust_5="30.75527" pt_clust_6="82.99233"></scales>
<clustering>
<clus scale="   30.755">  4  5 -1 -1</clus>
<clus scale="   75.891">  1  3  2 -1</clus>
<clus scale="   82.992">  2  6  1 -1</clus>
<clus scale="   75.891">  1  3  2 -1</clus>
</clustering>
</event>
<event>
 6    0  0.9315069E+002  0.1242743E+03  0.7546771E-02  0.1236208E+00
         21   -1    0    0  506  501  0.00000000000E+00  0.00000000000E+00  0.21671552628E+03  0.21671552628E+03  0.00000000000E+00 0. -1.
         21   -1    0    0  503  502 -0.00000000000E+00 -0.00000000000E+00 -0.92464173267E+03  0.92464173267E+03  0.00000000000E+00 0. -1.
         21    1    1    2  503  505  0.49309530258E+01 -0.16049952866E+03 -0.80824359868E+03  0.82404012512E+03  0.00000000000E+00 0. -1.
         21    1    1    2  504  502  0.10572219412E+02  0.40967005256E+02 -0.50703383440E+02  0.66037114074E+02  0.00000000000E+00 0. -1.
         21    1    1    2  505  501 -0.15284416579E+02 -0.27298961330E+02 -0.10493578191E+02  0.32999422164E+02  0.00000000000E+00 0.  1.
         21    1    1    2  506  504 -0.21875585908E+00  0.14683148474E+03  0.16151435392E+03  0.21828059759E+03  0.00000000000E+00 0. -1.
<scales pt_clust_3="124.27426" pt_clust_4="41.18140" pt_clust_5="31.28653" pt_clust_6="14000.00000"></scales>
<clustering>
<clus scale="   31.287">  1  5  2 -1</clus>
<clus scale="   41.181">  2  4  1 -1</clus>
<clus scale="  124.274">  2  3  1 -1</clus>
<clus scale="   31.287">  1  3  2 -1</clus>
</clustering>
</event>
<event>
 6    0  0.9315069E+002  0.1413160E+03  0.7546771E-02  0.1211569E+00
         21   -1    0    0  505  501  0.00000000000E+00  0.00000000000E+00  0.15884986236E+04  0.15884986236E+04  0.00000000000E+00 0.  1.
         21   -1    0    0  504  502 -0.00000000000E+00 -0.00000000000E+00 -0.10623001710E+03  0.10623001710E+03  0.00000000000E+00 0.  1.
         21    1    1    2  503  501 -0.31546076760E+02  0.60962071343E+01  0.23693024793E+03  0.23909885212E+03  0.00000000000E+00 0. -1.
         21    1    1    2  504  506  0.41520077426E+02 -0.18403321836E+02 -0.59692847414E+02  0.75005567237E+02  0.00000000000E+00 0.  1.
         21    1    1    2  505  502  0.93473228129E+01 -0.14354301098E+03  0.11533647715E+04  0.11623004192E+04  0.00000000000E+00 0.  1.
         21    1    1    2  506  503 -0.19321323479E+02  0.15585012568E+03  0.15166643453E+03  0.21832380213E+03  0.00000000000E+00 0.  1.
<scales pt_clust_3="32.12972" pt_clust_4="45.23836" pt_clust_5="14000.00000" pt_clust_6="141.31601"></scales>
<clustering>
<clus scale="   32.130">  1  3  2 -1</clus>
<clus scale="   45.238">  2  4  1 -1</clus>
<clus scale="  141.316">  2  6  1 -1</clus>
<clus scale="   32.130">  1  3  2 -1</clus>
</clustering>
</event>
<event>
 6    0  0.9315069E+002  0.1161480E+03  0.7546771E-02  0.1249590E+00
         21   -1    0    0  503  501  0.00000000000E+00  0.00000000000E+00  0.11601643038E+03  0.11601643038E+03  0.00000000000E+00 0. -1.
         21   -1    0    0  504  502 -0.00000000000E+00 -0.00000000000E+00 -0.14489227916E+04  0.14489227916E+04  0.00000000000E+00 0. -1.
         21    1    1    2  503  502  0.33406284805E+02 -0.46670644873E+02  0.97857393662E+02  0.11344689706E+03  0.00000000000E+00 0. -1.
         21    1    1    2  504  506 -0.90344017937E+02 -0.55375209359E+02 -0.88773533231E+03  0.89403717798E+03  0.00000000000E+00 0. -1.
         21    1    1    2  505  501  0.57134715656E+02  0.56199515214E+02 -0.34919908174E+03  0.35827749013E+03  0.00000000000E+00 0. -1.
         21    1    1    2  506  505 -0.19698252371E+00  0.45846339018E+02 -0.19382934085E+03  0.19917765682E+03  0.00000000000E+00 0. -1.
<scales pt_clust_3="57.39450" pt_clust_4="106.15667" pt_clust_5="35.64586" pt_clust_6="35.64586"></scales>
<clustering>
<clus scale="   35.646">  5  6 -1 -1</clus>
<clus scale="   57.395">  1  3  2 -1</clus>
<clus scale="  106.157">  2  4  1 -1</clus>
<clus scale="   57.395">  1  3  2 -1</clus>
</clustering>
</event>
<event>
 6    0  0.9315069E+002  0.1488366E+03  0.7546771E-02  0.1201910E+00
         21   -1    0    0  503  501  0.00000000000E+00  0.00000000000E+00  0.11072744745E+03  0.11072744745E+03  0.00000000000E+00 0. -1.
         21   -1    0    0  506  502 -0.00000000000E+00 -0.00000000000E+00 -0.56754999289E+03  0.56754999289E+03  0.00000000000E+00 0. -1.
         21    1    1    2  503  505 -0.68756780357E+02 -0.73449159464E+02  0.37297212041E+02  0.10730030707E+03  0.00000000000E+00 0. -1.
         21    1    1    2  504  502  0.10875418975E+03  0.41842006563E+02 -0.42724891598E+03  0.44285422377E+03  0.00000000000E+00 0. -1.
         21    1    1    2  505  504 -0.48775847652E+02 -0.82810072905E+01  0.34053682299E+00  0.49474987228E+02  0.00000000000E+00 0. -1.
         21    1    1    2  506  501  0.87784382582E+01  0.39888160192E+02 -0.67211378323E+02  0.78647922273E+02  0.00000000000E+00 0. -1.
<scales pt_clust_3="36.22210" pt_clust_4="139.58574" pt_clust_5="36.22210" pt_clust_6="40.84270"></scales>
<clustering>
<clus scale="   36.222">  3  5 -1 -1</clus>
<clus scale="   40.843">  2  6  1 -1</clus>
<clus scale="  139.586">  2  4  1 -1</clus>
<clus scale="  148.837">  1  3  2 -1</clus>
</clustering>
</event>
<event>
 6    0  0.9315069E+002  0.9943781E+02  0.7546771E-02  0.1281483E+00
         21   -1    0    0  506  501  0.00000000000E+00  0.00000000000E+00  0.59323792338E+03  0.59323792338E+03  0.00000000000E+00 0.  1.
         21   -1    0    0  504  502 -0.00000000000E+00 -0.00000000000E+00 -0.14328138473E+03  0.14328138473E+03  0.00000000000E+00 0.  1.
         21    1    1    2  503  505 -0.20634016270E+02 -0.11949694693E+03  0.41457917191E+02  0.12815631803E+03  0.00000000000E+00 0.  1.
         21    1    1    2  504  503 -0.69048228713E+02  0.61665410152E+02 -0.65421875535E+02  0.11335917473E+03  0.00000000000E+00 0.  1.
         21    1    1    2  505  501  0.58694381847E+02  0.59999602367E+02  0.44403481020E+03  0.45189810291E+03  0.00000000000E+00 0.  1.
         21    1    1    2  506  502  0.30987863136E+02 -0.21680655924E+01  0.29885686797E+02  0.43105712446E+02  0.00000000000E+00 0.  1.
<scales pt_clust_3="99.43781" pt_clust_4="91.52227" pt_clust_5="14000.00000" pt_clust_6="31.06361"></scales>
<clustering>
<clus scale="   31.064">  1  6  2 -1</clus>
<clus scale="   91.522">  2  4  1 -1</clus>
<clus scale="   99.438">  2  3  1 -1</clus>
<clus scale="   31.064">  1  3  2 -1</clus>
</clustering>
</event>
<event>
 6    0  0.9315069E+002  0.1101604E+03  0.7546771E-02  0.1260273E+00
         21   -1    0    0  506  501  0.00000000000E+00  0.00000000000E+00  0.17149310726E+03  0.17149310726E+03  0.00000000000E+00 0. -1.
         21   -1    0    0  503  502 -0.00000000000E+00 -0.00000000000E+00 -0.11372874593E+04  0.11372874593E+04  0.00000000000E+00 0. -1.
         21    1    1    2  503  501 -0.63643708831E+02  0.32296910945E+02  0.11309986284E+03  0.13373552671E+03  0.00000000000E+00 0. -1.
         21    1    1    2  504  502  0.32922217158E+02  0.36321871265E+02 -0.88778110673E+03  0.88913353563E+03  0.00000000000E+00 0. -1.
         21    1    1    2  505  504  0.61835350656E+02 -0.10416092625E+03 -0.20372785209E+03  0.23701929640E+03  0.00000000000E+00 0.  1.
         21    1    1    2  506  505 -0.31113858983E+02  0.35542144035E+02  0.12614743921E+02  0.48892207842E+02  0.00000000000E+00 0.  1.
<scales pt_clust_3="110.16042" pt_clust_4="49.04859" pt_clust_5="14000.00000" pt_clust_6="47.23681"></scales>
<clustering>
<clus scale="   47.237">  1  6  2 -1</clus>
<clus scale="   49.049">  2  4  1 -1</clus>
<clus scale="  110.160">  1  3  2 -1</clus>
<clus scale="   47.237">  1  3  2 -1</clus>
</clustering>
</event>
<event>
 6    0  0.9315069E+002  0.1543958E+03  0.7546771E-02  0.1195173E+00
         21   -1    0    0  502  501  0.00000000000E+00  0.00000000000E+00  0.80832257029E+03  0.80832257029E+03  0.00000000000E+00 0. -1.
         21   -1    0    0  504  502 -0.00000000000E+00 -0.00000000000E+00 -0.63681824790E+02  0.63681824790E+02  0.00000000000E+00 0. -1.
         21    1    1    2  503  501  0.38173122119E+02  0.24198353729E+02  0.42476636653E+03  0.42716415312E+03  0.00000000000E+00 0. -1.
         21    1    1    2  504  506  0.90280754757E+02  0.90796812986E+02  0.11835940316E+03  0.17436635066E+03  0.00000000000E+00 0. -1.
         21    1    1    2  505  503 -0.44028233600E+02 -0.10127865803E+02  0.60566257967E+02  0.75560112651E+02  0.00000000000E+00 0. -1.
         21    1    1    2  506  505 -0.84425643276E+02 -0.10486730091E+03  0.14094871784E+03  0.19491377864E+03  0.00000000000E+00 0. -1.
<scales pt_clust_3="45.19677" pt_clust_4="144.96381" pt_clust_5="30.78175" pt_clust_6="30.78175"></scales>
<clustering>
<clus scale="   30.782">  5  6 -1 -1</clus>
<clus scale="   45.197">  1  3  2 -1</clus>
<clus scale="  144.964">  2  4  1 -1</clus>
<clus scale="   45.197">  1  3  2 -1</clus>
</clustering>
</event>
<event>
 6    0  0.9315069E+002  0.7085557E+02  0.7546771E-02  0.1357208E+00
         21   -1    0    0  503  501  0.00000000000E+00  0.00000000000E+00  0.12375802068E+04  0.12375802068E+04  0.00000000000E+00 0.  1.
         21   -1    0    0  506  502 -0.00000000000E+00 -0.00000000000E+00 -0.91786502597E+02  0.91786502597E+02  0.00000000000E+00 0.  1.
         21    1    1    2  503  504  0.40989511095E+02  0.74551365468E+02  0.90184481612E+03  0.90584883864E+03  0.00000000000E+00 0.  1.
         21    1    1    2  504  502  0.54557624222E+02 -0.35672612955E+02  0.10001758141E+03  0.11938419605E+03  0.00000000000E+00 0.  1.
         21    1    1    2  505  501 -0.62899231963E+02 -0.18154645225E+01  0.21137248468E+03  0.22054010196E+03  0.00000000000E+00 0.  1.
         21    1    1    2  506  505 -0.32647903354E+02 -0.37063287991E+02 -0.67441178014E+02  0.83593572732E+02  0.00000000000E+00 0.  1.
<scales pt_clust_3="70.85557" pt_clust_4="67.57855" pt_clust_5="14000.00000" pt_clust_6="49.39203"></scales>
<clustering>
<clus scale="   49.392">  2  6  1 -1</clus>
<clus scale="   67.579">  2  4  1 -1</clus>
<clus scale="   70.856">  1  3  2 -1</clus>
<clus scale="   70.856">  1  3  2 -1</clus>
</clustering>
</event>
<event>
 6    0  0.9315069E+002  0.1612504E+03  0.7546771E-02  0.1187292E+00
         21   -1    0    0  504  501  0.00000000000E+00  0.00000000000E+00  0.81541011361E+03  0.81541011361E+03  0.00000000000E+00 0.  1.
         21   -1    0    0  505  502 -0.00000000000E+00 -0.00000000000E+00 -0.13198571756E+03  0.13198571756E+03  0.00000000000E+00 0.  1.
         21    1    1    2  503  502  0.94653511747E+02  0.14582225891E+02  0.64876386186E+02  0.11567572815E+03  0.00000000000E+00 0. -1.
         21    1    1    2  504  506 -0.70512302902E+02 -0.45741064351E+02  0.37327069348E+03  0.38261630969E+03  0.00000000000E+00 0.  1.
         21    1    1    2  505  501 -0.17875118756E+02  0.11257791422E+03 -0.62968922583E+02  0.13022439039E+03  0.00000000000E+00 0.  1.
         21    1    1    2  506  503 -0.62660900888E+01 -0.81419075758E+02  0.30824623897E+03  0.31887940294E+03  0.00000000000E+00 0.  1.
<scales pt_clust_3="95.77019" pt_clust_4="73.53950" pt_clust_5="142.95246" pt_clust_6="73.53950"></scales>
<clustering>
<clus scale="   73.540">  4  6 -1 -1</clus>
<clus scale="   95.770">  2  3  1 -1</clus>
<clus scale="  142.952">  2  5  1 -1</clus>
<clus scale="  161.250">  1  3  2 -1</clus>
</clustering>
</event>
<event>
 6    0  0.9315069E+002  0.9694369E+02  0.7546771E-02  0.1286857E+00
         21   -1    0    0  503  501  0.00000000000E+00  0.00000000000E+00  0.71024209093E+03  0.71024209093E+03  0.00000000000E+00 0.  1.
         21   -1    0    0  504  502 -0.00000000000E+00 -0.00000000000E+00 -0.37872687115E+03  0.37872687115E+03  0.00000000000E+00 0.  1.
         21    1    1    2  503  506 -0.28227971317E+02 -0.31134664593E+02  0.54393880671E+03  0.54555990610E+03  0.00000000000E+00 0.  1.
         21    1    1    2  504  501 -0.43301108321E+02  0.11224582224E+03  0.13699720212E+02  0.12108589070E+03  0.00000000000E+00 0.  1.
         21    1    1    2  505  502  0.95652712005E+02 -0.29514901306E+01 -0.29827502372E+03  0.31325092559E+03  0.00000000000E+00 0.  1.
         21    1    1    2  506  505 -0.24123632366E+02 -0.78159667516E+02  0.72151716584E+02  0.10907223969E+03  0.00000000000E+00 0.  1.
<scales pt_clust_3="42.02601" pt_clust_4="96.94369" pt_clust_5="94.47617" pt_clust_6="14000.00000"></scales>
<clustering>
<clus scale="   42.026">  1  3  2 -1</clus>
<clus scale="   94.476">  2  5  1 -1</clus>
<clus scale="   96.944">  2  4  1 -1</clus>
<clus scale="   42.026">  1  3  2 -1</clus>
</clustering>
</event>
<event>
 6    0  0.9315069E+002  0.6902842E+02  0.7546771E-02  0.1363428E+00
         21   -1    0    0  505  501  0.00000000000E+00  0.00000000000E+00  0.11213886324E+03  0.11213886324E+03  0.00000000000E+00 0. -1.
         21   -1    0    0  504  502 -0.00000000000E+00 -0.00000000000E+00 -0.34625037249E+03  0.34625037249E+03  0.00000000000E+00 0.  1.
         21    1    1    2  503  502 -0.17470550691E+02 -0.38783948290E+02 -0.54892457333E+02  0.69444918162E+02  0.00000000000E+00 0. -1.
         21    1    1    2  504  506  0.42674227296E+02  0.70216928394E+01 -0.15447867185E+03  0.16041837146E+03  0.00000000000E+00 0. -1.
         21    1    1    2  505  503 -0.57268493267E+02  0.88011850059E+02 -0.88745595266E+02  0.13748289621E+03  0.00000000000E+00 0.  1.
         21    1    1    2  506  501  0.32064816662E+02 -0.56249594608E+02  0.64005215196E+02  0.91043049891E+02  0.00000000000E+00 0. -1.
<scales pt_clust_3="42.53722" pt_clust_4="36.02671" pt_clust_5="14000.00000" pt_clust_6="69.02842"></scales>
<clustering>
<clus scale="   42.537">  2  3  1 -1</clus>
<clus scale="   36.027">  2  4  1 -1</clus>
<clus scale="   69.028">  1  6  2 -1</clus>
<clus scale="   69.028">  1  3  2 -1</clus>
</clustering>
</event>
<event>
 6    0  0.9315069E+002  0.1197225E+03  0.7546771E-02  0.1243556E+00
         21   -1    0    0  506  501  0.00000000000E+00  0.00000000000E+00  0.97539017549E+02  0.97539017549E+02  0.00000000000E+00 0.  1.
         21   -1    0    0  503  502 -0.00000000000E+00 -0.00000000000E+00 -0.90751691407E+03  0.90751691407E+03  0.00000000000E+00 0. -1.
         21    1    1    2  503  504 -0.52222502459E+02  0.24537131647E+02 -0.14224781870E+03  0.15350473125E+03  0.00000000000E+00 0. -1.
         21    1    1    2  504  505 -0.12000388786E+02  0.54568940731E+02 -0.84920953504E+02  0.10165307161E+03  0.00000000000E+00 0. -1.
         21    1    1    2  505  501  0.48903602409E+01 -0.10907812065E+03  0.45350445500E+02  0.11823119273E+03  0.00000000000E+00 0.  1.
         21    1    1    2  506  502  0.59332531004E+02  0.29972048272E+02 -0.62815956982E+03  0.63166693603E+03  0.00000000000E+00 0. -1.
<scales pt_clust_3="54.94359" pt_clust_4="54.94359" pt_clust_5="105.90544" pt_clust_6="66.47310"></scales>
<clustering>
<clus scale="   54.944">  3  4 -1 -1</clus>
<clus scale="   66.473">  2  6  1 -1</clus>
<clus scale="  105.905">  1  5  2 -1</clus>
<clus scale="  105.905">  1  3  2 -1</clus>
</clustering>
</event>
<event>
 6    0  0.9315069E+002  0.8558540E+02  0.7546771E-02  0.1313909E+00
         21   -1    0    0  505  501  0.00000000000E+00  0.00000000000E+00  0.42085154783E+02  0.42085154783E+02  0.00000000000E+00 0. -1.
         21   -1    0    0  503  502 -0.00000000000E+00 -0.00000000000E+00 -0.54047073944E+03  0.54047073944E+03  0.00000000000E+00 0. -1.
         21    1    1    2  503  506 -0.33424466355E+02 -0.17058480867E+02 -0.16859415958E+03  0.17271993910E+03  0.00000000000E+00 0. -1.
         21    1    1    2  504  501  0.78272822704E+02 -0.23361899160E+02 -0.53091876928E+02  0.97422587228E+02  0.00000000000E+00 0. -1.
         21    1    1    2  505  502  0.31081553487E+02 -0.27751656920E+02 -0.10054894399E+03  0.10884074405E+03  0.00000000000E+00 0. -1.
         21    1    1    2  506  504 -0.75929909836E+02  0.68172036947E+02 -0.17615060417E+03  0.20357262384E+03  0.00000000000E+00 0. -1.
<scales pt_clust_3="37.52581" pt_clust_4="85.58540" pt_clust_5="39.10115" pt_clust_6="14000.00000"></scales>
<clustering>
<clus scale="   37.526">  2  3  1 -1</clus>
<clus scale="   39.101">  2  5  1 -1</clus>
<clus scale="   85.585">  1  4  2 -1</clus>
<clus scale="   85.585">  1  3  2 -1</clus>
</clustering>
</event>
<event>
 6    0  0.1852428E+003  0.1251989E+03  0.7546771E-02  0.1234759E+00
         21   -1    0    0  504  501  0.00000000000E+00  0.00000000000E+00  0.10125682182E+04  0.10125682182E+04  0.00000000000E+00 0.  1.
         21   -1    0    0  503  502 -0.00000000000E+00 -0.00000000000E+00 -0.43583580817E+03  0.43583580817E+03  0.00000000000E+00 0.  1.
         21    1    1    2  503  501 -0.35148019372E+02 -0.18717956376E+02  0.29433061996E+02  0.49518181460E+02  0.00000000000E+00 0.  1.
         21    1    1    2  504  505  0.85837431870E+02 -0.13712845990E+02  0.62735990143E+03  0.63335341854E+03  0.00000000000E+00 0.  1.
         21    1    1    2  505  506  0.74927088670E+02  0.47327063719E+02  0.32724667962E+03  0.33903437716E+03  0.00000000000E+00 0.  1.
         21    1    1    2  506  502 -0.12561650117E+03 -0.14896261353E+02 -0.40730723298E+03  0.42649804924E+03  0.00000000000E+00 0.  1.
<scales pt_clust_3="39.82142" pt_clust_4="68.15648" pt_clust_5="14000.00000" pt_clust_6="125.19889"></scales>
<clustering>
<clus scale="   39.821">  1  3  2 -1</clus>
<clus scale="   68.156">  1  4  2 -1</clus>
<clus scale="  125.199">  2  6  1 -1</clus>
<clus scale="   39.821">  1  3  2 -1</clus>
</clustering>
</event>
<event>
 6    0  0.9315069E+002  0.1003606E+03  0.7546771E-02  0.1279539E+00
         21   -1    0    0  504  501  0.00000000000E+00  0.00000000000E+00  0.19921802761E+03  0.19921802761E+03  0.00000000000E+00 0. -1.
         21   -1    0    0  503  502 -0.00000000000E+00 -0.00000000000E+00 -0.25006192228E+04  0.25006192228E+04  0.00000000000E+00 0.  1.
         21    1    1    2  503  505  0.21377788742E+02 -0.70238061171E+02 -0.23936486565E+04  0.23947743706E+04  0.00000000000E+00 0.  1.
         21    1    1    2  504  506 -0.68768933146E+02 -0.25288607158E+02  0.92675749760E+02  0.11814175558E+03  0.00000000000E+00 0. -1.
         21    1    1    2  505  501 -0.33487076861E+02 -0.12943178414E+02 -0.31877060519E+02  0.48011010940E+02  0.00000000000E+00 0.  1.
         21    1    1    2  506  502  0.80878221265E+02  0.10846984674E+03  0.31448772055E+02  0.13891011335E+03  0.00000000000E+00 0. -1.
<scales pt_clust_3="73.42714" pt_clust_4="100.36059" pt_clust_5="35.90140" pt_clust_6="14000.00000"></scales>
<clustering>
<clus scale="   35.901">  1  5  2 -1</clus>
<clus scale="   73.427">  2  3  1 -1</clus>
<clus scale="  100.361">  1  4  2 -1</clus>
<clus scale="   35.901">  1  3  2 -1</clus>
</clustering>
</event>
<event>
 6    0  0.9315069E+002  0.2241950E+03  0.7546771E-02  0.1130794E+00
         21   -1    0    0  503  501  0.00000000000E+00  0.00000000000E+00  0.14132320288E+03  0.14132320288E+03  0.00000000000E+00 0.  1.
         21   -1    0    0  505  502 -0.00000000000E+00 -0.00000000000E+00 -0.34818575133E+03  0.34818575133E+03  0.00000000000E+00 0.  1.
         21    1    1    2  503  504  0.45179344858E+02  0.14356934113E+03 -0.52995799718E+02  0.15956780283E+03  0.00000000000E+00 0.  1.
         21    1    1    2  504  502  0.10495699764E+02  0.62942181805E+02 -0.75447104567E+02  0.98813680994E+02  0.00000000000E+00 0.  1.
         21    1    1    2  505  506 -0.51916228640E+02 -0.12545354571E+03 -0.56625860945E+02  0.14710667916E+03  0.00000000000E+00 0.  1.
         21    1    1    2  506  501 -0.37588159825E+01 -0.81057977226E+02 -0.21793783223E+02  0.84020791217E+02  0.00000000000E+00 0.  1.
<scales pt_clust_3="43.75986" pt_clust_4="43.75986" pt_clust_5="217.41726" pt_clust_6="30.17553"></scales>
<clustering>
<clus scale="   30.176">  5  6 -1 -1</clus>
<clus scale="   43.760">  3  4 -1 -1</clus>
<clus scale="  217.417">  1  5  2 -1</clus>
<clus scale="  217.417">  1  3  2 -1</clus>
</clustering>
</event>
<event>
 6    0  0.9315069E+002  0.2308006E+03  0.7546771E-02  0.1126078E+00
         21   -1    0    0  506  501  0.00000000000E+00  0.00000000000E+00  0.22704535964E+03  0.22704535964E+03  0.00000000000E+00 0.  1.
         21   -1    0    0  505  502 -0.00000000000E+00 -0.00000000000E+00 -0.12119044462E+04  0.12119044462E+04  0.00000000000E+00 0.  1.
         21    1    1    2  503  502  0.11493573570E+03  0.40004869049E+02  0.37731583235E+02  0.12741383465E+03  0.00000000000E+00 0. -1.
         21    1    1    2  504  501 -0.12105416346E+03 -0.13995409032E+03 -0.32512701464E+03  0.37409735837E+03  0.00000000000E+00 0.  1.
         21    1    1    2  505  504 -0.10122689058E+03  0.52643127434E+02 -0.78362580680E+03  0.79188862053E+03  0.00000000000E+00 0.  1.
         21    1    1    2  506  503  0.10734531835E+03  0.47306093837E+02  0.86162151625E+02  0.14554999230E+03  0.00000000000E+00 0.  1.
<scales pt_clust_3="45.28510" pt_clust_4="226.14464" pt_clust_5="114.09725" pt_clust_6="45.28510"></scales>
<clustering>
<clus scale="   45.285">  3  6 -1 -1</clus>
<clus scale="  114.097">  2  5  1 -1</clus>
<clus scale="  226.145">  2  4  1 -1</clus>
<clus scale="  230.801">  1  3  2 -1</clus>
</clustering>
</event>
<event>
 6    0  0.9315069E+002  0.4305964E+03  0.7546771E-02  0.1033672E+00
         21   -1    0    0  506  501  0.00000000000E+00  0.00000000000E+00  0.20240506025E+04  0.20240506025E+04  0.00000000000E+00 0.  1.
         21   -1    0    0  503  502 -0.00000000000E+00 -0.00000000000E+00 -0.28838399002E+03  0.28838399002E+03  0.00000000000E+00 0. -1.
         21    1    1    2  503  501  0.64520609309E+02  0.19918957704E+03 -0.11911112502E+03  0.24088764337E+03  0.00000000000E+00 0. -1.
         21    1    1    2  504  505  0.67967858920E+02 -0.29689460396E+02  0.13378418160E+03  0.15296830113E+03  0.00000000000E+00 0. -1.
         21    1    1    2  505  502 -0.36843899653E+03  0.11958477538E+03  0.44909536509E+03  0.59307205263E+03  0.00000000000E+00 0. -1.
         21    1    1    2  506  504  0.23595052830E+03 -0.28908489202E+03  0.12718981908E+04  0.13255065954E+04  0.00000000000E+00 0.  1.
<scales pt_clust_3="209.37860" pt_clust_4="56.32582" pt_clust_5="411.64503" pt_clust_6="56.32582"></scales>
<clustering>
<clus scale="   56.326">  4  6 -1 -1</clus>
<clus scale="  209.379">  2  3  1 -1</clus>
<clus scale="  411.645">  2  5  1 -1</clus>
<clus scale="  430.596">  1  3  2 -1</clus>
</clustering>
</event>
<event>
 6    0  0.9315069E+002  0.2336762E+03  0.7546771E-02  0.1124079E+00
         21   -1    0    0  503  501  0.00000000000E+00  0.00000000000E+00  0.36359652650E+04  0.36359652650E+04  0.00000000000E+00 0.  1.
         21   -1    0    0  505  502 -0.00000000000E+00 -0.00000000000E+00 -0.58458140950E+02  0.58458140950E+02  0.00000000000E+00 0. -1.
         21    1    1    2  503  504 -0.21051447167E+03  0.62556267397E+02  0.20045965471E+04  0.20165904260E+04  0.00000000000E+00 0.  1.
         21    1    1    2  504  502  0.23680683208E+03  0.18544698925E+02  0.23763393662E+03  0.33599296036E+03  0.00000000000E+00 0. -1.
         21    1    1    2  505  506 -0.45559799512E+02 -0.49442110955E+02  0.11904368296E+04  0.11923338722E+04  0.00000000000E+00 0.  1.
         21    1    1    2  506  501  0.19267439105E+02 -0.31658855367E+02  0.14483981069E+03  0.14950614734E+03  0.00000000000E+00 0. -1.
<scales pt_clust_3="233.67618" pt_clust_4="14000.00000" pt_clust_5="71.76288" pt_clust_6="37.06099"></scales>
<clustering>
<clus scale="   37.061">  1  6  2 -1</clus>
<clus scale="   71.763">  1  5  2 -1</clus>
<clus scale="  233.676">  1  3  2 -1</clus>
<clus scale="   37.061">  1  3  2 -1</clus>
</clustering>
</event>
<event>
 6    0  0.9315069E+002  0.1123866E+03  0.7546771E-02  0.1256213E+00
         21   -1    0    0  506  501  0.00000000000E+00  0.00000000000E+00  0.60569424942E+03  0.60569424942E+03  0.00000000000E+00 0.  1.
         21   -1    0    0  503  502 -0.00000000000E+00 -0.00000000000E+00 -0.31587197199E+03  0.31587197199E+03  0.00000000000E+00 0. -1.
         21    1    1    2  503  505  0.32659693680E+02  0.10833988771E+03 -0.26290345696E+03  0.28622091912E+03  0.00000000000E+00 0. -1.
         21    1    1    2  504  501 -0.29422184121E+02 -0.32721064584E+02  0.44733866934E+02  0.62749118215E+02  0.00000000000E+00 0. -1.
         21    1    1    2  505  504  0.73802181101E+02 -0.15451823620E+02  0.24441922535E+02  0.79264925191E+02  0.00000000000E+00 0. -1.
         21    1    1    2  506  502 -0.77039690660E+02 -0.60166999505E+02  0.48354994492E+03  0.49333125889E+03  0.00000000000E+00 0.  1.
<scales pt_clust_3="14000.00000" pt_clust_4="44.00378" pt_clust_5="73.41402" pt_clust_6="112.38665"></scales>
<clustering>
<clus scale="   44.004">  1  4  2 -1</clus>
<clus scale="   73.414">  1  5  2 -1</clus>
<clus scale="  112.387">  1  6  2 -1</clus>
<clus scale="   44.004">  1  3  2 -1</clus>
</clustering>
</event>
<event>
 6    0  0.9315069E+002  0.8603402E+02  0.7546771E-02  0.1312750E+00
         21   -1    0    0  505  501  0.00000000000E+00  0.00000000000E+00  0.76017375842E+02  0.76017375842E+02  0.00000000000E+00 0.  1.
         21   -1    0    0  503  502 -0.00000000000E+00 -0.00000000000E+00 -0.88292704622E+03  0.88292704622E+03  0.00000000000E+00 0.  1.
         21    1    1    2  503  504 -0.43489506254E+02 -0.17998018363E+02 -0.47269978319E+03  0.47503720996E+03  0.00000000000E+00 0.  1.
         21    1    1    2  504  506 -0.45894123907E+02  0.28931756125E+02 -0.17621527011E+03  0.18437770620E+03  0.00000000000E+00 0.  1.
         21    1    1    2  505  502  0.43391100769E+02  0.70330806048E+02 -0.18475418139E+03  0.20239396594E+03  0.00000000000E+00 0. -1.
         21    1    1    2  506  501  0.45992529392E+02 -0.81264543809E+02  0.26759564325E+02  0.97135539960E+02  0.00000000000E+00 0.  1.
<scales pt_clust_3="47.06661" pt_clust_4="86.03402" pt_clust_5="65.88848" pt_clust_6="14000.00000"></scales>
<clustering>
<clus scale="   47.067">  2  3  1 -1</clus>
<clus scale="   65.888">  2  5  1 -1</clus>
<clus scale="   86.034">  2  4  1 -1</clus>
<clus scale="   86.034">  1  3  2 -1</clus>
</clustering>
</event>
<event>
 6    0  0.9315069E+002  0.1392641E+03  0.7546771E-02  0.1214323E+00
         21   -1    0    0  503  501  0.00000000000E+00  0.00000000000E+00  0.10372820248E+03  0.10372820248E+03  0.00000000000E+00 0.  1.
         21   -1    0    0  506  502 -0.00000000000E+00 -0.00000000000E+00 -0.25274546758E+03  0.25274546758E+03  0.00000000000E+00 0.  1.
         21    1    1    2  503  504  0.43841824253E+02  0.70633466805E+02 -0.30996478178E+02  0.88724144663E+02  0.00000000000E+00 0.  1.
         21    1    1    2  504  502  0.51574914375E+02  0.17880295959E+02 -0.62974240959E+02  0.83339257260E+02  0.00000000000E+00 0.  1.
         21    1    1    2  505  501 -0.34700645604E+02  0.18029895702E+02  0.16490618080E+02  0.42439986204E+02  0.00000000000E+00 0.  1.
         21    1    1    2  506  505 -0.60716093024E+02 -0.10654365847E+03 -0.71537164050E+02  0.14197028193E+03  0.00000000000E+00 0.  1.
<scales pt_clust_3="48.46871" pt_clust_4="48.46871" pt_clust_5="39.10514" pt_clust_6="124.73256"></scales>
<clustering>
<clus scale="   39.105">  1  5  2 -1</clus>
<clus scale="   48.469">  3  4 -1 -1</clus>
<clus scale="  124.733">  1  6  2 -1</clus>
<clus scale="   39.105">  1  3  2 -1</clus>
</clustering>
</event>
<event>
 6    0  0.9315069E+002  0.1281977E+03  0.7546771E-02  0.1230155E+00
         21   -1    0    0  504  501  0.00000000000E+00  0.00000000000E+00  0.80180566192E+03  0.80180566192E+03  0.00000000000E+00 0.  1.
         21   -1    0    0  503  502 -0.00000000000E+00 -0.00000000000E+00 -0.11763166290E+03  0.11763166290E+03  0.00000000000E+00 0.  1.
         21    1    1    2  503  506  0.38777688951E+02  0.10007412879E+02  0.31630095383E+02  0.51032542625E+02  0.00000000000E+00 0.  1.
         21    1    1    2  504  502 -0.77928402009E+02 -0.94206263584E+02  0.49461898031E+02  0.13188682760E+03  0.00000000000E+00 0.  1.
         21    1    1    2  505  501 -0.77049588249E+01 -0.40264001274E+02  0.60213021933E+03  0.60352411486E+03  0.00000000000E+00 0.  1.
         21    1    1    2  506  505  0.46855671883E+02  0.12446285198E+03  0.95178627434E+00  0.13299383974E+03  0.00000000000E+00 0.  1.
<scales pt_clust_3="40.04819" pt_clust_4="14000.00000" pt_clust_5="40.88472" pt_clust_6="128.19766"></scales>
<clustering>
<clus scale="   40.048">  2  3  1 -1</clus>
<clus scale="   40.885">  1  5  2 -1</clus>
<clus scale="  128.198">  2  6  1 -1</clus>
<clus scale="   40.885">  1  3  2 -1</clus>
</clustering>
</event>
<event>
 6    0  0.9315069E+002  0.2006401E+03  0.7546771E-02  0.1149200E+00
         21   -1    0    0  503  501  0.00000000000E+00  0.00000000000E+00  0.70263945319E+03  0.70263945319E+03  0.00000000000E+00 0.  1.
         21   -1    0    0  506  502 -0.00000000000E+00 -0.00000000000E+00 -0.48898476655E+03  0.48898476655E+03  0.00000000000E+00 0.  1.
         21    1    1    2  503  505 -0.90244809435E+02 -0.36330738396E+02  0.60584247288E+03  0.61360341437E+03  0.00000000000E+00 0.  1.
         21    1    1    2  504  501  0.12154742506E+03  0.58584246424E+01 -0.82547177104E+02  0.14704466711E+03  0.00000000000E+00 0.  1.
         21    1    1    2  505  502 -0.14637831548E+03  0.85396420517E+02 -0.20534752355E+03  0.26624568599E+03  0.00000000000E+00 0.  1.
         21    1    1    2  506  504  0.11507569986E+03 -0.54924106764E+02 -0.10429308559E+03  0.16473045227E+03  0.00000000000E+00 0.  1.
<scales pt_clust_3="97.28334" pt_clust_4="60.98009" pt_clust_5="190.68284" pt_clust_6="60.98009"></scales>
<clustering>
<clus scale="   60.980">  4  6 -1 -1</clus>
<clus scale="   97.283">  1  3  2 -1</clus>
<clus scale="  190.683">  2  5  1 -1</clus>
<clus scale="   97.283">  1  3  2 -1</clus>
</clustering>
</event>
<event>
 6    0  0.9315069E+002  0.1422646E+03  0.7546771E-02  0.1210314E+00
         21   -1    0    0  506  501  0.00000000000E+00  0.00000000000E+00  0.28319423277E+03  0.28319423277E+03  0.00000000000E+00 0.  1.
         21   -1    0    0  505  502 -0.00000000000E+00 -0.00000000000E+00 -0.37932855542E+03  0.37932855542E+03  0.00000000000E+00 0.  1.
         21    1    1    2  503  501 -0.28511467589E+02 -0.37635319208E+02  0.15431670126E+03  0.16137832978E+03  0.00000000000E+00 0.  1.
         21    1    1    2  504  503  0.50682212909E+02  0.36066297739E+02  0.18334913413E+02  0.64850856493E+02  0.00000000000E+00 0.  1.
         21    1    1    2  505  504  0.11793627223E+03 -0.71425734334E+02 -0.23842403803E+03  0.27542080848E+03  0.00000000000E+00 0.  1.
         21    1    1    2  506  502 -0.14010701755E+03  0.72994755803E+02 -0.30361899286E+02  0.16087279344E+03  0.00000000000E+00 0.  1.
<scales pt_clust_3="47.21569" pt_clust_4="47.48824" pt_clust_5="142.26460" pt_clust_6="14000.00000"></scales>
<clustering>
<clus scale="   47.216">  1  3  2 -1</clus>
<clus scale="   47.488">  1  4  2 -1</clus>
<clus scale="  142.265">  2  5  1 -1</clus>
<clus scale="   47.216">  1  3  2 -1</clus>
</clustering>
</event>
<event>
 6    0  0.9315069E+002  0.1401683E+03  0.7546771E-02  0.1213103E+00
         21   -1    0    0  503  501  0.00000000000E+00  0.00000000000E+00  0.70075719583E+03  0.70075719583E+03  0.00000000000E+00 0. -1.
         21   -1    0    0  506  502 -0.00000000000E+00 -0.00000000000E+00 -0.73218031270E+03  0.73218031270E+03  0.00000000000E+00 0. -1.
         21    1    1    2  503  505  0.12834032543E+03  0.92248433635E+01 -0.61969732268E+03  0.63291477199E+03  0.00000000000E+00 0. -1.
         21    1    1    2  504  501 -0.40157362712E+02 -0.11423005774E+02  0.35747565021E+03  0.35990545888E+03  0.00000000000E+00 0. -1.
         21    1    1    2  505  502  0.41902756892E+01  0.41827674775E+02 -0.92473081147E+02  0.10157944440E+03  0.00000000000E+00 0.  1.
         21    1    1    2  506  504 -0.92373238407E+02 -0.39629512365E+02  0.32327163675E+03  0.33853783326E+03  0.00000000000E+00 0. -1.
<scales pt_clust_3="14000.00000" pt_clust_4="41.75044" pt_clust_5="41.83566" pt_clust_6="140.16831"></scales>
<clustering>
<clus scale="   41.750">  1  4  2 -1</clus>
<clus scale="   41.836">  2  5  1 -1</clus>
<clus scale="  140.168">  1  6  2 -1</clus>
<clus scale="   41.750">  1  3  2 -1</clus>
</clustering>
</event>
<event>
 6    0  0.9315069E+002  0.1262108E+03  0.7546771E-02  0.1233189E+00
         21   -1    0    0  506  501  0.00000000000E+00  0.00000000000E+00  0.32851507647E+03  0.32851507647E+03  0.00000000000E+00 0.  1.
         21   -1    0    0  504  502 -0.00000000000E+00 -0.00000000000E+00 -0.22960527735E+03  0.22960527735E+03  0.00000000000E+00 0.  1.
         21    1    1    2  503  501 -0.20698115056E+02  0.11051104505E+03  0.27494800670E+03  0.29704799180E+03  0.00000000000E+00 0.  1.
         21    1    1    2  504  505 -0.13599427415E+00 -0.83052969186E+02 -0.13923833117E+03  0.16212688565E+03  0.00000000000E+00 0.  1.
         21    1    1    2  505  503  0.12554712491E+02 -0.57255544806E+02 -0.34310131559E+02  0.67919094107E+02  0.00000000000E+00 0.  1.
         21    1    1    2  506  502  0.82793968385E+01  0.29797468943E+02 -0.24897448543E+01  0.31026382272E+02  0.00000000000E+00 0.  1.
<scales pt_clust_3="113.87623" pt_clust_4="49.82829" pt_clust_5="49.82829" pt_clust_6="30.92632"></scales>
<clustering>
<clus scale="   30.926">  2  6  1 -1</clus>
<clus scale="   49.828">  4  5 -1 -1</clus>
<clus scale="  113.876">  1  3  2 -1</clus>
<clus scale="  113.876">  1  3  2 -1</clus>
</clustering>
</event>
<event>
 6    0  0.9315069E+002  0.8564325E+02  0.7546771E-02  0.1313759E+00
         21   -1    0    0  504  501  0.00000000000E+00  0.00000000000E+00  0.78669157624E+02  0.78669157624E+02  0.00000000000E+00 0.  1.
         21   -1    0    0  503  502 -0.00000000000E+00 -0.00000000000E+00 -0.17373011380E+04  0.17373011380E+04  0.00000000000E+00 0.  1.
         21    1    1    2  503  505  0.30903035894E+02  0.82100873078E+02 -0.15807975723E+04  0.15832297734E+04  0.00000000000E+00 0.  1.
         21    1    1    2  504  506 -0.17695690593E+02 -0.50639641049E+02 -0.92275507946E+01  0.54430307778E+02  0.00000000000E+00 0.  1.
         21    1    1    2  505  501  0.32317971056E+02  0.22628709418E+02  0.35094147705E+02  0.52802546778E+02  0.00000000000E+00 0.  1.
         21    1    1    2  506  502 -0.45525316357E+02 -0.54089941448E+02 -0.10370100505E+03  0.12550766767E+03  0.00000000000E+00 0.  1.
<scales pt_clust_3="85.64325" pt_clust_4="36.06471" pt_clust_5="39.45263" pt_clust_6="14000.00000"></scales>
<clustering>
<clus scale="   39.453">  1  5  2 -1</clus>
<clus scale="   36.065">  1  4  2 -1</clus>
<clus scale="   85.643">  2  3  1 -1</clus>
<clus scale="   39.453">  1  3  2 -1</clus>
</clustering>
</event>
<event>
 6    0  0.9315069E+002  0.7378078E+02  0.7546771E-02  0.1347689E+00
         21   -1    0    0  504  501  0.00000000000E+00  0.00000000000E+00  0.14146950284E+03  0.14146950284E+03  0.00000000000E+00 0. -1.
         21   -1    0    0  505  502 -0.00000000000E+00 -0.00000000000E+00 -0.21451919205E+04  0.21451919205E+04  0.00000000000E+00 0. -1.
         21    1    1    2  503  502 -0.86336085768E+02 -0.13035429544E+02 -0.12059677402E+04  0.12091244901E+04  0.00000000000E+00 0. -1.
         21    1    1    2  504  503  0.11533421669E+03 -0.78733891838E+02 -0.21604254991E+03  0.25724577865E+03  0.00000000000E+00 0. -1.
         21    1    1    2  505  506  0.26535769902E+02  0.47786953768E+02 -0.68930607191E+03  0.69146988423E+03  0.00000000000E+00 0. -1.
         21    1    1    2  506  501 -0.55533900822E+02  0.43982367615E+02  0.10759394443E+03  0.12882127029E+03  0.00000000000E+00 0. -1.
<scales pt_clust_3="69.60573" pt_clust_4="73.78078" pt_clust_5="54.66022" pt_clust_6="14000.00000"></scales>
<clustering>
<clus scale="   54.660">  2  5  1 -1</clus>
<clus scale="   69.606">  2  3  1 -1</clus>
<clus scale="   73.781">  2  4  1 -1</clus>
<clus scale="   73.781">  1  3  2 -1</clus>
</clustering>
</event>
<event>
 6    0  0.9315069E+002  0.1058328E+03  0.7546771E-02  0.1268487E+00
         21   -1    0    0  506  501  0.00000000000E+00  0.00000000000E+00  0.16762820252E+04  0.16762820252E+04  0.00000000000E+00 0. -1.
         21   -1    0    0  505  502 -0.00000000000E+00 -0.00000000000E+00 -0.10147494414E+02  0.10147494414E+02  0.00000000000E+00 0. -1.
         21    1    1    2  503  502  0.59188924367E+01 -0.56262239356E+02  0.35820407677E+03  0.36264394863E+03  0.00000000000E+00 0. -1.
         21    1    1    2  504  501  0.47081900592E+02 -0.13339605414E+02  0.31375138481E+03  0.31754461404E+03  0.00000000000E+00 0. -1.
         21    1    1    2  505  504 -0.20758365037E+02  0.10150836184E+03  0.80799555307E+03  0.81461136196E+03  0.00000000000E+00 0. -1.
         21    1    1    2  506  503 -0.32242427992E+02 -0.31906517070E+02  0.18618351615E+03  0.19162959500E+03  0.00000000000E+00 0. -1.
<scales pt_clust_3="43.81854" pt_clust_4="48.93517" pt_clust_5="93.83992" pt_clust_6="43.81854"></scales>
<clustering>
<clus scale="   43.819">  3  6 -1 -1</clus>
<clus scale="   48.935">  1  4  2 -1</clus>
<clus scale="   93.840">  1  5  2 -1</clus>
<clus scale="   48.935">  1  3  2 -1</clus>
</clustering>
</event>
<event>
 6    0  0.9315069E+002  0.8808590E+02  0.7546771E-02  0.1307554E+00
         21   -1    0    0  504  501  0.00000000000E+00  0.00000000000E+00  0.99326155676E+03  0.99326155676E+03  0.00000000000E+00 0. -1.
         21   -1    0    0  505  502 -0.00000000000E+00 -0.00000000000E+00 -0.69189709512E+02  0.69189709512E+02  0.00000000000E+00 0.  1.
         21    1    1    2  503  501 -0.74841132087E+02 -0.45579672176E+02  0.26187652541E+03  0.27614853997E+03  0.00000000000E+00 0.  1.
         21    1    1    2  504  506 -0.69922096046E+02  0.37119580856E+02  0.28947692839E+03  0.30010640591E+03  0.00000000000E+00 0. -1.
         21    1    1    2  505  503  0.43526418955E+02  0.20017612743E+02 -0.39175159955E+02  0.61886566591E+02  0.00000000000E+00 0.  1.
         21    1    1    2  506  502  0.10123680918E+03 -0.11557521423E+02  0.41189355340E+03  0.42430975379E+03  0.00000000000E+00 0.  1.
<scales pt_clust_3="69.46109" pt_clust_4="14000.00000" pt_clust_5="47.90881" pt_clust_6="88.08590"></scales>
<clustering>
<clus scale="   47.909">  2  5  1 -1</clus>
<clus scale="   69.461">  2  3  1 -1</clus>
<clus scale="   88.086">  2  6  1 -1</clus>
<clus scale="   88.086">  1  3  2 -1</clus>
</clustering>
</event>
<event>
 6    0  0.9315069E+002  0.1345533E+03  0.7546771E-02  0.1220852E+00
         21   -1    0    0  503  501  0.00000000000E+00  0.00000000000E+00  0.11148074653E+04  0.11148074653E+04  0.00000000000E+00 0.  1.
         21   -1    0    0  506  502 -0.00000000000E+00 -0.00000000000E+00 -0.93231754847E+02  0.93231754847E+02  0.00000000000E+00 0.  1.
         21    1    1    2  503  505 -0.13147150646E+03 -0.13176773074E+02  0.83636312627E+03  0.84673588759E+03  0.00000000000E+00 0.  1.
         21    1    1    2  504  502 -0.52489737120E+02  0.12317988452E+02  0.34018419227E+02  0.63750750499E+02  0.00000000000E+00 0. -1.
         21    1    1    2  505  504  0.26899761968E+02 -0.64289846931E+02  0.96304725516E+02  0.11887548851E+03  0.00000000000E+00 0. -1.
         21    1    1    2  506  501  0.15706148161E+03  0.65148631553E+02  0.54889439465E+02  0.17867709356E+03  0.00000000000E+00 0.  1.
<scales pt_clust_3="134.55325" pt_clust_4="53.91572" pt_clust_5="65.43934" pt_clust_6="14000.00000"></scales>
<clustering>
<clus scale="   53.916">  2  4  1 -1</clus>
<clus scale="   65.439">  2  5  1 -1</clus>
<clus scale="  134.553">  1  3  2 -1</clus>
<clus scale="  134.553">  1  3  2 -1</clus>
</clustering>
</event>
<event>
 6    0  0.9315069E+002  0.2010006E+03  0.7546771E-02  0.1148898E+00
         21   -1    0    0  504  501  0.00000000000E+00  0.00000000000E+00  0.79118819984E+03  0.79118819984E+03  0.00000000000E+00 0.  1.
         21   -1    0    0  505  502 -0.00000000000E+00 -0.00000000000E+00 -0.24231758859E+03  0.24231758859E+03  0.00000000000E+00 0. -1.
         21    1    1    2  503  501 -0.21405590256E+02  0.41722606869E+02  0.33388284477E+03  0.33715979779E+03  0.00000000000E+00 0.  1.
         21    1    1    2  504  502 -0.10948332035E+03 -0.40709426736E+02  0.12695577679E+03  0.17251557646E+03  0.00000000000E+00 0. -1.
         21    1    1    2  505  506  0.20485218035E+03 -0.93086983025E+02 -0.14142430227E+03  0.26576387165E+03  0.00000000000E+00 0. -1.
         21    1    1    2  506  503 -0.73963269737E+02  0.92073802892E+02  0.22945629197E+03  0.25806654253E+03  0.00000000000E+00 0.  1.
<scales pt_clust_3="46.89323" pt_clust_4="119.60454" pt_clust_5="14000.00000" pt_clust_6="201.00060"></scales>
<clustering>
<clus scale="   46.893">  1  3  2 -1</clus>
<clus scale="  119.605">  1  4  2 -1</clus>
<clus scale="  201.001">  1  6  2 -1</clus>
<clus scale="   46.893">  1  3  2 -1</clus>
</clustering>
</event>
<event>
 6    0  0.9315069E+002  0.9787916E+02  0.7546771E-02  0.1284820E+00
         21   -1    0    0  503  501  0.00000000000E+00  0.00000000000E+00  0.11441127090E+03  0.11441127090E+03  0.00000000000E+00 0. -1.
         21   -1    0    0  506  502 -0.00000000000E+00 -0.00000000000E+00 -0.20094762178E+04  0.20094762178E+04  0.00000000000E+00 0.  1.
         21    1    1    2  503  504 -0.18560352683E+02 -0.23622999501E+02 -0.59952192006E+01  0.30634546682E+02  0.00000000000E+00 0. -1.
         21    1    1    2  504  502 -0.10706833669E+03  0.30896761464E+02 -0.28244266978E+02  0.11496076377E+03  0.00000000000E+00 0. -1.
         21    1    1    2  505  501  0.34030875262E+02 -0.42456890161E+02  0.44591890769E+02  0.70350015747E+02  0.00000000000E+00 0. -1.
         21    1    1    2  506  505  0.91597814109E+02  0.35183128199E+02 -0.19054173515E+04  0.19079421625E+04  0.00000000000E+00 0.  1.
<scales pt_clust_3="30.04218" pt_clust_4="14000.00000" pt_clust_5="60.53735" pt_clust_6="97.87916"></scales>
<clustering>
<clus scale="   30.042">  1  3  2 -1</clus>
<clus scale="   60.537">  1  5  2 -1</clus>
<clus scale="   97.879">  2  6  1 -1</clus>
<clus scale="   30.042">  1  3  2 -1</clus>
</clustering>
</event>
<event>
 6    0  0.9315069E+002  0.9249071E+02  0.7546771E-02  0.1296930E+00
         21   -1    0    0  506  501  0.00000000000E+00  0.00000000000E+00  0.19597190575E+03  0.19597190575E+03  0.00000000000E+00 0. -1.
         21   -1    0    0  503  502 -0.00000000000E+00 -0.00000000000E+00 -0.10250051717E+04  0.10250051717E+04  0.00000000000E+00 0.  1.
         21    1    1    2  503  505  0.93446577109E+02 -0.24561024431E+02 -0.34626466152E+02  0.10263770678E+03  0.00000000000E+00 0.  1.
         21    1    1    2  504  502 -0.90644573539E+02 -0.20373383902E+02 -0.91680346010E+03  0.92149883230E+03  0.00000000000E+00 0.  1.
         21    1    1    2  505  501  0.39085881235E+02 -0.11905679914E+01  0.12842176130E+03  0.13424333257E+03  0.00000000000E+00 0. -1.
         21    1    1    2  506  504 -0.41887884805E+02  0.46124976324E+02 -0.60251010213E+01  0.62597205821E+02  0.00000000000E+00 0.  1.
<scales pt_clust_3="92.49071" pt_clust_4="14000.00000" pt_clust_5="39.10401" pt_clust_6="51.90346"></scales>
<clustering>
<clus scale="   39.104">  1  5  2 -1</clus>
<clus scale="   51.903">  1  6  2 -1</clus>
<clus scale="   92.491">  1  3  2 -1</clus>
<clus scale="   39.104">  1  3  2 -1</clus>
</clustering>
</event>
<event>
 6    0  0.9315069E+002  0.9276163E+02  0.7546771E-02  0.1296299E+00
         21   -1    0    0  505  501  0.00000000000E+00  0.00000000000E+00  0.12099087645E+03  0.12099087645E+03  0.00000000000E+00 0. -1.
         21   -1    0    0  503  502 -0.00000000000E+00 -0.00000000000E+00 -0.59855145970E+03  0.59855145970E+03  0.00000000000E+00 0.  1.
         21    1    1    2  503  504 -0.55408439771E+02  0.17773169064E+02 -0.28550279191E+02  0.64815886774E+02  0.00000000000E+00 0. -1.
         21    1    1    2  504  506  0.10917972235E+03  0.20901568077E+02  0.24342197415E+01  0.11118908555E+03  0.00000000000E+00 0. -1.
         21    1    1    2  505  502  0.70266609720E-01  0.33365753914E+02 -0.45236635416E+03  0.45359519050E+03  0.00000000000E+00 0.  1.
         21    1    1    2  506  501 -0.53841549186E+02 -0.72040491055E+02  0.92183035937E+00  0.89942173319E+02  0.00000000000E+00 0. -1.
<scales pt_clust_3="62.27619" pt_clust_4="14000.00000" pt_clust_5="33.36583" pt_clust_6="92.76163"></scales>
<clustering>
<clus scale="   33.366">  2  5  1 -1</clus>
<clus scale="   62.276">  2  3  1 -1</clus>
<clus scale="   92.762">  1  6  2 -1</clus>
<clus scale="   92.762">  1  3  2 -1</clus>
</clustering>
</event>
<event>
 6    0  0.9315069E+002  0.1278499E+03  0.7546771E-02  0.1230681E+00
         21   -1    0    0  506  501  0.00000000000E+00  0.00000000000E+00  0.55137036087E+03  0.55137036087E+03  0.00000000000E+00 0. -1.
         21   -1    0    0  503  502 -0.00000000000E+00 -0.00000000000E+00 -0.63270039512E+03  0.63270039512E+03  0.00000000000E+00 0.  1.
         21    1    1    2  503  504 -0.28434752497E+01 -0.15914378456E+03  0.44217214842E+02  0.16519682686E+03  0.00000000000E+00 0. -1.
         21    1    1    2  504  505 -0.38103095349E+02  0.97911509325E+02  0.66228621163E+02  0.12419637593E+03  0.00000000000E+00 0. -1.
         21    1    1    2  505  501  0.91676301272E+01  0.35937299089E+02  0.34970964702E+03  0.35167082922E+03  0.00000000000E+00 0. -1.
         21    1    1    2  506  502  0.31778940472E+02  0.25294976146E+02 -0.54148551727E+03  0.54300672398E+03  0.00000000000E+00 0.  1.
<scales pt_clust_3="127.84985" pt_clust_4="14000.00000" pt_clust_5="37.08820" pt_clust_6="40.72905"></scales>
<clustering>
<clus scale="   37.088">  1  5  2 -1</clus>
<clus scale="   40.729">  2  6  1 -1</clus>
<clus scale="  127.850">  2  3  1 -1</clus>
<clus scale="   37.088">  1  3  2 -1</clus>
</clustering>
</event>
<event>
 6    0  0.9315069E+002  0.1422829E+03  0.7546771E-02  0.1210290E+00
         21   -1    0    0  504  501  0.00000000000E+00  0.00000000000E+00  0.12165380995E+04  0.12165380995E+04  0.00000000000E+00 0. -1.
         21   -1    0    0  505  502 -0.00000000000E+00 -0.00000000000E+00 -0.57497801781E+02  0.57497801781E+02  0.00000000000E+00 0. -1.
         21    1    1    2  503  502 -0.22278885914E+02  0.43110738829E+02  0.67695237716E+02  0.83291834951E+02  0.00000000000E+00 0. -1.
         21    1    1    2  504  503 -0.13737238660E+03  0.33850487620E+02  0.88852694952E+03  0.89972060560E+03  0.00000000000E+00 0. -1.
         21    1    1    2  505  506  0.23278229767E+02 -0.23088643246E+02 -0.84499990475E+01  0.33857996278E+02  0.00000000000E+00 0.  1.
         21    1    1    2  506  501  0.13637304275E+03 -0.53872583203E+02  0.21126810958E+03  0.25716546451E+03  0.00000000000E+00 0. -1.
<scales pt_clust_3="41.88873" pt_clust_4="142.28287" pt_clust_5="32.78660" pt_clust_6="14000.00000"></scales>
<clustering>
<clus scale="   32.787">  2  5  1 -1</clus>
<clus scale="   41.889">  2  3  1 -1</clus>
<clus scale="  142.283">  1  4  2 -1</clus>
<clus scale="  142.283">  1  3  2 -1</clus>
</clustering>
</event>
<event>
 6    0  0.9315069E+002  0.8988082E+02  0.7546771E-02  0.1303141E+00
         21   -1    0    0  504  501  0.00000000000E+00  0.00000000000E+00  0.55993258261E+03  0.55993258261E+03  0.00000000000E+00 0.  1.
         21   -1    0    0  505  502 -0.00000000000E+00 -0.00000000000E+00 -0.94916189372E+03  0.94916189372E+03  0.00000000000E+00 0.  1.
         21    1    1    2  503  502  0.86900252946E+02 -0.76304007874E+02 -0.28264217248E+03  0.30538590872E+03  0.00000000000E+00 0.  1.
         21    1    1    2  504  506 -0.43584342840E+02  0.68360296255E+01  0.45691096585E+03  0.45903589942E+03  0.00000000000E+00 0.  1.
         21    1    1    2  505  501 -0.32360209650E+02  0.27382313674E+01 -0.64099666346E+03  0.64181882463E+03  0.00000000000E+00 0.  1.
         21    1    1    2  506  503 -0.10955700455E+02  0.66729746881E+02  0.77498558978E+02  0.10285384356E+03  0.00000000000E+00 0.  1.
<scales pt_clust_3="89.88082" pt_clust_4="44.22902" pt_clust_5="32.47585" pt_clust_6="14000.00000"></scales>
<clustering>
<clus scale="   32.476">  2  5  1 -1</clus>
<clus scale="   44.229">  1  4  2 -1</clus>
<clus scale="   89.881">  2  3  1 -1</clus>
<clus scale="   44.229">  1  3  2 -1</clus>
</clustering>
</event>
<event>
 6    0  0.9315069E+002  0.1477158E+03  0.7546771E-02  0.1203308E+00
         21   -1    0    0  505  501  0.00000000000E+00  0.00000000000E+00  0.26266894737E+02  0.26266894737E+02  0.00000000000E+00 0. -1.
         21   -1    0    0  501  502 -0.00000000000E+00 -0.00000000000E+00 -0.20055567322E+04  0.20055567322E+04  0.00000000000E+00 0. -1.
         21    1    1    2  503  502 -0.48471062375E+02 -0.15186265505E+02 -0.52903580436E+03  0.53146867156E+03  0.00000000000E+00 0. -1.
         21    1    1    2  504  503  0.96662195050E+02  0.15451692983E+03 -0.73615128261E+03  0.75837838342E+03  0.00000000000E+00 0. -1.
         21    1    1    2  505  506  0.47448584184E+02 -0.61158212030E+02 -0.24930522213E+03  0.26104556847E+03  0.00000000000E+00 0. -1.
         21    1    1    2  506  504 -0.95639716859E+02 -0.78172452293E+02 -0.46479752832E+03  0.48093100344E+03  0.00000000000E+00 0. -1.
<scales pt_clust_3="50.79436" pt_clust_4="147.71582" pt_clust_5="74.79687" pt_clust_6="14000.00000"></scales>
<clustering>
<clus scale="   50.794">  2  3  1 -1</clus>
<clus scale="   74.797">  1  5  2 -1</clus>
<clus scale="  147.716">  2  4  1 -1</clus>
<clus scale="   74.797">  1  3  2 -1</clus>
</clustering>
</event>
<event>
 6    0  0.9315069E+002  0.1533268E+03  0.7546771E-02  0.1196444E+00
         21   -1    0    0  504  501  0.00000000000E+00  0.00000000000E+00  0.54519860565E+03  0.54519860565E+03  0.00000000000E+00 0. -1.
         21   -1    0    0  505  502 -0.00000000000E+00 -0.00000000000E+00 -0.45717680298E+03  0.45717680298E+03  0.00000000000E+00 0. -1.
         21    1    1    2  503  506  0.16233203120E+03  0.41841622447E+02  0.63975400666E+02  0.17943038096E+03  0.00000000000E+00 0. -1.
         21    1    1    2  504  503  0.39398080115E+02  0.22842656308E+01  0.17565912317E+03  0.18003764645E+03  0.00000000000E+00 0. -1.
         21    1    1    2  505  501 -0.17091296972E+03  0.24826124578E+02  0.21091074244E+03  0.27260029522E+03  0.00000000000E+00 0. -1.
         21    1    1    2  506  502 -0.30817141598E+02 -0.68952012656E+02 -0.36252346361E+03  0.37030708599E+03  0.00000000000E+00 0. -1.
<scales pt_clust_3="153.32678" pt_clust_4="39.46424" pt_clust_5="14000.00000" pt_clust_6="75.33384"></scales>
<clustering>
<clus scale="   39.464">  1  4  2 -1</clus>
<clus scale="   75.334">  2  6  1 -1</clus>
<clus scale="  153.327">  2  3  1 -1</clus>
<clus scale="   39.464">  1  3  2 -1</clus>
</clustering>
</event>
<event>
 6    0  0.9315069E+002  0.9685636E+02  0.7546771E-02  0.1287049E+00
         21   -1    0    0  504  501  0.00000000000E+00  0.00000000000E+00  0.40510169170E+03  0.40510169170E+03  0.00000000000E+00 0. -1.
         21   -1    0    0  506  502 -0.00000000000E+00 -0.00000000000E+00 -0.31508124895E+03  0.31508124895E+03  0.00000000000E+00 0. -1.
         21    1    1    2  503  502 -0.13868363847E+02  0.28082792059E+02  0.66553995278E+00  0.31327586391E+02  0.00000000000E+00 0. -1.
         21    1    1    2  504  503 -0.35650746262E+02  0.86579224609E+01  0.34855359871E+03  0.35047902434E+03  0.00000000000E+00 0. -1.
         21    1    1    2  505  501 -0.13066844938E+02 -0.10273943079E+03 -0.60732188988E+02  0.12006053413E+03  0.00000000000E+00 0. -1.
         21    1    1    2  506  505  0.62585955048E+02  0.65998716268E+02 -0.19846650693E+03  0.21831579579E+03  0.00000000000E+00 0. -1.
<scales pt_clust_3="31.32052" pt_clust_4="36.75164" pt_clust_5="96.85636" pt_clust_6="14000.00000"></scales>
<clustering>
<clus scale="   31.321">  2  3  1 -1</clus>
<clus scale="   36.752">  1  4  2 -1</clus>
<clus scale="   96.856">  1  5  2 -1</clus>
<clus scale="   36.752">  1  3  2 -1</clus>
</clustering>
</event>
<event>
 6    0  0.9315069E+002  0.1348250E+03  0.7546771E-02  0.1220467E+00
         21   -1    0    0  504  501  0.00000000000E+00  0.00000000000E+00  0.11478262074E+04  0.11478262074E+04  0.00000000000E+00 0.  1.
         21   -1    0    0  503  502 -0.00000000000E+00 -0.00000000000E+00 -0.83051216147E+03  0.83051216147E+03  0.00000000000E+00 0. -1.
         21    1    1    2  503  501 -0.31099305831E+02  0.61721835587E+02  0.92296100261E+02  0.11530534218E+03  0.00000000000E+00 0.  1.
         21    1    1    2  504  506 -0.76325966536E+02  0.26790414253E+02  0.84879664757E+03  0.85264243877E+03  0.00000000000E+00 0.  1.
         21    1    1    2  505  502 -0.87419391356E+02 -0.88601034793E+02 -0.76161632533E+03  0.77171997536E+03  0.00000000000E+00 0. -1.
         21    1    1    2  506  505  0.19484466372E+03  0.88784953142E-01  0.13783762342E+03  0.23867061255E+03  0.00000000000E+00 0.  1.
<scales pt_clust_3="69.11405" pt_clust_4="134.82503" pt_clust_5="124.36154" pt_clust_6="14000.00000"></scales>
<clustering>
<clus scale="   69.114">  1  3  2 -1</clus>
<clus scale="  124.362">  2  5  1 -1</clus>
<clus scale="  134.825">  1  4  2 -1</clus>
<clus scale="   69.114">  1  3  2 -1</clus>
</clustering>
</event>
<event>
 6    0  0.9315069E+002  0.1821044E+03  0.7546771E-02  0.1165782E+00
         21   -1    0    0  505  501  0.00000000000E+00  0.00000000000E+00  0.11720769946E+04  0.11720769946E+04  0.00000000000E+00 0.  1.
         21   -1    0    0  501  502 -0.00000000000E+00 -0.00000000000E+00 -0.45829010144E+03  0.45829010144E+03  0.00000000000E+00 0.  1.
         21    1    1    2  503  502 -0.15258424948E+02  0.33512317060E+02 -0.28363041728E+03  0.28601067905E+03  0.00000000000E+00 0.  1.
         21    1    1    2  504  503 -0.25933683808E+02 -0.36674483204E+02 -0.72512228397E+02  0.85297109806E+02  0.00000000000E+00 0. -1.
         21    1    1    2  505  506  0.14443437328E+03  0.11545276248E+03  0.10896709927E+04  0.11052481626E+04  0.00000000000E+00 0.  1.
         21    1    1    2  506  504 -0.10324226452E+03 -0.11229059634E+03 -0.19741453838E+02  0.15381114462E+03  0.00000000000E+00 0. -1.
<scales pt_clust_3="36.82248" pt_clust_4="39.24281" pt_clust_5="182.10445" pt_clust_6="14000.00000"></scales>
<clustering>
<clus scale="   36.822">  2  3  1 -1</clus>
<clus scale="   39.243">  2  4  1 -1</clus>
<clus scale="  182.104">  1  5  2 -1</clus>
<clus scale="  182.104">  1  3  2 -1</clus>
</clustering>
</event>
<event>
 6    0  0.9315069E+002  0.8775485E+02  0.7546771E-02  0.1308382E+00
         21   -1    0    0  506  501  0.00000000000E+00  0.00000000000E+00  0.22316292994E+03  0.22316292994E+03  0.00000000000E+00 0. -1.
         21   -1    0    0  504  502 -0.00000000000E+00 -0.00000000000E+00 -0.60474927718E+03  0.60474927718E+03  0.00000000000E+00 0.  1.
         21    1    1    2  503  502  0.61399452362E+01 -0.79532650845E+02 -0.32663350521E+03  0.33623293741E+03  0.00000000000E+00 0.  1.
         21    1    1    2  504  505 -0.71913496586E+02 -0.36475698791E+02 -0.66089331702E+02  0.10425846420E+03  0.00000000000E+00 0.  1.
         21    1    1    2  505  501  0.32459932802E+02 -0.11814181169E+02  0.17418656656E+03  0.17757866450E+03  0.00000000000E+00 0. -1.
         21    1    1    2  506  503  0.33313618548E+02  0.12782253081E+03 -0.16305007690E+03  0.20984214100E+03  0.00000000000E+00 0.  1.
<scales pt_clust_3="87.75485" pt_clust_4="71.83213" pt_clust_5="34.54305" pt_clust_6="14000.00000"></scales>
<clustering>
<clus scale="   34.543">  1  5  2 -1</clus>
<clus scale="   71.832">  1  4  2 -1</clus>
<clus scale="   87.755">  2  3  1 -1</clus>
<clus scale="   34.543">  1  3  2 -1</clus>
</clustering>
</event>
<event>
 6    0  0.9315069E+002  0.1215610E+03  0.7546771E-02  0.1240544E+00
         21   -1    0    0  505  501  0.00000000000E+00  0.00000000000E+00  0.16006153596E+04  0.16006153596E+04  0.00000000000E+00 0. -1.
         21   -1    0    0  503  502 -0.00000000000E+00 -0.00000000000E+00 -0.62134865821E+02  0.62134865821E+02  0.00000000000E+00 0. -1.
         21    1    1    2  503  506  0.12275770527E+03  0.27266925624E+02  0.14249798846E+02  0.12655432115E+03  0.00000000000E+00 0. -1.
         21    1    1    2  504  501 -0.13845255697E+02  0.30739254230E+02  0.37509503371E+03  0.37660705937E+03  0.00000000000E+00 0. -1.
         21    1    1    2  505  502 -0.60208543344E+02 -0.27845405581E+02  0.95172984983E+03  0.95403885789E+03  0.00000000000E+00 0. -1.
         21    1    1    2  506  504 -0.48703906225E+02 -0.30160774273E+02  0.19740581137E+03  0.20554998698E+03  0.00000000000E+00 0. -1.
<scales pt_clust_3="14000.00000" pt_clust_4="33.71339" pt_clust_5="121.56103" pt_clust_6="56.82717"></scales>
<clustering>
<clus scale="   33.713">  1  4  2 -1</clus>
<clus scale="   56.827">  1  6  2 -1</clus>
<clus scale="  121.561">  1  5  2 -1</clus>
<clus scale="   33.713">  1  3  2 -1</clus>
</clustering>
</event>
<event>
 6    0  0.9315069E+002  0.1142339E+03  0.7546771E-02  0.1252924E+00
         21   -1    0    0  503  501  0.00000000000E+00  0.00000000000E+00  0.11577014947E+04  0.11577014947E+04  0.00000000000E+00 0. -1.
         21   -1    0    0  505  502 -0.00000000000E+00 -0.00000000000E+00 -0.71179954953E+02  0.71179954953E+02  0.00000000000E+00 0. -1.
         21    1    1    2  503  504 -0.10454758792E+03 -0.59994927085E+02  0.10066505341E+04  0.10138416480E+04  0.00000000000E+00 0. -1.
         21    1    1    2  504  502 -0.55258518181E+01 -0.33232154741E+02  0.59442917362E+01  0.34208854867E+02  0.00000000000E+00 0. -1.
         21    1    1    2  505  506  0.39688417433E+02  0.47833908245E+02 -0.91952551964E+01  0.62831568296E+02  0.00000000000E+00 0. -1.
         21    1    1    2  506  501  0.70385022309E+02  0.45393173580E+02  0.83121969066E+02  0.11799937845E+03  0.00000000000E+00 0. -1.
<scales pt_clust_3="14000.00000" pt_clust_4="33.68844" pt_clust_5="45.07358" pt_clust_6="114.23387"></scales>
<clustering>
<clus scale="   33.688">  2  4  1 -1</clus>
<clus scale="   45.074">  2  5  1 -1</clus>
<clus scale="  114.234">  2  6  1 -1</clus>
<clus scale="  114.234">  1  3  2 -1</clus>
</clustering>
</event>
<event>
 6    0  0.9315069E+002  0.8743762E+02  0.7546771E-02  0.1309178E+00
         21   -1    0    0  506  501  0.00000000000E+00  0.00000000000E+00  0.41023459016E+03  0.41023459016E+03  0.00000000000E+00 0.  1.
         21   -1    0    0  503  502 -0.00000000000E+00 -0.00000000000E+00 -0.29296272275E+03  0.29296272275E+03  0.00000000000E+00 0. -1.
         21    1    1    2  503  504 -0.36536892832E+02 -0.11774962864E+02 -0.56535880457E+01  0.38801512162E+02  0.00000000000E+00 0.  1.
         21    1    1    2  504  501 -0.78003563026E+02  0.48357679992E+02 -0.14627534661E+03  0.17268323047E+03  0.00000000000E+00 0. -1.
         21    1    1    2  505  502  0.89784673602E+02  0.11416908996E+02 -0.90493003761E+02  0.12798678508E+03  0.00000000000E+00 0. -1.
         21    1    1    2  506  505  0.24755782255E+02 -0.47999626124E+02  0.35969380583E+03  0.36372578519E+03  0.00000000000E+00 0.  1.
<scales pt_clust_3="38.38742" pt_clust_4="87.43762" pt_clust_5="14000.00000" pt_clust_6="53.96148"></scales>
<clustering>
<clus scale="   38.387">  2  3  1 -1</clus>
<clus scale="   53.961">  1  6  2 -1</clus>
<clus scale="   87.438">  1  4  2 -1</clus>
<clus scale="   53.961">  1  3  2 -1</clus>
</clustering>
</event>
<event>
 6    0  0.9315069E+002  0.1023364E+03  0.7546771E-02  0.1275458E+00
         21   -1    0    0  503  501  0.00000000000E+00  0.00000000000E+00  0.10508392789E+04  0.10508392789E+04  0.00000000000E+00 0. -1.
         21   -1    0    0  504  502 -0.00000000000E+00 -0.00000000000E+00 -0.91389260730E+02  0.91389260730E+02  0.00000000000E+00 0.  1.
         21    1    1    2  503  505  0.22269092718E+02 -0.32219230694E+02  0.62479597826E+02  0.73740704238E+02  0.00000000000E+00 0. -1.
         21    1    1    2  504  506  0.11065600631E+03  0.58718108433E+02  0.15078345613E+03  0.19603116750E+03  0.00000000000E+00 0. -1.
         21    1    1    2  505  502 -0.92794187108E+02 -0.30316398922E+02 -0.24554538874E+02  0.10066166392E+03  0.00000000000E+00 0.  1.
         21    1    1    2  506  501 -0.40130911921E+02  0.38175211830E+01  0.77074150313E+03  0.77179500401E+03  0.00000000000E+00 0. -1.
<scales pt_clust_3="39.16620" pt_clust_4="102.33641" pt_clust_5="14000.00000" pt_clust_6="31.21055"></scales>
<clustering>
<clus scale="   39.166">  1  3  2 -1</clus>
<clus scale="   31.211">  1  6  2 -1</clus>
<clus scale="  102.336">  1  4  2 -1</clus>
<clus scale="   39.166">  1  3  2 -1</clus>
</clustering>
</event>
<event>
 6    0  0.9315069E+002  0.8614078E+02  0.7546771E-02  0.1312476E+00
         21   -1    0    0  503  501  0.00000000000E+00  0.00000000000E+00  0.55700423503E+02  0.55700423503E+02  0.00000000000E+00 0.  1.
         21   -1    0    0  506  502 -0.00000000000E+00 -0.00000000000E+00 -0.90853153080E+03  0.90853153080E+03  0.00000000000E+00 0.  1.
         21    1    1    2  503  505 -0.29489727433E+02  0.17488440072E+02  0.22128639482E+02  0.40806448578E+02  0.00000000000E+00 0.  1.
         21    1    1    2  504  501  0.94166337353E+02  0.36314609954E+02 -0.13252500683E+03  0.16658009311E+03  0.00000000000E+00 0.  1.
         21    1    1    2  505  502 -0.85700814263E+02 -0.18045172879E+01 -0.54095296733E+03  0.54770247280E+03  0.00000000000E+00 0.  1.
         21    1    1    2  506  504  0.21024204343E+02 -0.51998532738E+02 -0.20148177262E+03  0.20914293981E+03  0.00000000000E+00 0.  1.
<scales pt_clust_3="34.28541" pt_clust_4="86.14078" pt_clust_5="14000.00000" pt_clust_6="51.88188"></scales>
<clustering>
<clus scale="   34.285">  1  3  2 -1</clus>
<clus scale="   51.882">  2  6  1 -1</clus>
<clus scale="   86.141">  1  4  2 -1</clus>
<clus scale="   34.285">  1  3  2 -1</clus>
</clustering>
</event>
<event>
 6    0  0.9315069E+002  0.1091492E+03  0.7546771E-02  0.1262154E+00
         21   -1    0    0  505  501  0.00000000000E+00  0.00000000000E+00  0.32998473463E+03  0.32998473463E+03  0.00000000000E+00 0. -1.
         21   -1    0    0  506  502 -0.00000000000E+00 -0.00000000000E+00 -0.16024675169E+03  0.16024675169E+03  0.00000000000E+00 0.  1.
         21    1    1    2  503  504  0.10546234931E+02  0.64612016742E+02  0.72368163724E+02  0.97586304877E+02  0.00000000000E+00 0. -1.
         21    1    1    2  504  501  0.17547842230E+02 -0.84020977220E+02  0.82747146140E+02  0.11922475236E+03  0.00000000000E+00 0. -1.
         21    1    1    2  505  502 -0.64252653048E+02 -0.38153558595E+02 -0.10910889273E+03  0.13224540797E+03  0.00000000000E+00 0.  1.
         21    1    1    2  506  503  0.36158575887E+02  0.57562519072E+02  0.12373156580E+03  0.14117502112E+03  0.00000000000E+00 0. -1.
<scales pt_clust_3="37.29067" pt_clust_4="102.32125" pt_clust_5="74.72682" pt_clust_6="37.29067"></scales>
<clustering>
<clus scale="   37.291">  3  6 -1 -1</clus>
<clus scale="   74.727">  2  5  1 -1</clus>
<clus scale="  102.321">  1  4  2 -1</clus>
<clus scale="  102.321">  1  3  2 -1</clus>
</clustering>
</event>
<event>
 6    0  0.9315069E+002  0.9670320E+02  0.7546771E-02  0.1287385E+00
         21   -1    0    0  504  501  0.00000000000E+00  0.00000000000E+00  0.68696219546E+02  0.68696219546E+02  0.00000000000E+00 0. -1.
         21   -1    0    0  505  502 -0.00000000000E+00 -0.00000000000E+00 -0.51893145188E+03  0.51893145188E+03  0.00000000000E+00 0. -1.
         21    1    1    2  503  501  0.39906132142E+02  0.58879022673E+02 -0.24799943688E+02  0.75327789695E+02  0.00000000000E+00 0. -1.
         21    1    1    2  504  506 -0.96176121177E+01 -0.50365034577E+02 -0.23528314191E+02  0.56415571781E+02  0.00000000000E+00 0. -1.
         21    1    1    2  505  503  0.29608360805E+02  0.73122097259E+02 -0.30746229405E+03  0.31742173586E+03  0.00000000000E+00 0. -1.
         21    1    1    2  506  502 -0.59896880829E+02 -0.81636085355E+02 -0.94444680402E+02  0.13846257408E+03  0.00000000000E+00 0. -1.
<scales pt_clust_3="71.12833" pt_clust_4="30.21932" pt_clust_5="86.88041" pt_clust_6="30.21932"></scales>
<clustering>
<clus scale="   30.219">  4  6 -1 -1</clus>
<clus scale="   71.128">  1  3  2 -1</clus>
<clus scale="   86.880">  2  5  1 -1</clus>
<clus scale="   71.128">  1  3  2 -1</clus>
</clustering>
</event>
<event>
 6    0  0.9315069E+002  0.1234270E+03  0.7546771E-02  0.1237548E+00
         21   -1    0    0  504  501  0.00000000000E+00  0.00000000000E+00  0.19780228588E+04  0.19780228588E+04  0.00000000000E+00 0.  1.
         21   -1    0    0  503  502 -0.00000000000E+00 -0.00000000000E+00 -0.90230482600E+02  0.90230482600E+02  0.00000000000E+00 0. -1.
         21    1    1    2  503  501  0.14117638241E+02  0.32724133403E+02  0.17916460463E+04  0.17920004832E+04  0.00000000000E+00 0.  1.
         21    1    1    2  504  505  0.78415834164E+02 -0.93442430221E+02  0.95933925327E+02  0.15518971887E+03  0.00000000000E+00 0. -1.
         21    1    1    2  505  506 -0.47785502890E+02  0.35203159595E+02 -0.24154597881E+02  0.64079336222E+02  0.00000000000E+00 0. -1.
         21    1    1    2  506  502 -0.44747969515E+02  0.25515137222E+02  0.24367002396E+02  0.56983803040E+02  0.00000000000E+00 0. -1.
<scales pt_clust_3="35.63954" pt_clust_4="113.25701" pt_clust_5="45.95981" pt_clust_6="45.95981"></scales>
<clustering>
<clus scale="   35.640">  1  3  2 -1</clus>
<clus scale="   45.960">  5  6 -1 -1</clus>
<clus scale="  113.257">  1  4  2 -1</clus>
<clus scale="   35.640">  1  3  2 -1</clus>
</clustering>
</event>
<event>
 6    0  0.9315069E+002  0.7471238E+02  0.7546771E-02  0.1344764E+00
         21   -1    0    0  506  501  0.00000000000E+00  0.00000000000E+00  0.84302654508E+03  0.84302654508E+03  0.00000000000E+00 0.  1.
         21   -1    0    0  504  502 -0.00000000000E+00 -0.00000000000E+00 -0.12332838665E+03  0.12332838665E+03  0.00000000000E+00 0.  1.
         21    1    1    2  503  502 -0.31103479605E+02  0.67258994677E+02 -0.94694904176E+02  0.12024276978E+03  0.00000000000E+00 0.  1.
         21    1    1    2  504  505  0.54482232379E+02 -0.91464655619E+02  0.64904720419E+03  0.65772058668E+03  0.00000000000E+00 0.  1.
         21    1    1    2  505  501  0.24173494157E+02  0.33688756248E+02  0.84362097322E+02  0.94001348830E+02  0.00000000000E+00 0. -1.
         21    1    1    2  506  503 -0.47552246930E+02 -0.94830953068E+01  0.80983761094E+02  0.94390226431E+02  0.00000000000E+00 0. -1.
<scales pt_clust_3="74.71238" pt_clust_4="14000.00000" pt_clust_5="41.46432" pt_clust_6="45.08509"></scales>
<clustering>
<clus scale="   41.464">  1  5  2 -1</clus>
<clus scale="   45.085">  1  6  2 -1</clus>
<clus scale="   74.712">  2  3  1 -1</clus>
<clus scale="   41.464">  1  3  2 -1</clus>
</clustering>
</event>
<event>
 6    0  0.9315069E+002  0.9797408E+02  0.7546771E-02  0.1284615E+00
         21   -1    0    0  503  501  0.00000000000E+00  0.00000000000E+00  0.23728792247E+04  0.23728792247E+04  0.00000000000E+00 0.  1.
         21   -1    0    0  504  502 -0.00000000000E+00 -0.00000000000E+00 -0.93297355919E+01  0.93297355919E+01  0.00000000000E+00 0.  1.
         21    1    1    2  503  506 -0.25097571421E+02  0.23433416920E+02  0.29180556704E+03  0.29381882526E+03  0.00000000000E+00 0.  1.
         21    1    1    2  504  505 -0.76143666876E+02 -0.46284624266E+02  0.71440502670E+03  0.71994073827E+03  0.00000000000E+00 0.  1.
         21    1    1    2  505  501  0.26245154125E+02 -0.55774816955E+02  0.63484542124E+03  0.63783097070E+03  0.00000000000E+00 0.  1.
         21    1    1    2  506  502  0.74996084172E+02  0.78626024302E+02  0.72249347416E+03  0.73061842609E+03  0.00000000000E+00 0.  1.
<scales pt_clust_3="34.33676" pt_clust_4="97.97408" pt_clust_5="52.03161" pt_clust_6="14000.00000"></scales>
<clustering>
<clus scale="   34.337">  1  3  2 -1</clus>
<clus scale="   52.032">  1  5  2 -1</clus>
<clus scale="   97.974">  2  4  1 -1</clus>
<clus scale="   34.337">  1  3  2 -1</clus>
</clustering>
</event>
<event>
 6    0  0.9315069E+002  0.9126882E+02  0.7546771E-02  0.1299808E+00
         21   -1    0    0  505  501  0.00000000000E+00  0.00000000000E+00  0.29385962234E+04  0.29385962234E+04  0.00000000000E+00 0. -1.
         21   -1    0    0  503  502 -0.00000000000E+00 -0.00000000000E+00 -0.89773717616E+02  0.89773717616E+02  0.00000000000E+00 0.  1.
         21    1    1    2  503  504 -0.31799970300E+02 -0.92593152336E+02  0.21607719150E+01  0.97925476286E+02  0.00000000000E+00 0.  1.
         21    1    1    2  504  501  0.58759276058E+02  0.59747931811E+02  0.82646033480E+02  0.11769806595E+03  0.00000000000E+00 0.  1.
         21    1    1    2  505  506 -0.27421319288E+02 -0.32388857033E+02  0.27442555138E+04  0.27445836281E+04  0.00000000000E+00 0. -1.
         21    1    1    2  506  502  0.46201353059E+00  0.65234077558E+02  0.19760186627E+02  0.68162770681E+02  0.00000000000E+00 0.  1.
<scales pt_clust_3="91.26882" pt_clust_4="14000.00000" pt_clust_5="42.43780" pt_clust_6="58.18569"></scales>
<clustering>
<clus scale="   42.438">  1  5  2 -1</clus>
<clus scale="   58.186">  1  6  2 -1</clus>
<clus scale="   91.269">  2  3  1 -1</clus>
<clus scale="   42.438">  1  3  2 -1</clus>
</clustering>
</event>
<event>
 6    0  0.9315069E+002  0.1061732E+03  0.7546771E-02  0.1267825E+00
         21   -1    0    0  505  501  0.00000000000E+00  0.00000000000E+00  0.13722673545E+04  0.13722673545E+04  0.00000000000E+00 0. -1.
         21   -1    0    0  503  502 -0.00000000000E+00 -0.00000000000E+00 -0.35610517418E+02  0.35610517418E+02  0.00000000000E+00 0. -1.
         21    1    1    2  503  504 -0.88764924279E+02 -0.32162328105E+02  0.17393223480E+03  0.19790414203E+03  0.00000000000E+00 0. -1.
         21    1    1    2  504  501  0.65810803586E+02  0.10319722184E+03  0.88797969049E+03  0.89637528925E+03  0.00000000000E+00 0. -1.
         21    1    1    2  505  506  0.27128533277E+02 -0.38992828649E+02  0.27715468366E+03  0.28119586888E+03  0.00000000000E+00 0. -1.
         21    1    1    2  506  502 -0.41744125843E+01 -0.32042065089E+02 -0.24097718602E+01  0.32402571750E+02  0.00000000000E+00 0. -1.
<scales pt_clust_3="14000.00000" pt_clust_4="106.17325" pt_clust_5="50.21433" pt_clust_6="32.31284"></scales>
<clustering>
<clus scale="   32.313">  2  6  1 -1</clus>
<clus scale="   50.214">  1  5  2 -1</clus>
<clus scale="  106.173">  1  4  2 -1</clus>
<clus scale="   50.214">  1  3  2 -1</clus>
</clustering>
</event>
<event>
 6    0  0.9315069E+002  0.5638239E+02  0.7546771E-02  0.1413672E+00
         21   -1    0    0  505  501  0.00000000000E+00  0.00000000000E+00  0.23828209204E+03  0.23828209204E+03  0.00000000000E+00 0. -1.
         21   -1    0    0  506  502 -0.00000000000E+00 -0.00000000000E+00 -0.18800398579E+04  0.18800398579E+04  0.00000000000E+00 0. -1.
         21    1    1    2  503  502  0.15098761670E+02 -0.44959596072E+02 -0.20569199738E+03  0.21108892834E+03  0.00000000000E+00 0. -1.
         21    1    1    2  504  503  0.41313944643E+02  0.28344883660E+02 -0.12047995244E+04  0.12058408553E+04  0.00000000000E+00 0. -1.
         21    1    1    2  505  504  0.55852841081E+02  0.37096349287E+01  0.22473297765E+03  0.23159924976E+03  0.00000000000E+00 0. -1.
         21    1    1    2  506  501 -0.11226554739E+03  0.12905077483E+02 -0.45599922181E+03  0.46979291655E+03  0.00000000000E+00 0. -1.
<scales pt_clust_3="47.42719" pt_clust_4="52.35933" pt_clust_5="56.38239" pt_clust_6="14000.00000"></scales>
<clustering>
<clus scale="   47.427">  2  3  1 -1</clus>
<clus scale="   52.359">  2  4  1 -1</clus>
<clus scale="   56.382">  1  5  2 -1</clus>
<clus scale="   56.382">  1  3  2 -1</clus>
</clustering>
</event>
<event>
 6    0  0.9315069E+002  0.1427237E+03  0.7546771E-02  0.1209710E+00
         21   -1    0    0  503  501  0.00000000000E+00  0.00000000000E+00  0.14289715468E+03  0.14289715468E+03  0.00000000000E+00 0. -1.
         21   -1    0    0  505  502 -0.00000000000E+00 -0.00000000000E+00 -0.64263849557E+03  0.64263849557E+03  0.00000000000E+00 0. -1.
         21    1    1    2  503  506 -0.39530297637E+01  0.13606710083E+03  0.95189071526E+02  0.16610491176E+03  0.00000000000E+00 0. -1.
         21    1    1    2  504  501  0.40406444906E+01 -0.72109728365E+02 -0.40195663122E+03  0.40839352727E+03  0.00000000000E+00 0. -1.
         21    1    1    2  505  504  0.26035869430E+02 -0.35571810382E+02 -0.12909280338E+03  0.13641177396E+03  0.00000000000E+00 0. -1.
         21    1    1    2  506  502 -0.26123484157E+02 -0.28385562082E+02 -0.63880977823E+02  0.74625437264E+02  0.00000000000E+00 0. -1.
<scales pt_clust_3="134.42713" pt_clust_4="37.46285" pt_clust_5="37.46285" pt_clust_6="38.57689"></scales>
<clustering>
<clus scale="   37.463">  4  5 -1 -1</clus>
<clus scale="   38.577">  2  6  1 -1</clus>
<clus scale="  134.427">  1  3  2 -1</clus>
<clus scale="  134.427">  1  3  2 -1</clus>
</clustering>
</event>
<event>
 6    0  0.9315069E+002  0.1041336E+03  0.7546771E-02  0.1271836E+00
         21   -1    0    0  505  501  0.00000000000E+00  0.00000000000E+00  0.86292158918E+03  0.86292158918E+03  0.00000000000E+00 0. -1.
         21   -1    0    0  504  502 -0.00000000000E+00 -0.00000000000E+00 -0.14523495856E+03  0.14523495856E+03  0.00000000000E+00 0. -1.
         21    1    1    2  503  502 -0.53081987827E+02 -0.29651099576E+02 -0.11870802820E+03  0.13337346474E+03  0.00000000000E+00 0. -1.
         21    1    1    2  504  506 -0.61937641528E+02 -0.36757253036E+02  0.19394168735E+03  0.20688340963E+03  0.00000000000E+00 0. -1.
         21    1    1    2  505  503  0.43795544912E+01 -0.32698788659E+02  0.91137591614E+02  0.96924980694E+02  0.00000000000E+00 0. -1.
         21    1    1    2  506  501  0.11064007486E+03  0.99107141271E+02  0.55131537986E+03  0.57097469268E+03  0.00000000000E+00 0. -1.
<scales pt_clust_3="60.91833" pt_clust_4="14000.00000" pt_clust_5="32.99078" pt_clust_6="104.13363"></scales>
<clustering>
<clus scale="   32.991">  1  5  2 -1</clus>
<clus scale="   60.918">  2  3  1 -1</clus>
<clus scale="  104.134">  1  6  2 -1</clus>
<clus scale="   32.991">  1  3  2 -1</clus>
</clustering>
</event>
<event>
 6    0  0.9315069E+002  0.1843098E+03  0.7546771E-02  0.1163696E+00
         21   -1    0    0  506  501  0.00000000000E+00  0.00000000000E+00  0.10880078974E+03  0.10880078974E+03  0.00000000000E+00 0. -1.
         21   -1    0    0  504  502 -0.00000000000E+00 -0.00000000000E+00 -0.66964135111E+03  0.66964135111E+03  0.00000000000E+00 0.  1.
         21    1    1    2  503  502  0.99641772308E+01  0.99301907583E+02 -0.93880731851E+02  0.13701731821E+03  0.00000000000E+00 0.  1.
         21    1    1    2  504  501  0.22189738838E+02 -0.39518011477E+02 -0.28290801931E+03  0.28651527905E+03  0.00000000000E+00 0. -1.
         21    1    1    2  505  503 -0.21372179845E+02  0.10920213388E+03 -0.14205791637E+03  0.18045034696E+03  0.00000000000E+00 0.  1.
         21    1    1    2  506  505 -0.10781736224E+02 -0.16898602999E+03 -0.41993893849E+02  0.17445919663E+03  0.00000000000E+00 0. -1.
<scales pt_clust_3="36.85684" pt_clust_4="45.32171" pt_clust_5="36.85684" pt_clust_6="180.15417"></scales>
<clustering>
<clus scale="   36.857">  3  5 -1 -1</clus>
<clus scale="   45.322">  2  4  1 -1</clus>
<clus scale="  180.154">  1  6  2 -1</clus>
<clus scale="  180.154">  1  3  2 -1</clus>
</clustering>
</event>
<event>
 6    0  0.9315069E+002  0.1437031E+03  0.7546771E-02  0.1208431E+00
         21   -1    0    0  505  501  0.00000000000E+00  0.00000000000E+00  0.27376179037E+03  0.27376179037E+03  0.00000000000E+00 0.  1.
         21   -1    0    0  503  502 -0.00000000000E+00 -0.00000000000E+00 -0.31335442895E+03  0.31335442895E+03  0.00000000000E+00 0.  1.
         21    1    1    2  503  506 -0.36233672014E+02 -0.45404737883E+02 -0.12562853992E+02  0.59433109546E+02  0.00000000000E+00 0.  1.
         21    1    1    2  504  502  0.85967025157E+02  0.10869389200E+03 -0.23321263269E+03  0.27127997276E+03  0.00000000000E+00 0.  1.
         21    1    1    2  505  504 -0.35950503581E+02  0.46155283182E+01  0.17791485358E+03  0.18156937223E+03  0.00000000000E+00 0.  1.
         21    1    1    2  506  501 -0.13782849561E+02 -0.67904682431E+02  0.28267994531E+02  0.74833764791E+02  0.00000000000E+00 0.  1.
<scales pt_clust_3="45.84054" pt_clust_4="134.94566" pt_clust_5="36.24558" pt_clust_6="45.84054"></scales>
<clustering>
<clus scale="   36.246">  1  5  2 -1</clus>
<clus scale="   45.841">  3  6 -1 -1</clus>
<clus scale="  134.946">  2  4  1 -1</clus>
<clus scale="   36.246">  1  3  2 -1</clus>
</clustering>
</event>
<event>
 6    0  0.9315069E+002  0.1390538E+03  0.7546771E-02  0.1214608E+00
         21   -1    0    0  505  501  0.00000000000E+00  0.00000000000E+00  0.91650692512E+03  0.91650692512E+03  0.00000000000E+00 0. -1.
         21   -1    0    0  503  502 -0.00000000000E+00 -0.00000000000E+00 -0.12824924758E+03  0.12824924758E+03  0.00000000000E+00 0. -1.
         21    1    1    2  503  504 -0.58368345191E+02 -0.13784640108E+02  0.66572742421E+02  0.89603627475E+02  0.00000000000E+00 0.  1.
         21    1    1    2  504  501 -0.10173705421E+03 -0.11497477645E+03  0.57848042028E+03  0.59850582626E+03  0.00000000000E+00 0. -1.
         21    1    1    2  505  506  0.12075749195E+03  0.36581610388E+02  0.20367573941E+03  0.23959213865E+03  0.00000000000E+00 0. -1.
         21    1    1    2  506  502  0.39347907455E+02  0.92177806171E+02 -0.60471224574E+02  0.11705458032E+03  0.00000000000E+00 0. -1.
<scales pt_clust_3="59.97399" pt_clust_4="14000.00000" pt_clust_5="139.05382" pt_clust_6="81.85113"></scales>
<clustering>
<clus scale="   59.974">  2  3  1 -1</clus>
<clus scale="   81.851">  2  6  1 -1</clus>
<clus scale="  139.054">  2  5  1 -1</clus>
<clus scale="  139.054">  1  3  2 -1</clus>
</clustering>
</event>
<event>
 6    0  0.9315069E+002  0.1962284E+03  0.7546771E-02  0.1152961E+00
         21   -1    0    0  505  501  0.00000000000E+00  0.00000000000E+00  0.41278104945E+03  0.41278104945E+03  0.00000000000E+00 0.  1.
         21   -1    0    0  504  502 -0.00000000000E+00 -0.00000000000E+00 -0.20290195793E+03  0.20290195793E+03  0.00000000000E+00 0.  1.
         21    1    1    2  503  502  0.50982024203E+02 -0.12654729900E+03  0.20456161399E+03  0.24588379287E+03  0.00000000000E+00 0.  1.
         21    1    1    2  504  506 -0.35146048216E+01  0.13662597434E+03 -0.80494916308E+02  0.15861412567E+03  0.00000000000E+00 0.  1.
         21    1    1    2  505  503 -0.94084077262E+01 -0.55684506646E+02  0.12694073267E+03  0.13893607173E+03  0.00000000000E+00 0.  1.
         21    1    1    2  506  501 -0.38059011655E+02  0.45605831310E+02 -0.41128338837E+02  0.72249017108E+02  0.00000000000E+00 0.  1.
<scales pt_clust_3="195.42907" pt_clust_4="39.38358" pt_clust_5="36.71054" pt_clust_6="39.38358"></scales>
<clustering>
<clus scale="   36.711">  3  5 -1 -1</clus>
<clus scale="   39.384">  4  6 -1 -1</clus>
<clus scale="  195.429">  1  3  2 -1</clus>
<clus scale="  195.429">  1  3  2 -1</clus>
</clustering>
</event>
<event>
 6    0  0.9315069E+002  0.1543164E+03  0.7546771E-02  0.1195267E+00
         21   -1    0    0  506  501  0.00000000000E+00  0.00000000000E+00  0.12037400390E+04  0.12037400390E+04  0.00000000000E+00 0. -1.
         21   -1    0    0  503  502 -0.00000000000E+00 -0.00000000000E+00 -0.26011897710E+03  0.26011897710E+03  0.00000000000E+00 0.  1.
         21    1    1    2  503  504 -0.48153248997E+02 -0.42644809047E+02 -0.20668570885E+03  0.21646315476E+03  0.00000000000E+00 0.  1.
         21    1    1    2  504  505  0.14809764201E+03  0.13040537523E+03  0.39582790777E+03  0.44228746989E+03  0.00000000000E+00 0. -1.
         21    1    1    2  505  501 -0.64465179057E+02  0.31550051912E+02  0.61083234668E+03  0.61503440622E+03  0.00000000000E+00 0. -1.
         21    1    1    2  506  502 -0.35479213955E+02 -0.11931061809E+03  0.14364651626E+03  0.19007398519E+03  0.00000000000E+00 0.  1.
<scales pt_clust_3="64.32196" pt_clust_4="154.31643" pt_clust_5="72.87767" pt_clust_6="14000.00000"></scales>
<clustering>
<clus scale="   64.322">  2  3  1 -1</clus>
<clus scale="   72.878">  1  5  2 -1</clus>
<clus scale="  154.316">  1  4  2 -1</clus>
<clus scale="   72.878">  1  3  2 -1</clus>
</clustering>
</event>
<event>
 6    0  0.9315069E+002  0.1007831E+03  0.7546771E-02  0.1278658E+00
         21   -1    0    0  505  501  0.00000000000E+00  0.00000000000E+00  0.57602307155E+02  0.57602307155E+02  0.00000000000E+00 0.  1.
         21   -1    0    0  503  502 -0.00000000000E+00 -0.00000000000E+00 -0.50376556162E+03  0.50376556162E+03  0.00000000000E+00 0.  1.
         21    1    1    2  503  504 -0.41210828201E+02  0.22880966900E+02 -0.47773447391E+02  0.67113137931E+02  0.00000000000E+00 0.  1.
         21    1    1    2  504  501 -0.83053542962E+02 -0.28551219819E+02 -0.44587581660E+02  0.98494241406E+02  0.00000000000E+00 0.  1.
         21    1    1    2  505  506  0.55719483532E+02 -0.31148534570E+02 -0.47067351251E+02  0.79310955136E+02  0.00000000000E+00 0.  1.
         21    1    1    2  506  502  0.68544887632E+02  0.36818787488E+02 -0.30673487417E+03  0.31644953431E+03  0.00000000000E+00 0.  1.
<scales pt_clust_3="42.85274" pt_clust_4="42.85274" pt_clust_5="63.83488" pt_clust_6="82.07180"></scales>
<clustering>
<clus scale="   42.853">  3  4 -1 -1</clus>
<clus scale="   63.835">  1  5  2 -1</clus>
<clus scale="   82.072">  2  6  1 -1</clus>
<clus scale="   63.835">  1  3  2 -1</clus>
</clustering>
</event>
<event>
 6    0  0.9315069E+002  0.8010225E+02  0.7546771E-02  0.1328762E+00
         21   -1    0    0  505  501  0.00000000000E+00  0.00000000000E+00  0.44733141663E+02  0.44733141663E+02  0.00000000000E+00 0.  1.
         21   -1    0    0  506  502 -0.00000000000E+00 -0.00000000000E+00 -0.10651934503E+04  0.10651934503E+04  0.00000000000E+00 0.  1.
         21    1    1    2  503  501 -0.35725166826E+01  0.30015306070E+02  0.18027526123E+02  0.35194788990E+02  0.00000000000E+00 0.  1.
         21    1    1    2  504  502  0.56935718985E+02  0.45670042522E+02 -0.51560112630E+03  0.52074173092E+03  0.00000000000E+00 0.  1.
         21    1    1    2  505  504 -0.27306108848E+02  0.36935864342E+02 -0.53192679736E+02  0.70280458398E+02  0.00000000000E+00 0.  1.
         21    1    1    2  506  503 -0.26057093454E+02 -0.11262121293E+03 -0.46969402871E+03  0.48370961364E+03  0.00000000000E+00 0.  1.
<scales pt_clust_3="30.22716" pt_clust_4="80.10225" pt_clust_5="58.73952" pt_clust_6="14000.00000"></scales>
<clustering>
<clus scale="   30.227">  1  3  2 -1</clus>
<clus scale="   58.740">  1  5  2 -1</clus>
<clus scale="   80.102">  2  4  1 -1</clus>
<clus scale="   30.227">  1  3  2 -1</clus>
</clustering>
</event>
<event>
 6    0  0.9315069E+002  0.1189536E+03  0.7546771E-02  0.1244833E+00
         21   -1    0    0  506  501  0.00000000000E+00  0.00000000000E+00  0.39139917491E+03  0.39139917491E+03  0.00000000000E+00 0.  1.
         21   -1    0    0  503  502 -0.00000000000E+00 -0.00000000000E+00 -0.48698432163E+03  0.48698432163E+03  0.00000000000E+00 0.  1.
         21    1    1    2  503  501  0.19103156742E+02  0.93275553294E+02 -0.43375502665E+03  0.44408184221E+03  0.00000000000E+00 0.  1.
         21    1    1    2  504  505 -0.13832976331E+02 -0.97996109900E+02  0.11471147499E+03  0.15150350255E+03  0.00000000000E+00 0.  1.
         21    1    1    2  505  502  0.28008226023E+02  0.21176531896E+02 -0.17335628287E+02  0.39159037733E+02  0.00000000000E+00 0. -1.
         21    1    1    2  506  504 -0.33278406434E+02 -0.16455975290E+02  0.24079403322E+03  0.24363911405E+03  0.00000000000E+00 0.  1.
<scales pt_clust_3="14000.00000" pt_clust_4="118.95355" pt_clust_5="35.11276" pt_clust_6="37.01785"></scales>
<clustering>
<clus scale="   35.113">  2  5  1 -1</clus>
<clus scale="   37.018">  1  6  2 -1</clus>
<clus scale="  118.954">  1  4  2 -1</clus>
<clus scale="   37.018">  1  3  2 -1</clus>
</clustering>
</event>
<event>
 6    0  0.9315069E+002  0.9230461E+02  0.7546771E-02  0.1297365E+00
         21   -1    0    0  505  501  0.00000000000E+00  0.00000000000E+00  0.17939069424E+04  0.17939069424E+04  0.00000000000E+00 0.  1.
         21   -1    0    0  506  502 -0.00000000000E+00 -0.00000000000E+00 -0.57350963627E+02  0.57350963627E+02  0.00000000000E+00 0.  1.
         21    1    1    2  503  502  0.39060976096E+02  0.27768913458E+02  0.46032755256E+02  0.66452140407E+02  0.00000000000E+00 0. -1.
         21    1    1    2  504  501  0.90763833629E+02  0.36161455401E+02  0.32939373694E+03  0.34357816910E+03  0.00000000000E+00 0.  1.
         21    1    1    2  505  503 -0.78341274027E+02  0.49977995808E+02  0.12977549768E+04  0.13010776822E+04  0.00000000000E+00 0.  1.
         21    1    1    2  506  504 -0.51483535697E+02 -0.11390836467E+03  0.63374509734E+02  0.14014991428E+03  0.00000000000E+00 0.  1.
<scales pt_clust_3="47.92570" pt_clust_4="88.09549" pt_clust_5="92.30461" pt_clust_6="14000.00000"></scales>
<clustering>
<clus scale="   47.926">  2  3  1 -1</clus>
<clus scale="   92.305">  1  5  2 -1</clus>
<clus scale="   88.095">  1  4  2 -1</clus>
<clus scale="   92.305">  1  3  2 -1</clus>
</clustering>
</event>
<event>
 6    0  0.9315069E+002  0.7642930E+02  0.7546771E-02  0.1339501E+00
         21   -1    0    0  504  501  0.00000000000E+00  0.00000000000E+00  0.10494108078E+04  0.10494108078E+04  0.00000000000E+00 0.  1.
         21   -1    0    0  506  502 -0.00000000000E+00 -0.00000000000E+00 -0.14743331464E+03  0.14743331464E+03  0.00000000000E+00 0.  1.
         21    1    1    2  503  502 -0.12822549344E+02 -0.63121236078E+02 -0.11753062821E+03  0.13402297110E+03  0.00000000000E+00 0.  1.
         21    1    1    2  504  503 -0.42255266320E+02 -0.55213668993E+02  0.24700058329E+03  0.25659958091E+03  0.00000000000E+00 0.  1.
         21    1    1    2  505  501  0.99312260234E+02  0.99872955136E+02  0.72564331053E+03  0.73918586723E+03  0.00000000000E+00 0.  1.
         21    1    1    2  506  505 -0.44234444570E+02  0.18461949935E+02  0.46864227586E+02  0.67035703241E+02  0.00000000000E+00 0.  1.
<scales pt_clust_3="76.42930" pt_clust_4="69.97323" pt_clust_5="14000.00000" pt_clust_6="47.93255"></scales>
<clustering>
<clus scale="   47.933">  2  6  1 -1</clus>
<clus scale="   69.973">  1  4  2 -1</clus>
<clus scale="   76.429">  2  3  1 -1</clus>
<clus scale="   69.973">  1  3  2 -1</clus>
</clustering>
</event>
<event>
 6    0  0.9315069E+002  0.7215501E+02  0.7546771E-02  0.1352914E+00
         21   -1    0    0  503  501  0.00000000000E+00  0.00000000000E+00  0.15827058635E+04  0.15827058635E+04  0.00000000000E+00 0.  1.
         21   -1    0    0  505  502 -0.00000000000E+00 -0.00000000000E+00 -0.21737777024E+03  0.21737777024E+03  0.00000000000E+00 0. -1.
         21    1    1    2  503  506  0.44118760283E+02  0.44477818853E+02  0.34270384044E+03  0.34838292672E+03  0.00000000000E+00 0. -1.
         21    1    1    2  504  501 -0.33743980051E+02  0.11017324574E+02  0.31123824565E+03  0.31325593879E+03  0.00000000000E+00 0. -1.
         21    1    1    2  505  504 -0.53097087681E+02  0.48562708087E+02 -0.20392501863E+03  0.21624766024E+03  0.00000000000E+00 0. -1.
         21    1    1    2  506  502  0.42722307449E+02 -0.10405785151E+03  0.91531102581E+03  0.92219710799E+03  0.00000000000E+00 0.  1.
<scales pt_clust_3="58.94646" pt_clust_4="35.49701" pt_clust_5="72.15501" pt_clust_6="14000.00000"></scales>
<clustering>
<clus scale="   35.497">  1  4  2 -1</clus>
<clus scale="   58.946">  1  3  2 -1</clus>
<clus scale="   72.155">  2  5  1 -1</clus>
<clus scale="   35.497">  1  3  2 -1</clus>
</clustering>
</event>
<event>
 6    0  0.9315069E+002  0.2266259E+03  0.7546771E-02  0.1129037E+00
         21   -1    0    0  504  501  0.00000000000E+00  0.00000000000E+00  0.26739099353E+02  0.26739099353E+02  0.00000000000E+00 0. -1.
         21   -1    0    0  503  502 -0.00000000000E+00 -0.00000000000E+00 -0.23108442980E+04  0.23108442980E+04  0.00000000000E+00 0.  1.
         21    1    1    2  503  501 -0.59380339570E+02  0.17854900871E+03 -0.64362470871E+03  0.67056583487E+03  0.00000000000E+00 0.  1.
         21    1    1    2  504  505  0.36276487355E+02  0.38984670404E+02 -0.21087035584E+03  0.21749044814E+03  0.00000000000E+00 0. -1.
         21    1    1    2  505  506 -0.26772356694E+02 -0.14961019393E+03 -0.80079064696E+03  0.81508627118E+03  0.00000000000E+00 0.  1.
         21    1    1    2  506  502  0.49876208910E+02 -0.67923485192E+02 -0.62881948715E+03  0.63444084316E+03  0.00000000000E+00 0.  1.
<scales pt_clust_3="204.62228" pt_clust_4="53.25212" pt_clust_5="75.52100" pt_clust_6="75.52100"></scales>
<clustering>
<clus scale="   53.252">  1  4  2 -1</clus>
<clus scale="   75.521">  5  6 -1 -1</clus>
<clus scale="  204.622">  1  3  2 -1</clus>
<clus scale="   53.252">  1  3  2 -1</clus>
</clustering>
</event>
<event>
 6    0  0.9315069E+002  0.3585129E+03  0.7546771E-02  0.1059174E+00
         21   -1    0    0  504  501  0.00000000000E+00  0.00000000000E+00  0.22413451101E+03  0.22413451101E+03  0.00000000000E+00 0.  1.
         21   -1    0    0  506  502 -0.00000000000E+00 -0.00000000000E+00 -0.66813014584E+03  0.66813014584E+03  0.00000000000E+00 0.  1.
         21    1    1    2  503  501 -0.54399508086E+02 -0.28997702246E+03 -0.58808225645E+02  0.30083947121E+03  0.00000000000E+00 0.  1.
         21    1    1    2  504  505  0.21883447237E+02  0.26616271035E+02  0.10237349564E+02  0.35945993837E+02  0.00000000000E+00 0.  1.
         21    1    1    2  505  502  0.12106200533E+02  0.32486352599E+03 -0.32238659349E+03  0.45783838445E+03  0.00000000000E+00 0.  1.
         21    1    1    2  506  503  0.20409860315E+02 -0.61502774562E+02 -0.73038165250E+02  0.97640807350E+02  0.00000000000E+00 0. -1.
<scales pt_clust_3="61.98537" pt_clust_4="34.45738" pt_clust_5="334.39760" pt_clust_6="61.98537"></scales>
<clustering>
<clus scale="   34.457">  1  4  2 -1</clus>
<clus scale="   61.985">  3  6 -1 -1</clus>
<clus scale="  334.398">  2  5  1 -1</clus>
<clus scale="   34.457">  1  3  2 -1</clus>
</clustering>
</event>
<event>
 6    0  0.9315069E+002  0.1024800E+03  0.7546771E-02  0.1275166E+00
         21   -1    0    0  504  501  0.00000000000E+00  0.00000000000E+00  0.28567578785E+03  0.28567578785E+03  0.00000000000E+00 0.  1.
         21   -1    0    0  506  502 -0.00000000000E+00 -0.00000000000E+00 -0.10997819174E+03  0.10997819174E+03  0.00000000000E+00 0. -1.
         21    1    1    2  503  501 -0.30416462651E+02  0.25872828777E+02  0.65866936234E+02  0.77026084919E+02  0.00000000000E+00 0. -1.
         21    1    1    2  504  502 -0.66804118184E+02  0.23302708926E+02 -0.37191503678E+02  0.79931310483E+02  0.00000000000E+00 0. -1.
         21    1    1    2  505  503 -0.86778513400E+01  0.44782794924E+02  0.45953185159E+02  0.64749510047E+02  0.00000000000E+00 0.  1.
         21    1    1    2  506  505  0.10589843217E+03 -0.93958332627E+02  0.10106897839E+03  0.17394707414E+03  0.00000000000E+00 0.  1.
<scales pt_clust_3="30.69081" pt_clust_4="70.75172" pt_clust_5="30.69081" pt_clust_6="97.08834"></scales>
<clustering>
<clus scale="   30.691">  3  5 -1 -1</clus>
<clus scale="   70.752">  2  4  1 -1</clus>
<clus scale="   97.088">  2  6  1 -1</clus>
<clus scale="  102.480">  1  3  2 -1</clus>
</clustering>
</event>
<event>
 6    0  0.9315069E+002  0.9803330E+02  0.7546771E-02  0.1284487E+00
         21   -1    0    0  506  501  0.00000000000E+00  0.00000000000E+00  0.31089279158E+03  0.31089279158E+03  0.00000000000E+00 0. -1.
         21   -1    0    0  503  502 -0.00000000000E+00 -0.00000000000E+00 -0.12395603342E+03  0.12395603342E+03  0.00000000000E+00 0. -1.
         21    1    1    2  503  501 -0.85291649371E+02  0.39329107852E+02 -0.13129839235E+01  0.93931720434E+02  0.00000000000E+00 0. -1.
         21    1    1    2  504  505 -0.36359081551E+02 -0.55803934982E+02  0.51102745190E+02  0.83949702422E+02  0.00000000000E+00 0. -1.
         21    1    1    2  505  502  0.28142114198E+02  0.49903115632E+02 -0.28381770979E+02  0.63936096732E+02  0.00000000000E+00 0. -1.
         21    1    1    2  506  504  0.93508616724E+02 -0.33428288502E+02  0.16552876787E+03  0.19303130541E+03  0.00000000000E+00 0. -1.
<scales pt_clust_3="98.03330" pt_clust_4="54.53942" pt_clust_5="57.29136" pt_clust_6="14000.00000"></scales>
<clustering>
<clus scale="   57.291">  2  5  1 -1</clus>
<clus scale="   54.539">  2  4  1 -1</clus>
<clus scale="   98.033">  2  3  1 -1</clus>
<clus scale="   98.033">  1  3  2 -1</clus>
</clustering>
</event>
<event>
 6    0  0.9315069E+002  0.1103792E+03  0.7546771E-02  0.1259869E+00
         21   -1    0    0  504  501  0.00000000000E+00  0.00000000000E+00  0.19748179566E+04  0.19748179566E+04  0.00000000000E+00 0.  1.
         21   -1    0    0  503  502 -0.00000000000E+00 -0.00000000000E+00 -0.10218197934E+03  0.10218197934E+03  0.00000000000E+00 0. -1.
         21    1    1    2  503  501  0.96194682171E+01  0.34541723850E+02  0.23452751326E+03  0.23725264873E+03  0.00000000000E+00 0. -1.
         21    1    1    2  504  506 -0.18909648280E+02  0.28727754780E+02  0.14232296011E+04  0.14236450949E+04  0.00000000000E+00 0.  1.
         21    1    1    2  505  502 -0.10805430850E+03 -0.23874338954E+02 -0.51734194974E+02  0.12215623020E+03  0.00000000000E+00 0. -1.
         21    1    1    2  506  505  0.11734448857E+03 -0.39395139675E+02  0.26661305789E+03  0.29394596215E+03  0.00000000000E+00 0. -1.
<scales pt_clust_3="46.85692" pt_clust_4="34.39271" pt_clust_5="14000.00000" pt_clust_6="110.37916"></scales>
<clustering>
<clus scale="   34.393">  1  4  2 -1</clus>
<clus scale="   46.857">  1  3  2 -1</clus>
<clus scale="  110.379">  1  6  2 -1</clus>
<clus scale="   34.393">  1  3  2 -1</clus>
</clustering>
</event>
<event>
 6    0  0.9315069E+002  0.8315424E+02  0.7546771E-02  0.1320331E+00
         21   -1    0    0  506  501  0.00000000000E+00  0.00000000000E+00  0.12837315015E+03  0.12837315015E+03  0.00000000000E+00 0. -1.
         21   -1    0    0  503  502 -0.00000000000E+00 -0.00000000000E+00 -0.38311627331E+03  0.38311627331E+03  0.00000000000E+00 0. -1.
         21    1    1    2  503  501  0.99734209644E+02  0.11425140595E+02 -0.86810419250E+02  0.13271584420E+03  0.00000000000E+00 0. -1.
         21    1    1    2  504  505 -0.64209502025E+02  0.29788808814E+02 -0.20295841062E+02  0.73635279895E+02  0.00000000000E+00 0. -1.
         21    1    1    2  505  502  0.19518814970E+02 -0.27968646463E+02 -0.21468928608E+03  0.21738150538E+03  0.00000000000E+00 0. -1.
         21    1    1    2  506  504 -0.55043522589E+02 -0.13245302946E+02  0.67052423237E+02  0.87756793988E+02  0.00000000000E+00 0. -1.
<scales pt_clust_3="83.15424" pt_clust_4="14000.00000" pt_clust_5="34.10615" pt_clust_6="55.87900"></scales>
<clustering>
<clus scale="   34.106">  2  5  1 -1</clus>
<clus scale="   55.879">  1  6  2 -1</clus>
<clus scale="   83.154">  1  3  2 -1</clus>
<clus scale="   55.879">  1  3  2 -1</clus>
</clustering>
</event>
<event>
 6    0  0.9315069E+002  0.8016401E+02  0.7546771E-02  0.1328587E+00
         21   -1    0    0  505  501  0.00000000000E+00  0.00000000000E+00  0.81793004846E+03  0.81793004846E+03  0.00000000000E+00 0.  1.
         21   -1    0    0  503  502 -0.00000000000E+00 -0.00000000000E+00 -0.64623546415E+02  0.64623546415E+02  0.00000000000E+00 0.  1.
         21    1    1    2  503  504  0.10642697352E+02 -0.30859752918E+02  0.28349718610E+02  0.43235377902E+02  0.00000000000E+00 0. -1.
         21    1    1    2  504  501  0.79624317914E+02 -0.34657867255E+02  0.59976742814E+03  0.60602159006E+03  0.00000000000E+00 0.  1.
         21    1    1    2  505  506 -0.68660549702E+02 -0.24062415929E+01  0.14402518126E+03  0.15957228432E+03  0.00000000000E+00 0.  1.
         21    1    1    2  506  502 -0.21606465563E+02  0.67923861767E+02 -0.18835825965E+02  0.73724342596E+02  0.00000000000E+00 0.  1.
<scales pt_clust_3="32.64340" pt_clust_4="80.16401" pt_clust_5="14000.00000" pt_clust_6="44.86934"></scales>
<clustering>
<clus scale="   32.643">  2  3  1 -1</clus>
<clus scale="   44.869">  2  6  1 -1</clus>
<clus scale="   80.164">  1  4  2 -1</clus>
<clus scale="   80.164">  1  3  2 -1</clus>
</clustering>
</event>
<event>
 6    0  0.9315069E+002  0.7588565E+02  0.7546771E-02  0.1341150E+00
         21   -1    0    0  503  501  0.00000000000E+00  0.00000000000E+00  0.27528912654E+03  0.27528912654E+03  0.00000000000E+00 0.  1.
         21   -1    0    0  506  502 -0.00000000000E+00 -0.00000000000E+00 -0.33208553295E+03  0.33208553295E+03  0.00000000000E+00 0. -1.
         21    1    1    2  503  504 -0.19634871903E+02  0.61740930079E+02  0.59836290162E+02  0.88192132654E+02  0.00000000000E+00 0.  1.
         21    1    1    2  504  502  0.11509910410E+03 -0.14654964995E+02  0.13514372224E+03  0.17811905408E+03  0.00000000000E+00 0.  1.
         21    1    1    2  505  501 -0.21197613548E+02 -0.38833316243E+02  0.27413514462E+02  0.52046767870E+02  0.00000000000E+00 0.  1.
         21    1    1    2  506  505 -0.74266618654E+02 -0.82526488410E+01 -0.27918993328E+03  0.28901670489E+03  0.00000000000E+00 0. -1.
<scales pt_clust_3="56.08547" pt_clust_4="75.88565" pt_clust_5="44.24212" pt_clust_6="14000.00000"></scales>
<clustering>
<clus scale="   44.242">  1  5  2 -1</clus>
<clus scale="   56.085">  1  3  2 -1</clus>
<clus scale="   75.886">  1  4  2 -1</clus>
<clus scale="   44.242">  1  3  2 -1</clus>
</clustering>
</event>
<event>
 6    0  0.9315069E+002  0.1443931E+03  0.7546771E-02  0.1207537E+00
         21   -1    0    0  503  501  0.00000000000E+00  0.00000000000E+00  0.28183640681E+03  0.28183640681E+03  0.00000000000E+00 0.  1.
         21   -1    0    0  504  502 -0.00000000000E+00 -0.00000000000E+00 -0.11268478616E+04  0.11268478616E+04  0.00000000000E+00 0. -1.
         21    1    1    2  503  502 -0.77645857651E+02 -0.11772460535E+03 -0.11743132496E+03  0.18351587941E+03  0.00000000000E+00 0. -1.
         21    1    1    2  504  506  0.38585480865E+02 -0.16368206342E+02 -0.95478160205E+03  0.95570113797E+03  0.00000000000E+00 0. -1.
         21    1    1    2  505  501  0.18759536022E+02  0.79420655463E+02  0.96733743631E+02  0.12655819951E+03  0.00000000000E+00 0.  1.
         21    1    1    2  506  505  0.20300840764E+02  0.54672156228E+02  0.13046772859E+03  0.14290905152E+03  0.00000000000E+00 0.  1.
<scales pt_clust_3="139.15409" pt_clust_4="41.91369" pt_clust_5="32.58227" pt_clust_6="32.58227"></scales>
<clustering>
<clus scale="   32.582">  5  6 -1 -1</clus>
<clus scale="   41.914">  2  4  1 -1</clus>
<clus scale="  139.154">  2  3  1 -1</clus>
<clus scale="  144.393">  1  3  2 -1</clus>
</clustering>
</event>
<event>
 6    0  0.9315069E+002  0.1135674E+03  0.7546771E-02  0.1254103E+00
         21   -1    0    0  505  501  0.00000000000E+00  0.00000000000E+00  0.23813795450E+04  0.23813795450E+04  0.00000000000E+00 0. -1.
         21   -1    0    0  503  502 -0.00000000000E+00 -0.00000000000E+00 -0.22630918498E+02  0.22630918498E+02  0.00000000000E+00 0. -1.
         21    1    1    2  503  501  0.80633266609E+02  0.12973795780E+03  0.97161099286E+03  0.98354541473E+03  0.00000000000E+00 0. -1.
         21    1    1    2  504  502  0.18644355490E+02  0.30704185854E+02  0.29289089369E+02  0.46348783983E+02  0.00000000000E+00 0. -1.
         21    1    1    2  505  506 -0.40793921771E+02 -0.89113860942E+02  0.99158039827E+03  0.99641211880E+03  0.00000000000E+00 0. -1.
         21    1    1    2  506  504 -0.58483700328E+02 -0.71328282715E+02  0.36626814599E+03  0.37770414597E+03  0.00000000000E+00 0.  1.
<scales pt_clust_3="113.56740" pt_clust_4="35.92157" pt_clust_5="14000.00000" pt_clust_6="77.84456"></scales>
<clustering>
<clus scale="   35.922">  2  4  1 -1</clus>
<clus scale="   77.845">  2  6  1 -1</clus>
<clus scale="  113.567">  2  3  1 -1</clus>
<clus scale="  113.567">  1  3  2 -1</clus>
</clustering>
</event>
<event>
 6    0  0.9315069E+002  0.1494379E+03  0.7546771E-02  0.1201165E+00
         21   -1    0    0  505  501  0.00000000000E+00  0.00000000000E+00  0.79409574689E+03  0.79409574689E+03  0.00000000000E+00 0.  1.
         21   -1    0    0  501  502 -0.00000000000E+00 -0.00000000000E+00 -0.58684343469E+03  0.58684343469E+03  0.00000000000E+00 0. -1.
         21    1    1    2  503  502  0.42269242789E+02  0.60709863552E+02 -0.24528410387E+03  0.25619654180E+03  0.00000000000E+00 0. -1.
         21    1    1    2  504  506  0.69064964995E+01 -0.10976999913E+03 -0.32894828783E+02  0.11480079339E+03  0.00000000000E+00 0.  1.
         21    1    1    2  505  504 -0.25426356857E+02 -0.29233301663E+02  0.74078687841E+03  0.74179935615E+03  0.00000000000E+00 0.  1.
         21    1    1    2  506  503 -0.23749382431E+02  0.78293437237E+02 -0.25535563357E+03  0.26814249025E+03  0.00000000000E+00 0. -1.
<scales pt_clust_3="63.85393" pt_clust_4="133.06136" pt_clust_5="38.74385" pt_clust_6="63.85393"></scales>
<clustering>
<clus scale="   38.744">  1  5  2 -1</clus>
<clus scale="   63.854">  3  6 -1 -1</clus>
<clus scale="  133.061">  1  4  2 -1</clus>
<clus scale="   38.744">  1  3  2 -1</clus>
</clustering>
</event>
<event>
 6    0  0.9315069E+002  0.2177094E+03  0.7546771E-02  0.1135602E+00
         21   -1    0    0  503  501  0.00000000000E+00  0.00000000000E+00  0.38689078653E+03  0.38689078653E+03  0.00000000000E+00 0.  1.
         21   -1    0    0  504  502 -0.00000000000E+00 -0.00000000000E+00 -0.15627815016E+03  0.15627815016E+03  0.00000000000E+00 0.  1.
         21    1    1    2  503  506 -0.53491548050E+02 -0.51343045153E+02  0.63290917047E+02  0.97484327863E+02  0.00000000000E+00 0.  1.
         21    1    1    2  504  505 -0.46086994296E+02 -0.10752306328E+02 -0.11869749745E+02  0.48790512332E+02  0.00000000000E+00 0.  1.
         21    1    1    2  505  501  0.14731562596E+03  0.17535002913E+03  0.13742786045E+03  0.26708789415E+03  0.00000000000E+00 0.  1.
         21    1    1    2  506  502 -0.47737083618E+02 -0.11325467765E+03  0.41763608614E+02  0.12980620234E+03  0.00000000000E+00 0.  1.
<scales pt_clust_3="44.51610" pt_clust_4="47.32466" pt_clust_5="210.02977" pt_clust_6="44.51610"></scales>
<clustering>
<clus scale="   44.516">  3  6 -1 -1</clus>
<clus scale="   47.325">  2  4  1 -1</clus>
<clus scale="  210.030">  2  5  1 -1</clus>
<clus scale="  217.709">  1  3  2 -1</clus>
</clustering>
</event>
<event>
 6    0  0.9315069E+002  0.9030038E+02  0.7546771E-02  0.1302126E+00
         21   -1    0    0  506  501  0.00000000000E+00  0.00000000000E+00  0.32975213129E+03  0.32975213129E+03  0.00000000000E+00 0.  1.
         21   -1    0    0  503  502 -0.00000000000E+00 -0.00000000000E+00 -0.82678812321E+03  0.82678812321E+03  0.00000000000E+00 0.  1.
         21    1    1    2  503  504  0.49592803408E+02  0.63541860196E+01 -0.83814105094E+02  0.97594190619E+02  0.00000000000E+00 0.  1.
         21    1    1    2  504  505 -0.35534413538E+02  0.38218883254E+02 -0.13706629263E+03  0.14666474068E+03  0.00000000000E+00 0.  1.
         21    1    1    2  505  501 -0.53524603476E+02  0.72352822123E+02  0.30508587033E+03  0.31808364045E+03  0.00000000000E+00 0.  1.
         21    1    1    2  506  502  0.39466213606E+02 -0.11692589140E+03 -0.58124146453E+03  0.59419768275E+03  0.00000000000E+00 0.  1.
<scales pt_clust_3="49.99822" pt_clust_4="47.22885" pt_clust_5="14000.00000" pt_clust_6="90.30038"></scales>
<clustering>
<clus scale="   49.998">  2  3  1 -1</clus>
<clus scale="   47.229">  2  4  1 -1</clus>
<clus scale="   90.300">  2  6  1 -1</clus>
<clus scale="   90.300">  1  3  2 -1</clus>
</clustering>
</event>
<event>
 6    0  0.9315069E+002  0.1793119E+03  0.7546771E-02  0.1168471E+00
         21   -1    0    0  503  501  0.00000000000E+00  0.00000000000E+00  0.15579536525E+03  0.15579536525E+03  0.00000000000E+00 0.  1.
         21   -1    0    0  504  502 -0.00000000000E+00 -0.00000000000E+00 -0.29065209229E+03  0.29065209229E+03  0.00000000000E+00 0.  1.
         21    1    1    2  503  506  0.14757565314E+02 -0.55759963603E+02 -0.11560813432E+02  0.58826963905E+02  0.00000000000E+00 0.  1.
         21    1    1    2  504  505 -0.42712086684E+02  0.17165040295E+02 -0.16782464245E+02  0.48996041303E+02  0.00000000000E+00 0. -1.
         21    1    1    2  505  501  0.22421957543E+02  0.16414757611E+03  0.11705897948E+02  0.16608491494E+03  0.00000000000E+00 0.  1.
         21    1    1    2  506  502  0.55325638269E+01 -0.12555265280E+03 -0.11821934731E+03  0.17253953740E+03  0.00000000000E+00 0.  1.
<scales pt_clust_3="39.51216" pt_clust_4="46.03217" pt_clust_5="169.56157" pt_clust_6="39.51216"></scales>
<clustering>
<clus scale="   39.512">  3  6 -1 -1</clus>
<clus scale="   46.032">  2  4  1 -1</clus>
<clus scale="  169.562">  1  5  2 -1</clus>
<clus scale="  169.562">  1  3  2 -1</clus>
</clustering>
</event>
<event>
 6    0  0.9315069E+002  0.1677874E+03  0.7546771E-02  0.1180175E+00
         21   -1    0    0  504  501  0.00000000000E+00  0.00000000000E+00  0.62751755317E+03  0.62751755317E+03  0.00000000000E+00 0. -1.
         21   -1    0    0  505  502 -0.00000000000E+00 -0.00000000000E+00 -0.66336138589E+03  0.66336138589E+03  0.00000000000E+00 0. -1.
         21    1    1    2  503  502  0.39715880762E+02 -0.56423002250E+02 -0.10016953998E+03  0.12163405406E+03  0.00000000000E+00 0. -1.
         21    1    1    2  504  503 -0.44823549633E+02 -0.56241863243E+02  0.53699791929E+03  0.54179245390E+03  0.00000000000E+00 0. -1.
         21    1    1    2  505  506  0.12213227926E+03  0.15695212374E+03 -0.46065746479E+03  0.50175249142E+03  0.00000000000E+00 0. -1.
         21    1    1    2  506  501 -0.11702461039E+03 -0.44287258251E+02 -0.12014747247E+02  0.12569993966E+03  0.00000000000E+00 0. -1.
<scales pt_clust_3="68.99932" pt_clust_4="72.00332" pt_clust_5="167.78737" pt_clust_6="14000.00000"></scales>
<clustering>
<clus scale="   68.999">  2  3  1 -1</clus>
<clus scale="   72.003">  1  4  2 -1</clus>
<clus scale="  167.787">  2  5  1 -1</clus>
<clus scale="   72.003">  1  3  2 -1</clus>
</clustering>
</event>
<event>
 6    0  0.9315069E+002  0.1043927E+03  0.7546771E-02  0.1271321E+00
         21   -1    0    0  505  501  0.00000000000E+00  0.00000000000E+00  0.17364400527E+03  0.17364400527E+03  0.00000000000E+00 0.  1.
         21   -1    0    0  503  502 -0.00000000000E+00 -0.00000000000E+00 -0.21743117996E+03  0.21743117996E+03  0.00000000000E+00 0.  1.
         21    1    1    2  503  504 -0.49741078291E+01 -0.63495877543E+02 -0.73662315335E+02  0.97378667654E+02  0.00000000000E+00 0.  1.
         21    1    1    2  504  506 -0.29748282653E+02 -0.17959255030E+02 -0.44158627326E+02  0.56191454237E+02  0.00000000000E+00 0.  1.
         21    1    1    2  505  502 -0.56930104543E+01  0.12116759369E+03 -0.24585269721E+02  0.12376765174E+03  0.00000000000E+00 0.  1.
         21    1    1    2  506  501  0.40415400936E+02 -0.39712461121E+02  0.98619037694E+02  0.11373741160E+03  0.00000000000E+00 0.  1.
<scales pt_clust_3="31.86817" pt_clust_4="31.86817" pt_clust_5="95.06003" pt_clust_6="56.66113"></scales>
<clustering>
<clus scale="   31.868">  3  4 -1 -1</clus>
<clus scale="   56.661">  1  6  2 -1</clus>
<clus scale="   95.060">  1  5  2 -1</clus>
<clus scale="   56.661">  1  3  2 -1</clus>
</clustering>
</event>
<event>
 6    0  0.9315069E+002  0.1189902E+03  0.7546771E-02  0.1244772E+00
         21   -1    0    0  504  501  0.00000000000E+00  0.00000000000E+00  0.97380483889E+03  0.97380483889E+03  0.00000000000E+00 0.  1.
         21   -1    0    0  506  502 -0.00000000000E+00 -0.00000000000E+00 -0.43934888590E+02  0.43934888590E+02  0.00000000000E+00 0.  1.
         21    1    1    2  503  505  0.56875328354E+02  0.11076556205E+03  0.28900794276E+03  0.31468937652E+03  0.00000000000E+00 0.  1.
         21    1    1    2  504  503 -0.47838471267E+01 -0.11994821676E+03  0.49716643305E+03  0.51145373403E+03  0.00000000000E+00 0.  1.
         21    1    1    2  505  502 -0.82071970869E+02  0.30775375761E+02  0.84073614214E+02  0.12145494952E+03  0.00000000000E+00 0.  1.
         21    1    1    2  506  501  0.29980489642E+02 -0.21592721054E+02  0.59621960264E+02  0.70141667413E+02  0.00000000000E+00 0. -1.
<scales pt_clust_3="14000.00000" pt_clust_4="118.99023" pt_clust_5="70.57765" pt_clust_6="36.94693"></scales>
<clustering>
<clus scale="   36.947">  2  6  1 -1</clus>
<clus scale="   70.578">  2  5  1 -1</clus>
<clus scale="  118.990">  1  4  2 -1</clus>
<clus scale="  118.990">  1  3  2 -1</clus>
</clustering>
</event>
<event>
 6    0  0.9315069E+002  0.7478187E+02  0.7546771E-02  0.1344548E+00
         21   -1    0    0  503  501  0.00000000000E+00  0.00000000000E+00  0.54574262808E+02  0.54574262808E+02  0.00000000000E+00 0. -1.
         21   -1    0    0  504  502 -0.00000000000E+00 -0.00000000000E+00 -0.47115872597E+03  0.47115872597E+03  0.00000000000E+00 0. -1.
         21    1    1    2  503  502  0.74919094576E+02  0.39315512425E+02 -0.65732758899E+02  0.10714184916E+03  0.00000000000E+00 0. -1.
         21    1    1    2  504  505 -0.19811259795E+02 -0.50538701642E+02 -0.25178279194E+03  0.25756789531E+03  0.00000000000E+00 0. -1.
         21    1    1    2  505  506 -0.52050747736E+02 -0.40055534834E+02 -0.85642969667E+02  0.10792795960E+03  0.00000000000E+00 0. -1.
         21    1    1    2  506  501 -0.30570870448E+01  0.51278724051E+02 -0.13425942658E+02  0.53095284704E+02  0.00000000000E+00 0. -1.
<scales pt_clust_3="14000.00000" pt_clust_4="50.43273" pt_clust_5="74.78187" pt_clust_6="51.36977"></scales>
<clustering>
<clus scale="   51.370">  1  6  2 -1</clus>
<clus scale="   50.433">  2  4  1 -1</clus>
<clus scale="   74.782">  1  5  2 -1</clus>
<clus scale="   51.370">  1  3  2 -1</clus>
</clustering>
</event>
<event>
 6    0  0.9315069E+002  0.1525606E+03  0.7546771E-02  0.1197361E+00
         21   -1    0    0  505  501  0.00000000000E+00  0.00000000000E+00  0.13730760089E+04  0.13730760089E+04  0.00000000000E+00 0. -1.
         21   -1    0    0  503  502 -0.00000000000E+00 -0.00000000000E+00 -0.14367785577E+03  0.14367785577E+03  0.00000000000E+00 0.  1.
         21    1    1    2  503  504  0.33876440796E+02  0.86653991219E+01  0.93774228276E+01  0.36202740805E+02  0.00000000000E+00 0.  1.
         21    1    1    2  504  506 -0.70040225844E+02  0.26087594902E+01  0.57895861821E+02  0.90908578684E+02  0.00000000000E+00 0.  1.
         21    1    1    2  505  502 -0.11791387292E+03 -0.10794538670E+02 -0.76826534743E+02  0.14114715701E+03  0.00000000000E+00 0.  1.
         21    1    1    2  506  501  0.15407765797E+03 -0.47961994208E+00  0.12389514033E+04  0.12484953882E+04  0.00000000000E+00 0. -1.
<scales pt_clust_3="34.96716" pt_clust_4="65.85203" pt_clust_5="152.56065" pt_clust_6="14000.00000"></scales>
<clustering>
<clus scale="   34.967">  2  3  1 -1</clus>
<clus scale="   65.852">  2  4  1 -1</clus>
<clus scale="  152.561">  2  5  1 -1</clus>
<clus scale="  152.561">  1  3  2 -1</clus>
</clustering>
</event>
<event>
 6    0  0.9315069E+002  0.9494854E+02  0.7546771E-02  0.1291292E+00
         21   -1    0    0  505  501  0.00000000000E+00  0.00000000000E+00  0.23608121424E+04  0.23608121424E+04  0.00000000000E+00 0.  1.
         21   -1    0    0  506  502 -0.00000000000E+00 -0.00000000000E+00 -0.22740194290E+02  0.22740194290E+02  0.00000000000E+00 0. -1.
         21    1    1    2  503  501 -0.17905146386E+01  0.96675870829E+02  0.20035415196E+04  0.20058733885E+04  0.00000000000E+00 0.  1.
         21    1    1    2  504  503 -0.62405708055E+02 -0.75209716523E+02  0.17406269154E+03  0.19962162820E+03  0.00000000000E+00 0. -1.
         21    1    1    2  505  502  0.35693681706E+02 -0.10189045403E+02  0.43718309138E+02  0.57351077704E+02  0.00000000000E+00 0. -1.
         21    1    1    2  506  504  0.28502540988E+02 -0.11277108903E+02  0.11674942784E+03  0.12070624229E+03  0.00000000000E+00 0. -1.
<scales pt_clust_3="94.94854" pt_clust_4="14000.00000" pt_clust_5="47.14454" pt_clust_6="30.65237"></scales>
<clustering>
<clus scale="   30.652">  2  6  1 -1</clus>
<clus scale="   47.145">  2  5  1 -1</clus>
<clus scale="   94.949">  1  3  2 -1</clus>
<clus scale="   94.949">  1  3  2 -1</clus>
</clustering>
</event>
<event>
 6    0  0.9315069E+002  0.1091596E+03  0.7546771E-02  0.1262134E+00
         21   -1    0    0  505  501  0.00000000000E+00  0.00000000000E+00  0.66548710348E+02  0.66548710348E+02  0.00000000000E+00 0. -1.
         21   -1    0    0  506  502 -0.00000000000E+00 -0.00000000000E+00 -0.68308103057E+03  0.68308103057E+03  0.00000000000E+00 0. -1.
         21    1    1    2  503  501 -0.45819448526E+02  0.12455371397E+02  0.36518407402E+02  0.59901187125E+02  0.00000000000E+00 0. -1.
         21    1    1    2  504  502  0.14280746998E+02 -0.56309678772E+02 -0.26924124597E+03  0.27543704941E+03  0.00000000000E+00 0. -1.
         21    1    1    2  505  504 -0.17670198956E+02 -0.47765151465E+02 -0.14957298331E+03  0.15800576876E+03  0.00000000000E+00 0. -1.
         21    1    1    2  506  503  0.49208900484E+02  0.91619458839E+02 -0.23423649835E+03  0.25628573562E+03  0.00000000000E+00 0. -1.
<scales pt_clust_3="47.48219" pt_clust_4="37.73550" pt_clust_5="37.73550" pt_clust_6="101.44730"></scales>
<clustering>
<clus scale="   37.735">  4  5 -1 -1</clus>
<clus scale="   47.482">  1  3  2 -1</clus>
<clus scale="  101.447">  1  6  2 -1</clus>
<clus scale="   47.482">  1  3  2 -1</clus>
</clustering>
</event>
<event>
 6    0  0.9315069E+002  0.1663916E+03  0.7546771E-02  0.1181664E+00
         21   -1    0    0  503  501  0.00000000000E+00  0.00000000000E+00  0.10454723843E+04  0.10454723843E+04  0.00000000000E+00 0. -1.
         21   -1    0    0  505  502 -0.00000000000E+00 -0.00000000000E+00 -0.23197407591E+03  0.23197407591E+03  0.00000000000E+00 0.  1.
         21    1    1    2  503  502 -0.75136154627E+02 -0.35927065491E+01  0.12186048520E+03  0.14320728726E+03  0.00000000000E+00 0. -1.
         21    1    1    2  504  501  0.30944520932E+02 -0.42225079732E+02  0.40443263786E+03  0.40780666902E+03  0.00000000000E+00 0. -1.
         21    1    1    2  505  506  0.78595731599E+01  0.15659118572E+03 -0.18358388506E+03  0.24142413962E+03  0.00000000000E+00 0.  1.
         21    1    1    2  506  504  0.36332060535E+02 -0.11077339944E+03  0.47078907043E+03  0.48500836435E+03  0.00000000000E+00 0. -1.
<scales pt_clust_3="75.22200" pt_clust_4="37.73493" pt_clust_5="156.57328" pt_clust_6="37.73493"></scales>
<clustering>
<clus scale="   37.735">  4  6 -1 -1</clus>
<clus scale="   75.222">  1  3  2 -1</clus>
<clus scale="  156.573">  2  5  1 -1</clus>
<clus scale="   75.222">  1  3  2 -1</clus>
</clustering>
</event>
<event>
 6    0  0.9315069E+002  0.9780162E+02  0.7546771E-02  0.1284988E+00
         21   -1    0    0  502  501  0.00000000000E+00  0.00000000000E+00  0.29624294255E+03  0.29624294255E+03  0.00000000000E+00 0. -1.
         21   -1    0    0  503  502 -0.00000000000E+00 -0.00000000000E+00 -0.13749179112E+03  0.13749179112E+03  0.00000000000E+00 0.  1.
         21    1    1    2  503  504  0.85914232722E+02  0.48195057277E+02 -0.86149274117E+02  0.13086526033E+03  0.00000000000E+00 0.  1.
         21    1    1    2  504  505 -0.77622711097E+02 -0.47987855230E+02  0.19922701545E+03  0.21913357390E+03  0.00000000000E+00 0. -1.
         21    1    1    2  505  506 -0.35901422824E+02 -0.13902353019E+02  0.18795237417E+02  0.42842134982E+02  0.00000000000E+00 0.  1.
         21    1    1    2  506  501  0.27609901198E+02  0.13695150971E+02  0.26878172681E+02  0.40893764451E+02  0.00000000000E+00 0.  1.
<scales pt_clust_3="97.80162" pt_clust_4="14000.00000" pt_clust_5="34.89536" pt_clust_6="30.81986"></scales>
<clustering>
<clus scale="   30.820">  1  6  2 -1</clus>
<clus scale="   34.895">  1  5  2 -1</clus>
<clus scale="   97.802">  2  3  1 -1</clus>
<clus scale="   30.820">  1  3  2 -1</clus>
</clustering>
</event>
<event>
 6    0  0.9315069E+002  0.1039204E+03  0.7546771E-02  0.1272261E+00
         21   -1    0    0  506  501  0.00000000000E+00  0.00000000000E+00  0.98634357404E+03  0.98634357404E+03  0.00000000000E+00 0. -1.
         21   -1    0    0  504  502 -0.00000000000E+00 -0.00000000000E+00 -0.13007071419E+03  0.13007071419E+03  0.00000000000E+00 0.  1.
         21    1    1    2  503  501  0.36510301921E+02 -0.95928873171E+01  0.79356835922E+03  0.79446571127E+03  0.00000000000E+00 0. -1.
         21    1    1    2  504  503  0.49412767551E+02 -0.70479079581E+02  0.63713895676E+02  0.10709053533E+03  0.00000000000E+00 0. -1.
         21    1    1    2  505  502 -0.60258466242E+01  0.11903055540E+03 -0.27087023002E+02  0.12222230059E+03  0.00000000000E+00 0.  1.
         21    1    1    2  506  505 -0.79897222848E+02 -0.38958588500E+02  0.26077627958E+02  0.92635741033E+02  0.00000000000E+00 0. -1.
<scales pt_clust_3="37.74951" pt_clust_4="14000.00000" pt_clust_5="103.92039" pt_clust_6="80.41885"></scales>
<clustering>
<clus scale="   37.750">  1  3  2 -1</clus>
<clus scale="   80.419">  1  6  2 -1</clus>
<clus scale="  103.920">  2  5  1 -1</clus>
<clus scale="   37.750">  1  3  2 -1</clus>
</clustering>
</event>
<event>
 6    0  0.9315069E+002  0.1575321E+03  0.7546771E-02  0.1191511E+00
         21   -1    0    0  503  501  0.00000000000E+00  0.00000000000E+00  0.40442221638E+03  0.40442221638E+03  0.00000000000E+00 0.  1.
         21   -1    0    0  505  502 -0.00000000000E+00 -0.00000000000E+00 -0.81413986542E+03  0.81413986542E+03  0.00000000000E+00 0.  1.
         21    1    1    2  503  504 -0.80962001735E+02  0.27195769257E+02  0.21406137156E+03  0.23047066274E+03  0.00000000000E+00 0.  1.
         21    1    1    2  504  502  0.57935624364E+02 -0.15076272451E+03 -0.74782512042E+03  0.76506754369E+03  0.00000000000E+00 0.  1.
         21    1    1    2  505  506  0.26314251991E+02  0.69326614030E+02 -0.13284515535E+02  0.75333243815E+02  0.00000000000E+00 0.  1.
         21    1    1    2  506  501 -0.32878746211E+01  0.54240341225E+02  0.13733061536E+03  0.14769063156E+03  0.00000000000E+00 0.  1.
<scales pt_clust_3="157.53213" pt_clust_4="14000.00000" pt_clust_5="80.06495" pt_clust_6="54.33990"></scales>
<clustering>
<clus scale="   54.340">  1  6  2 -1</clus>
<clus scale="   80.065">  1  5  2 -1</clus>
<clus scale="  157.532">  1  3  2 -1</clus>
<clus scale="   54.340">  1  3  2 -1</clus>
</clustering>
</event>
<event>
 6    0  0.9315069E+002  0.4059534E+03  0.7546771E-02  0.1041738E+00
         21   -1    0    0  506  501  0.00000000000E+00  0.00000000000E+00  0.12582845401E+03  0.12582845401E+03  0.00000000000E+00 0.  1.
         21   -1    0    0  504  502 -0.00000000000E+00 -0.00000000000E+00 -0.20780488662E+04  0.20780488662E+04  0.00000000000E+00 0.  1.
         21    1    1    2  503  505 -0.25059545673E+02  0.52574724006E+02 -0.13875065027E+03  0.15047865424E+03  0.00000000000E+00 0. -1.
         21    1    1    2  504  503  0.19117184140E+00  0.52834953197E+02 -0.32059548348E+03  0.32492004070E+03  0.00000000000E+00 0.  1.
         21    1    1    2  505  501 -0.38626111261E+03  0.61435008652E+02 -0.45659496739E+03  0.60120784397E+03  0.00000000000E+00 0.  1.
         21    1    1    2  506  502  0.41112948644E+03 -0.16684468585E+03 -0.10362793111E+04  0.11272707813E+04  0.00000000000E+00 0.  1.
<scales pt_clust_3="62.19287" pt_clust_4="52.83530" pt_clust_5="14000.00000" pt_clust_6="405.95338"></scales>
<clustering>
<clus scale="   52.835">  2  4  1 -1</clus>
<clus scale="   62.193">  2  3  1 -1</clus>
<clus scale="  405.953">  2  6  1 -1</clus>
<clus scale="  405.953">  1  3  2 -1</clus>
</clustering>
</event>
<event>
 6    0  0.9315069E+002  0.8532216E+02  0.7546771E-02  0.1314592E+00
         21   -1    0    0  505  501  0.00000000000E+00  0.00000000000E+00  0.15874506193E+03  0.15874506193E+03  0.00000000000E+00 0.  1.
         21   -1    0    0  503  502 -0.00000000000E+00 -0.00000000000E+00 -0.24692219496E+03  0.24692219496E+03  0.00000000000E+00 0. -1.
         21    1    1    2  503  506 -0.48620985271E+02  0.96467607115E+00 -0.11160519603E+03  0.12174009442E+03  0.00000000000E+00 0. -1.
         21    1    1    2  504  502  0.80575274215E+02 -0.28464402363E+02 -0.14224623597E+01  0.85467072114E+02  0.00000000000E+00 0. -1.
         21    1    1    2  505  504  0.19743343533E+02 -0.34144190206E+02  0.87835920650E+02  0.96284860155E+02  0.00000000000E+00 0.  1.
         21    1    1    2  506  501 -0.51697632477E+02  0.61643916499E+02 -0.62985395295E+02  0.10217523020E+03  0.00000000000E+00 0. -1.
<scales pt_clust_3="47.14885" pt_clust_4="14000.00000" pt_clust_5="39.44142" pt_clust_6="85.32216"></scales>
<clustering>
<clus scale="   39.441">  1  5  2 -1</clus>
<clus scale="   47.149">  2  3  1 -1</clus>
<clus scale="   85.322">  1  6  2 -1</clus>
<clus scale="   39.441">  1  3  2 -1</clus>
</clustering>
</event>
<event>
 6    0  0.9315069E+002  0.7205798E+02  0.7546771E-02  0.1353231E+00
         21   -1    0    0  506  501  0.00000000000E+00  0.00000000000E+00  0.38444927835E+02  0.38444927835E+02  0.00000000000E+00 0.  1.
         21   -1    0    0  504  502 -0.00000000000E+00 -0.00000000000E+00 -0.55792351048E+03  0.55792351048E+03  0.00000000000E+00 0.  1.
         21    1    1    2  503  502  0.21479908320E+01  0.49499010330E+02 -0.10482316542E+03  0.11594249392E+03  0.00000000000E+00 0.  1.
         21    1    1    2  504  505 -0.32337472675E+02 -0.79861593714E+02 -0.15926348110E+03  0.18107579270E+03  0.00000000000E+00 0.  1.
         21    1    1    2  505  501 -0.42208398942E+02  0.19413927691E+02 -0.16200888796E+02  0.49202828449E+02  0.00000000000E+00 0.  1.
         21    1    1    2  506  503  0.72397880785E+02  0.10948655693E+02 -0.23919104733E+03  0.25014732325E+03  0.00000000000E+00 0.  1.
<scales pt_clust_3="55.08461" pt_clust_4="14000.00000" pt_clust_5="46.45912" pt_clust_6="72.05798"></scales>
<clustering>
<clus scale="   46.459">  1  5  2 -1</clus>
<clus scale="   55.085">  2  3  1 -1</clus>
<clus scale="   72.058">  2  6  1 -1</clus>
<clus scale="   46.459">  1  3  2 -1</clus>
</clustering>
</event>
<event>
 6    0  0.9315069E+002  0.1727952E+03  0.7546771E-02  0.1174964E+00
         21   -1    0    0  502  501  0.00000000000E+00  0.00000000000E+00  0.90193088328E+02  0.90193088328E+02  0.00000000000E+00 0.  1.
         21   -1    0    0  504  502 -0.00000000000E+00 -0.00000000000E+00 -0.32031377637E+03  0.32031377637E+03  0.00000000000E+00 0. -1.
         21    1    1    2  503  501 -0.96111423813E+02  0.36049578108E+02 -0.43464285271E+02  0.11147251663E+03  0.00000000000E+00 0.  1.
         21    1    1    2  504  505  0.11389691225E+03 -0.74683893182E+01 -0.58279320447E+02  0.12815913019E+03  0.00000000000E+00 0. -1.
         21    1    1    2  505  506  0.42614997083E+02 -0.21368554957E+02 -0.80113618573E+02  0.93224701652E+02  0.00000000000E+00 0. -1.
         21    1    1    2  506  503 -0.60400485517E+02 -0.72126338331E+01 -0.48263463747E+02  0.77650516228E+02  0.00000000000E+00 0. -1.
<scales pt_clust_3="165.38906" pt_clust_4="43.50024" pt_clust_5="43.50024" pt_clust_6="34.64955"></scales>
<clustering>
<clus scale="   34.650">  3  6 -1 -1</clus>
<clus scale="   43.500">  4  5 -1 -1</clus>
<clus scale="  165.389">  1  3  2 -1</clus>
<clus scale="  165.389">  1  3  2 -1</clus>
</clustering>
</event>
<event>
 6    0  0.9315069E+002  0.1085265E+03  0.7546771E-02  0.1263323E+00
         21   -1    0    0  504  501  0.00000000000E+00  0.00000000000E+00  0.25996616403E+03  0.25996616403E+03  0.00000000000E+00 0.  1.
         21   -1    0    0  503  502 -0.00000000000E+00 -0.00000000000E+00 -0.13841146750E+04  0.13841146750E+04  0.00000000000E+00 0.  1.
         21    1    1    2  503  501  0.74336447950E+01 -0.13189479502E+03 -0.27441357339E+03  0.30455591488E+03  0.00000000000E+00 0.  1.
         21    1    1    2  504  505 -0.31233503678E+02  0.11648977823E+02  0.23522533671E+03  0.23757564998E+03  0.00000000000E+00 0.  1.
         21    1    1    2  505  506  0.42938985354E+02  0.17592988539E+02 -0.87544676711E+02  0.99082491538E+02  0.00000000000E+00 0.  1.
         21    1    1    2  506  502 -0.19139126471E+02  0.10265282866E+03 -0.99741559754E+03  0.10028667826E+04  0.00000000000E+00 0.  1.
<scales pt_clust_3="14000.00000" pt_clust_4="33.33512" pt_clust_5="40.78700" pt_clust_6="108.52652"></scales>
<clustering>
<clus scale="   33.335">  1  4  2 -1</clus>
<clus scale="   40.787">  1  5  2 -1</clus>
<clus scale="  108.527">  2  6  1 -1</clus>
<clus scale="   33.335">  1  3  2 -1</clus>
</clustering>
</event>
<event>
 6    0  0.9315069E+002  0.2576679E+03  0.7546771E-02  0.1108553E+00
         21   -1    0    0  506  501  0.00000000000E+00  0.00000000000E+00  0.20727429774E+04  0.20727429774E+04  0.00000000000E+00 0. -1.
         21   -1    0    0  503  502 -0.00000000000E+00 -0.00000000000E+00 -0.24909657619E+03  0.24909657619E+03  0.00000000000E+00 0.  1.
         21    1    1    2  503  501 -0.24200224034E+03  0.65232109028E+02  0.19524356548E+04  0.19684575938E+04  0.00000000000E+00 0. -1.
         21    1    1    2  504  502 -0.32467152324E+02  0.12343934333E+01 -0.41817850340E+02  0.52956324591E+02  0.00000000000E+00 0. -1.
         21    1    1    2  505  504  0.92871288166E+02 -0.17971865079E+02 -0.56005258728E+02  0.10993021925E+03  0.00000000000E+00 0.  1.
         21    1    1    2  506  505  0.18159810450E+03 -0.48494637382E+02 -0.30966144478E+02  0.19049541600E+03  0.00000000000E+00 0.  1.
<scales pt_clust_3="251.89774" pt_clust_4="32.49061" pt_clust_5="37.45709" pt_clust_6="37.45709"></scales>
<clustering>
<clus scale="   32.491">  2  4  1 -1</clus>
<clus scale="   37.457">  5  6 -1 -1</clus>
<clus scale="  251.898">  1  3  2 -1</clus>
<clus scale="  251.898">  1  3  2 -1</clus>
</clustering>
</event>
<event>
 6    0  0.9315069E+002  0.1233388E+03  0.7546771E-02  0.1237689E+00
         21   -1    0    0  505  501  0.00000000000E+00  0.00000000000E+00  0.18649131296E+03  0.18649131296E+03  0.00000000000E+00 0. -1.
         21   -1    0    0  503  502 -0.00000000000E+00 -0.00000000000E+00 -0.12611709338E+04  0.12611709338E+04  0.00000000000E+00 0.  1.
         21    1    1    2  503  504  0.86088339827E+02 -0.31735645347E+02 -0.12990303299E+03  0.15903820742E+03  0.00000000000E+00 0. -1.
         21    1    1    2  504  506  0.59332011343E+02  0.11972158110E+02 -0.10052383504E+03  0.11733994013E+03  0.00000000000E+00 0. -1.
         21    1    1    2  505  502 -0.10363395605E+03  0.43524885062E+02 -0.10010207823E+04  0.10073117785E+04  0.00000000000E+00 0.  1.
         21    1    1    2  506  501 -0.41786395122E+02 -0.23761397824E+02  0.15676802957E+03  0.16397232065E+03  0.00000000000E+00 0. -1.
<scales pt_clust_3="33.98383" pt_clust_4="33.98383" pt_clust_5="116.02497" pt_clust_6="48.06981"></scales>
<clustering>
<clus scale="   33.984">  3  4 -1 -1</clus>
<clus scale="   48.070">  1  6  2 -1</clus>
<clus scale="  116.025">  2  5  1 -1</clus>
<clus scale="   48.070">  1  3  2 -1</clus>
</clustering>
</event>
<event>
 6    0  0.9315069E+002  0.7249316E+02  0.7546771E-02  0.1351814E+00
         21   -1    0    0  503  501  0.00000000000E+00  0.00000000000E+00  0.11274761092E+03  0.11274761092E+03  0.00000000000E+00 0.  1.
         21   -1    0    0  506  502 -0.00000000000E+00 -0.00000000000E+00 -0.93866090269E+03  0.93866090269E+03  0.00000000000E+00 0. -1.
         21    1    1    2  503  502 -0.41710462590E+02  0.28570716095E+02 -0.45702913003E+03  0.45981700078E+03  0.00000000000E+00 0. -1.
         21    1    1    2  504  501  0.35241991435E+01 -0.47354504570E+02  0.92108047861E+02  0.10362799604E+03  0.00000000000E+00 0.  1.
         21    1    1    2  505  504 -0.59881941797E+02  0.12206905762E+02 -0.15692324410E+03  0.16840356303E+03  0.00000000000E+00 0. -1.
         21    1    1    2  506  505  0.98068205243E+02  0.65768827126E+01 -0.30406896550E+03  0.31955995376E+03  0.00000000000E+00 0. -1.
<scales pt_clust_3="47.90411" pt_clust_4="47.48546" pt_clust_5="72.49316" pt_clust_6="14000.00000"></scales>
<clustering>
<clus scale="   47.485">  1  4  2 -1</clus>
<clus scale="   47.904">  2  3  1 -1</clus>
<clus scale="   72.493">  1  5  2 -1</clus>
<clus scale="   47.485">  1  3  2 -1</clus>
</clustering>
</event>
<event>
 6    0  0.9315069E+002  0.8307226E+02  0.7546771E-02  0.1320552E+00
         21   -1    0    0  504  501  0.00000000000E+00  0.00000000000E+00  0.39030143968E+03  0.39030143968E+03  0.00000000000E+00 0.  1.
         21   -1    0    0  505  502 -0.00000000000E+00 -0.00000000000E+00 -0.87945418153E+02  0.87945418153E+02  0.00000000000E+00 0.  1.
         21    1    1    2  503  501  0.42121215306E+02 -0.10783121546E+02  0.20089705685E+03  0.20554829102E+03  0.00000000000E+00 0.  1.
         21    1    1    2  504  502  0.23649332729E+02  0.92663866978E+02 -0.25342847176E+02  0.98935044776E+02  0.00000000000E+00 0.  1.
         21    1    1    2  505  506 -0.35523871922E+02 -0.82976948109E+01  0.23567516975E+02  0.43430692740E+02  0.00000000000E+00 0.  1.
         21    1    1    2  506  503 -0.30246676114E+02 -0.73583050621E+02  0.10323429488E+03  0.13033282930E+03  0.00000000000E+00 0.  1.
<scales pt_clust_3="42.51798" pt_clust_4="14000.00000" pt_clust_5="36.48009" pt_clust_6="83.07226"></scales>
<clustering>
<clus scale="   36.480">  2  5  1 -1</clus>
<clus scale="   42.518">  1  3  2 -1</clus>
<clus scale="   83.072">  1  6  2 -1</clus>
<clus scale="   42.518">  1  3  2 -1</clus>
</clustering>
</event>
<event>
 6    0  0.9315069E+002  0.8131967E+02  0.7546771E-02  0.1325348E+00
         21   -1    0    0  506  501  0.00000000000E+00  0.00000000000E+00  0.24067820366E+03  0.24067820366E+03  0.00000000000E+00 0. -1.
         21   -1    0    0  504  502 -0.00000000000E+00 -0.00000000000E+00 -0.10863859215E+03  0.10863859215E+03  0.00000000000E+00 0. -1.
         21    1    1    2  503  501  0.72309776071E+02  0.43132063291E+02  0.65944163283E+02  0.10694723592E+03  0.00000000000E+00 0. -1.
         21    1    1    2  504  503 -0.49673574004E+01 -0.60208798560E+02  0.45745015795E+01  0.60586303141E+02  0.00000000000E+00 0. -1.
         21    1    1    2  505  502 -0.63765873835E+01  0.68013181237E+02 -0.16668885179E+02  0.70315755146E+02  0.00000000000E+00 0.  1.
         21    1    1    2  506  505 -0.60965831287E+02 -0.50936445968E+02  0.78189831825E+02  0.11146750160E+03  0.00000000000E+00 0. -1.
<scales pt_clust_3="81.31967" pt_clust_4="60.41336" pt_clust_5="36.67297" pt_clust_6="14000.00000"></scales>
<clustering>
<clus scale="   60.413">  2  4  1 -1</clus>
<clus scale="   36.673">  2  5  1 -1</clus>
<clus scale="   81.320">  2  3  1 -1</clus>
<clus scale="   81.320">  1  3  2 -1</clus>
</clustering>
</event>
<event>
 6    0  0.9315069E+002  0.1458268E+03  0.7546771E-02  0.1205697E+00
         21   -1    0    0  505  501  0.00000000000E+00  0.00000000000E+00  0.14133812549E+04  0.14133812549E+04  0.00000000000E+00 0. -1.
         21   -1    0    0  504  502 -0.00000000000E+00 -0.00000000000E+00 -0.17988245755E+04  0.17988245755E+04  0.00000000000E+00 0.  1.
         21    1    1    2  503  501 -0.37395500827E+02  0.37739081102E+02  0.78058265797E+02  0.94423273528E+02  0.00000000000E+00 0. -1.
         21    1    1    2  504  503 -0.14033899056E+03  0.41799374125E+02 -0.17521579633E+04  0.17582661199E+04  0.00000000000E+00 0.  1.
         21    1    1    2  505  506  0.45851618928E+02 -0.16952856512E+03  0.10928338150E+04  0.11068550278E+04  0.00000000000E+00 0. -1.
         21    1    1    2  506  502  0.13188287246E+03  0.89990109889E+02  0.19582256186E+03  0.25266140912E+03  0.00000000000E+00 0. -1.
<scales pt_clust_3="53.12873" pt_clust_4="145.82675" pt_clust_5="139.04936" pt_clust_6="14000.00000"></scales>
<clustering>
<clus scale="   53.129">  1  3  2 -1</clus>
<clus scale="  139.049">  1  5  2 -1</clus>
<clus scale="  145.827">  2  4  1 -1</clus>
<clus scale="   53.129">  1  3  2 -1</clus>
</clustering>
</event>
<event>
 6    0  0.9315069E+002  0.9999933E+02  0.7546771E-02  0.1280297E+00
         21   -1    0    0  506  501  0.00000000000E+00  0.00000000000E+00  0.65633369395E+03  0.65633369395E+03  0.00000000000E+00 0. -1.
         21   -1    0    0  503  502 -0.00000000000E+00 -0.00000000000E+00 -0.51257966769E+03  0.51257966769E+03  0.00000000000E+00 0. -1.
         21    1    1    2  503  505 -0.43157375647E+02 -0.23710464465E+02 -0.13499230240E+03  0.14369296052E+03  0.00000000000E+00 0. -1.
         21    1    1    2  504  502  0.60836787128E+02  0.11889369625E+03 -0.33248900538E+03  0.35830959291E+03  0.00000000000E+00 0. -1.
         21    1    1    2  505  501 -0.72515486082E+02 -0.12505951402E+03  0.57872694984E+03  0.59650922896E+03  0.00000000000E+00 0. -1.
         21    1    1    2  506  504  0.54836074602E+02  0.29876282234E+02  0.32508384193E+02  0.70401579249E+02  0.00000000000E+00 0. -1.
<scales pt_clust_3="49.24170" pt_clust_4="99.99933" pt_clust_5="14000.00000" pt_clust_6="59.94704"></scales>
<clustering>
<clus scale="   49.242">  2  3  1 -1</clus>
<clus scale="   59.947">  1  6  2 -1</clus>
<clus scale="   99.999">  2  4  1 -1</clus>
<clus scale="   59.947">  1  3  2 -1</clus>
</clustering>
</event>
<event>
 6    0  0.9315069E+002  0.8316748E+02  0.7546771E-02  0.1320296E+00
         21   -1    0    0  505  501  0.00000000000E+00  0.00000000000E+00  0.73440719056E+02  0.73440719056E+02  0.00000000000E+00 0. -1.
         21   -1    0    0  503  502 -0.00000000000E+00 -0.00000000000E+00 -0.13100839701E+04  0.13100839701E+04  0.00000000000E+00 0.  1.
         21    1    1    2  503  506 -0.27935573345E+02 -0.18821291974E+02 -0.10452247092E+03  0.10981613823E+03  0.00000000000E+00 0. -1.
         21    1    1    2  504  502 -0.75264225027E+02  0.25201092551E+02 -0.88554056674E+03  0.88909048694E+03  0.00000000000E+00 0.  1.
         21    1    1    2  505  504  0.60675098804E+02 -0.50068512247E+02 -0.29591321140E+03  0.30619103876E+03  0.00000000000E+00 0.  1.
         21    1    1    2  506  501  0.42524699569E+02  0.43688711671E+02  0.49332997979E+02  0.78427025256E+02  0.00000000000E+00 0. -1.
<scales pt_clust_3="33.68438" pt_clust_4="83.16748" pt_clust_5="14000.00000" pt_clust_6="60.56897"></scales>
<clustering>
<clus scale="   33.684">  2  3  1 -1</clus>
<clus scale="   60.569">  1  6  2 -1</clus>
<clus scale="   83.167">  2  4  1 -1</clus>
<clus scale="   60.569">  1  3  2 -1</clus>
</clustering>
</event>
<event>
 6    0  0.9315069E+002  0.8880538E+02  0.7546771E-02  0.1305771E+00
         21   -1    0    0  505  501  0.00000000000E+00  0.00000000000E+00  0.57835677892E+03  0.57835677892E+03  0.00000000000E+00 0.  1.
         21   -1    0    0  503  502 -0.00000000000E+00 -0.00000000000E+00 -0.88169346412E+02  0.88169346412E+02  0.00000000000E+00 0.  1.
         21    1    1    2  503  501  0.62411528435E+02 -0.37390555012E+02  0.12178129349E+03  0.14185885919E+03  0.00000000000E+00 0.  1.
         21    1    1    2  504  502 -0.55363032170E+02 -0.36467461161E+02 -0.33091349032E+02  0.74094388690E+02  0.00000000000E+00 0.  1.
         21    1    1    2  505  506  0.54920036029E+02 -0.20373114118E+02  0.27469744845E+03  0.28087356999E+03  0.00000000000E+00 0.  1.
         21    1    1    2  506  504 -0.61968532295E+02  0.94231130291E+02  0.12680003960E+03  0.16969930746E+03  0.00000000000E+00 0.  1.
<scales pt_clust_3="88.80538" pt_clust_4="64.01152" pt_clust_5="58.57708" pt_clust_6="14000.00000"></scales>
<clustering>
<clus scale="   58.577">  1  5  2 -1</clus>
<clus scale="   64.012">  2  4  1 -1</clus>
<clus scale="   88.805">  2  3  1 -1</clus>
<clus scale="   58.577">  1  3  2 -1</clus>
</clustering>
</event>
<event>
 6    0  0.9315069E+002  0.1442110E+03  0.7546771E-02  0.1207772E+00
         21   -1    0    0  504  501  0.00000000000E+00  0.00000000000E+00  0.77513716869E+02  0.77513716869E+02  0.00000000000E+00 0.  1.
         21   -1    0    0  506  502 -0.00000000000E+00 -0.00000000000E+00 -0.16712358355E+04  0.16712358355E+04  0.00000000000E+00 0.  1.
         21    1    1    2  503  502 -0.46290726069E+02 -0.19091004557E+02 -0.71419370706E+03  0.71594688978E+03  0.00000000000E+00 0.  1.
         21    1    1    2  504  505  0.65830431222E+02 -0.13603544239E+03 -0.21827740208E+02  0.15269491643E+03  0.00000000000E+00 0.  1.
         21    1    1    2  505  503  0.14211166338E+02  0.12803594412E+03 -0.39697683278E+03  0.41735568284E+03  0.00000000000E+00 0.  1.
         21    1    1    2  506  501 -0.33750871491E+02  0.27090502833E+02 -0.46072383863E+03  0.46275206337E+03  0.00000000000E+00 0.  1.
<scales pt_clust_3="66.31598" pt_clust_4="144.21100" pt_clust_5="14000.00000" pt_clust_6="43.27836"></scales>
<clustering>
<clus scale="   43.278">  2  6  1 -1</clus>
<clus scale="   66.316">  2  3  1 -1</clus>
<clus scale="  144.211">  1  4  2 -1</clus>
<clus scale="  144.211">  1  3  2 -1</clus>
</clustering>
</event>
<event>
 6    0  0.9315069E+002  0.2054634E+03  0.7546771E-02  0.1145210E+00
         21   -1    0    0  503  501  0.00000000000E+00  0.00000000000E+00  0.88598773874E+03  0.88598773874E+03  0.00000000000E+00 0.  1.
         21   -1    0    0  505  502 -0.00000000000E+00 -0.00000000000E+00 -0.12679783359E+03  0.12679783359E+03  0.00000000000E+00 0.  1.
         21    1    1    2  503  506 -0.58405220458E+02  0.62723771082E+02  0.26129734581E+03  0.27499408023E+03  0.00000000000E+00 0.  1.
         21    1    1    2  504  502  0.17789669925E+03 -0.44486566896E+02 -0.36865262583E+01  0.18341177910E+03  0.00000000000E+00 0.  1.
         21    1    1    2  505  501  0.43872800561E+02 -0.48767425055E+02  0.98076251492E+02  0.11799167548E+03  0.00000000000E+00 0. -1.
         21    1    1    2  506  504 -0.16336427935E+03  0.30530220869E+02  0.40350283411E+03  0.43638803752E+03  0.00000000000E+00 0.  1.
<scales pt_clust_3="56.66902" pt_clust_4="189.70505" pt_clust_5="65.59790" pt_clust_6="56.66902"></scales>
<clustering>
<clus scale="   56.669">  3  6 -1 -1</clus>
<clus scale="   65.598">  1  5  2 -1</clus>
<clus scale="  189.705">  2  4  1 -1</clus>
<clus scale="   65.598">  1  3  2 -1</clus>
</clustering>
</event>
<event>
 6    0  0.9315069E+002  0.3008620E+03  0.7546771E-02  0.1084810E+00
         21   -1    0    0  503  501  0.00000000000E+00  0.00000000000E+00  0.77695274862E+03  0.77695274862E+03  0.00000000000E+00 0.  1.
         21   -1    0    0  504  502 -0.00000000000E+00 -0.00000000000E+00 -0.40021993798E+03  0.40021993798E+03  0.00000000000E+00 0.  1.
         21    1    1    2  503  505  0.32026346606E+02 -0.47395838167E+02  0.24024311638E+02  0.62042081704E+02  0.00000000000E+00 0. -1.
         21    1    1    2  504  501 -0.28633738357E+03 -0.65459560013E+02  0.63722879888E+03  0.70166558513E+03  0.00000000000E+00 0.  1.
         21    1    1    2  505  506  0.18094001037E+03  0.97606296933E+02 -0.13423131845E+03  0.24552866107E+03  0.00000000000E+00 0.  1.
         21    1    1    2  506  502  0.73371026594E+02  0.15249101247E+02 -0.15028898144E+03  0.16793635870E+03  0.00000000000E+00 0. -1.
<scales pt_clust_3="57.20186" pt_clust_4="279.15389" pt_clust_5="67.78711" pt_clust_6="67.78711"></scales>
<clustering>
<clus scale="   57.202">  1  3  2 -1</clus>
<clus scale="   67.787">  5  6 -1 -1</clus>
<clus scale="  279.154">  1  4  2 -1</clus>
<clus scale="   57.202">  1  3  2 -1</clus>
</clustering>
</event>
<event>
 6    0  0.9315069E+002  0.1780511E+03  0.7546771E-02  0.1169703E+00
         21   -1    0    0  503  501  0.00000000000E+00  0.00000000000E+00  0.71701404615E+03  0.71701404615E+03  0.00000000000E+00 0. -1.
         21   -1    0    0  501  502 -0.00000000000E+00 -0.00000000000E+00 -0.13854131033E+03  0.13854131033E+03  0.00000000000E+00 0. -1.
         21    1    1    2  503  506  0.48073080003E+02 -0.29639513980E+01  0.11268059105E+03  0.12254273388E+03  0.00000000000E+00 0. -1.
         21    1    1    2  504  502  0.34636092267E+02 -0.68308276866E+02 -0.70685624619E+02  0.10422157696E+03  0.00000000000E+00 0. -1.
         21    1    1    2  505  504 -0.17729477948E+03 -0.17303212167E+02  0.19791511665E+03  0.26627661066E+03  0.00000000000E+00 0.  1.
         21    1    1    2  506  505  0.94585607210E+02  0.88575440431E+02  0.33856265274E+03  0.36251443498E+03  0.00000000000E+00 0. -1.
<scales pt_clust_3="38.45767" pt_clust_4="76.58772" pt_clust_5="166.50234" pt_clust_6="38.45767"></scales>
<clustering>
<clus scale="   38.458">  3  6 -1 -1</clus>
<clus scale="   76.588">  2  4  1 -1</clus>
<clus scale="  166.502">  2  5  1 -1</clus>
<clus scale="  178.051">  1  3  2 -1</clus>
</clustering>
</event>
<event>
 6    0  0.9315069E+002  0.1049672E+03  0.7546771E-02  0.1270184E+00
         21   -1    0    0  506  501  0.00000000000E+00  0.00000000000E+00  0.28560575175E+03  0.28560575175E+03  0.00000000000E+00 0.  1.
         21   -1    0    0  505  502 -0.00000000000E+00 -0.00000000000E+00 -0.60369311961E+03  0.60369311961E+03  0.00000000000E+00 0.  1.
         21    1    1    2  503  502  0.65317485140E+01  0.34721318757E+02 -0.21753068587E+03  0.22038110856E+03  0.00000000000E+00 0.  1.
         21    1    1    2  504  501 -0.38021177227E+02 -0.10064321820E+03  0.26247916448E+03  0.28367230931E+03  0.00000000000E+00 0.  1.
         21    1    1    2  505  504  0.69841923427E+02  0.29300511788E+02 -0.20440521501E+03  0.21798602291E+03  0.00000000000E+00 0.  1.
         21    1    1    2  506  503 -0.38352494714E+02  0.36621387657E+02 -0.15863063145E+03  0.16725943058E+03  0.00000000000E+00 0. -1.
<scales pt_clust_3="35.33035" pt_clust_4="104.96719" pt_clust_5="14000.00000" pt_clust_6="62.45639"></scales>
<clustering>
<clus scale="   35.330">  2  3  1 -1</clus>
<clus scale="   62.456">  2  6  1 -1</clus>
<clus scale="  104.967">  1  4  2 -1</clus>
<clus scale="  104.967">  1  3  2 -1</clus>
</clustering>
</event>
<event>
 6    0  0.9315069E+002  0.1343798E+03  0.7546771E-02  0.1221098E+00
         21   -1    0    0  504  501  0.00000000000E+00  0.00000000000E+00  0.45511365065E+02  0.45511365065E+02  0.00000000000E+00 0.  1.
         21   -1    0    0  506  502 -0.00000000000E+00 -0.00000000000E+00 -0.11459166261E+04  0.11459166261E+04  0.00000000000E+00 0.  1.
         21    1    1    2  503  501 -0.51013980123E+02 -0.14582829164E+01 -0.90213508222E+01  0.51826031372E+02  0.00000000000E+00 0.  1.
         21    1    1    2  504  505  0.14743392436E+03 -0.79367345211E+01 -0.51766495320E+03  0.53830916542E+03  0.00000000000E+00 0.  1.
         21    1    1    2  505  502  0.15858601846E+02 -0.29266425400E+02 -0.31346702950E+03  0.31522943627E+03  0.00000000000E+00 0.  1.
         21    1    1    2  506  503 -0.11227854608E+03  0.38661442837E+02 -0.26025192752E+03  0.28606335811E+03  0.00000000000E+00 0.  1.
<scales pt_clust_3="50.49715" pt_clust_4="134.37983" pt_clust_5="33.28692" pt_clust_6="14000.00000"></scales>
<clustering>
<clus scale="   33.287">  2  5  1 -1</clus>
<clus scale="   50.497">  1  3  2 -1</clus>
<clus scale="  134.380">  1  4  2 -1</clus>
<clus scale="   50.497">  1  3  2 -1</clus>
</clustering>
</event>
<event>
 6    0  0.9315069E+002  0.1478899E+03  0.7546771E-02  0.1203090E+00
         21   -1    0    0  506  501  0.00000000000E+00  0.00000000000E+00  0.68685084108E+03  0.68685084108E+03  0.00000000000E+00 0.  1.
         21   -1    0    0  503  502 -0.00000000000E+00 -0.00000000000E+00 -0.41785019471E+03  0.41785019471E+03  0.00000000000E+00 0.  1.
         21    1    1    2  503  504  0.93171538176E+01 -0.13853131322E+03 -0.34702638876E+03  0.37377138546E+03  0.00000000000E+00 0.  1.
         21    1    1    2  504  501 -0.36261169968E+02  0.14364860231E+03  0.63831366517E+03  0.65528171693E+03  0.00000000000E+00 0.  1.
         21    1    1    2  505  502 -0.35015823545E+01 -0.30716293152E+02 -0.17656293231E+02  0.35601916166E+02  0.00000000000E+00 0.  1.
         21    1    1    2  506  505  0.30445598505E+02  0.25599004061E+02 -0.46303368153E+01  0.40046017233E+02  0.00000000000E+00 0.  1.
<scales pt_clust_3="14000.00000" pt_clust_4="147.88995" pt_clust_5="30.91523" pt_clust_6="38.51482"></scales>
<clustering>
<clus scale="   30.915">  2  5  1 -1</clus>
<clus scale="   38.515">  2  6  1 -1</clus>
<clus scale="  147.890">  1  4  2 -1</clus>
<clus scale="  147.890">  1  3  2 -1</clus>
</clustering>
</event>
<event>
 6    0  0.9315069E+002  0.9882320E+02  0.7546771E-02  0.1282790E+00
         21   -1    0    0  503  501  0.00000000000E+00  0.00000000000E+00  0.13607378939E+04  0.13607378939E+04  0.00000000000E+00 0. -1.
         21   -1    0    0  501  502 -0.00000000000E+00 -0.00000000000E+00 -0.41124545694E+02  0.41124545694E+02  0.00000000000E+00 0. -1.
         21    1    1    2  503  504 -0.49655530683E+02  0.13111150752E+01  0.28367586924E+03  0.28799199562E+03  0.00000000000E+00 0. -1.
         21    1    1    2  504  506 -0.33167393520E+02  0.44019453137E+02  0.49879414086E+03  0.50183003418E+03  0.00000000000E+00 0. -1.
         21    1    1    2  505  502 -0.19270043566E+01 -0.70191127568E+02  0.26168492595E+01  0.70266319351E+02  0.00000000000E+00 0. -1.
         21    1    1    2  506  505  0.84749928559E+02  0.24860559355E+02  0.53452648889E+03  0.54177409049E+03  0.00000000000E+00 0. -1.
<scales pt_clust_3="48.82418" pt_clust_4="48.82418" pt_clust_5="70.21757" pt_clust_6="84.38602"></scales>
<clustering>
<clus scale="   48.824">  3  4 -1 -1</clus>
<clus scale="   70.218">  2  5  1 -1</clus>
<clus scale="   84.386">  2  6  1 -1</clus>
<clus scale="   98.823">  1  3  2 -1</clus>
</clustering>
</event>
<event>
 6    0  0.9315069E+002  0.1531119E+03  0.7546771E-02  0.1196700E+00
         21   -1    0    0  504  501  0.00000000000E+00  0.00000000000E+00  0.40406213066E+03  0.40406213066E+03  0.00000000000E+00 0.  1.
         21   -1    0    0  505  502 -0.00000000000E+00 -0.00000000000E+00 -0.11902755259E+03  0.11902755259E+03  0.00000000000E+00 0.  1.
         21    1    1    2  503  501  0.14098385621E+03 -0.10115387759E+03  0.96392616717E+02  0.19849456219E+03  0.00000000000E+00 0.  1.
         21    1    1    2  504  506 -0.43873797772E+02 -0.36462762677E+01  0.12783685783E+03  0.13520527978E+03  0.00000000000E+00 0.  1.
         21    1    1    2  505  503 -0.11906800479E+03  0.70452726559E+02  0.51087903819E+02  0.14748135598E+03  0.00000000000E+00 0.  1.
         21    1    1    2  506  502  0.21957946352E+02  0.34347427295E+02  0.97171997069E+01  0.41908485298E+02  0.00000000000E+00 0.  1.
<scales pt_clust_3="153.11195" pt_clust_4="43.15559" pt_clust_5="14000.00000" pt_clust_6="40.76637"></scales>
<clustering>
<clus scale="   40.766">  2  6  1 -1</clus>
<clus scale="   43.156">  1  4  2 -1</clus>
<clus scale="  153.112">  1  3  2 -1</clus>
<clus scale="   43.156">  1  3  2 -1</clus>
</clustering>
</event>
<event>
 6    0  0.1120757E+003  0.1161681E+03  0.7546771E-02  0.1249556E+00
         21   -1    0    0  504  501  0.00000000000E+00  0.00000000000E+00  0.51802664560E+03  0.51802664560E+03  0.00000000000E+00 0.  1.
         21   -1    0    0  506  502 -0.00000000000E+00 -0.00000000000E+00 -0.47068627943E+03  0.47068627943E+03  0.00000000000E+00 0.  1.
         21    1    1    2  503  505 -0.64448970982E+01  0.49643286301E+02  0.36362656373E+02  0.61872735125E+02  0.00000000000E+00 0.  1.
         21    1    1    2  504  503 -0.29775306739E+02  0.18105577514E+02  0.89234400945E+02  0.95797490262E+02  0.00000000000E+00 0.  1.
         21    1    1    2  505  502  0.11530154383E+03  0.17849648328E+02 -0.43780214286E+03  0.45308252255E+03  0.00000000000E+00 0.  1.
         21    1    1    2  506  501 -0.79081339993E+02 -0.85598512143E+02  0.35954545171E+03  0.37796017709E+03  0.00000000000E+00 0.  1.
<scales pt_clust_3="52.66861" pt_clust_4="34.84797" pt_clust_5="14000.00000" pt_clust_6="116.16815"></scales>
<clustering>
<clus scale="   34.848">  1  4  2 -1</clus>
<clus scale="   52.669">  1  3  2 -1</clus>
<clus scale="  116.168">  1  6  2 -1</clus>
<clus scale="   34.848">  1  3  2 -1</clus>
</clustering>
</event>
<event>
 6    0  0.9315069E+002  0.1216739E+03  0.7546771E-02  0.1240361E+00
         21   -1    0    0  503  501  0.00000000000E+00  0.00000000000E+00  0.10704879929E+03  0.10704879929E+03  0.00000000000E+00 0.  1.
         21   -1    0    0  505  502 -0.00000000000E+00 -0.00000000000E+00 -0.57281060105E+03  0.57281060105E+03  0.00000000000E+00 0. -1.
         21    1    1    2  503  504 -0.54932528337E+02  0.11684688905E+03 -0.87411299307E+02  0.15592149754E+03  0.00000000000E+00 0. -1.
         21    1    1    2  504  502 -0.90464626640E+01  0.35632109012E+02 -0.33360562449E+03  0.33562508603E+03  0.00000000000E+00 0. -1.
         21    1    1    2  505  506  0.38585896123E+02 -0.36147177943E+02 -0.44709500383E+02  0.69241817404E+02  0.00000000000E+00 0.  1.
         21    1    1    2  506  501  0.25393094878E+02 -0.11633182011E+03 -0.35377575700E-01  0.11907099937E+03  0.00000000000E+00 0.  1.
<scales pt_clust_3="121.67393" pt_clust_4="36.76256" pt_clust_5="45.71271" pt_clust_6="14000.00000"></scales>
<clustering>
<clus scale="   36.763">  2  4  1 -1</clus>
<clus scale="   45.713">  2  5  1 -1</clus>
<clus scale="  121.674">  2  3  1 -1</clus>
<clus scale="  121.674">  1  3  2 -1</clus>
</clustering>
</event>
<event>
 6    0  0.9315069E+002  0.1675753E+03  0.7546771E-02  0.1180400E+00
         21   -1    0    0  503  501  0.00000000000E+00  0.00000000000E+00  0.66128969605E+03  0.66128969605E+03  0.00000000000E+00 0.  1.
         21   -1    0    0  504  502 -0.00000000000E+00 -0.00000000000E+00 -0.82985575689E+03  0.82985575689E+03  0.00000000000E+00 0. -1.
         21    1    1    2  503  502 -0.79049429977E+02  0.16798621501E+02  0.48611952105E+03  0.49279122842E+03  0.00000000000E+00 0.  1.
         21    1    1    2  504  506  0.15554980372E+03  0.67194294470E+02 -0.78848643107E+03  0.80648723898E+03  0.00000000000E+00 0. -1.
         21    1    1    2  505  501 -0.46322907776E+02 -0.54421858253E+01  0.78055958015E+02  0.90929432820E+02  0.00000000000E+00 0. -1.
         21    1    1    2  506  505 -0.30177465972E+02 -0.78550730146E+02  0.55744891168E+02  0.10093755273E+03  0.00000000000E+00 0. -1.
<scales pt_clust_3="14000.00000" pt_clust_4="167.57528" pt_clust_5="46.64150" pt_clust_6="87.27475"></scales>
<clustering>
<clus scale="   46.641">  1  5  2 -1</clus>
<clus scale="   87.275">  1  6  2 -1</clus>
<clus scale="  167.575">  2  4  1 -1</clus>
<clus scale="   46.641">  1  3  2 -1</clus>
</clustering>
</event>
<event>
 6    0  0.9315069E+002  0.1047753E+03  0.7546771E-02  0.1270563E+00
         21   -1    0    0  506  501  0.00000000000E+00  0.00000000000E+00  0.24661147645E+04  0.24661147645E+04  0.00000000000E+00 0.  1.
         21   -1    0    0  503  502 -0.00000000000E+00 -0.00000000000E+00 -0.28622837532E+02  0.28622837532E+02  0.00000000000E+00 0.  1.
         21    1    1    2  503  504  0.12532147635E+02  0.42773536767E+02  0.11782089803E+03  0.12596981458E+03  0.00000000000E+00 0.  1.
         21    1    1    2  504  501  0.97500006764E+02  0.37477643916E+02  0.20750446450E+04  0.20776720396E+04  0.00000000000E+00 0.  1.
         21    1    1    2  505  502 -0.67579482540E+01 -0.44331134352E+02  0.10164336274E+03  0.11109587088E+03  0.00000000000E+00 0.  1.
         21    1    1    2  506  505 -0.10327420615E+03 -0.35920046331E+02  0.14298302119E+03  0.17999987703E+03  0.00000000000E+00 0.  1.
<scales pt_clust_3="44.57163" pt_clust_4="104.77532" pt_clust_5="36.35661" pt_clust_6="14000.00000"></scales>
<clustering>
<clus scale="   44.572">  2  3  1 -1</clus>
<clus scale="   36.357">  2  5  1 -1</clus>
<clus scale="  104.775">  1  4  2 -1</clus>
<clus scale="  104.775">  1  3  2 -1</clus>
</clustering>
</event>
<event>
 6    0  0.9315069E+002  0.1504758E+03  0.7546771E-02  0.1199890E+00
         21   -1    0    0  503  501  0.00000000000E+00  0.00000000000E+00  0.71913580775E+03  0.71913580775E+03  0.00000000000E+00 0.  1.
         21   -1    0    0  506  502 -0.00000000000E+00 -0.00000000000E+00 -0.62841197876E+02  0.62841197876E+02  0.00000000000E+00 0.  1.
         21    1    1    2  503  504 -0.12263819695E+03  0.96698896146E+01  0.32661693785E+03  0.34901612887E+03  0.00000000000E+00 0.  1.
         21    1    1    2  504  505 -0.58769809242E+02  0.22631996855E+01  0.80926939838E+02  0.10004090235E+03  0.00000000000E+00 0.  1.
         21    1    1    2  505  502  0.12063985215E+03 -0.54119396500E+02  0.96640238618E+02  0.16377490261E+03  0.00000000000E+00 0.  1.
         21    1    1    2  506  501  0.60768154043E+02  0.42186307200E+02  0.15211049356E+03  0.16914507180E+03  0.00000000000E+00 0.  1.
<scales pt_clust_3="34.63359" pt_clust_4="34.63359" pt_clust_5="141.89444" pt_clust_6="73.97603"></scales>
<clustering>
<clus scale="   34.634">  3  4 -1 -1</clus>
<clus scale="   73.976">  1  6  2 -1</clus>
<clus scale="  141.894">  2  5  1 -1</clus>
<clus scale="   73.976">  1  3  2 -1</clus>
</clustering>
</event>
<event>
 6    0  0.9315069E+002  0.1597592E+03  0.7546771E-02  0.1188969E+00
         21   -1    0    0  504  501  0.00000000000E+00  0.00000000000E+00  0.94242730739E+03  0.94242730739E+03  0.00000000000E+00 0. -1.
         21   -1    0    0  505  502 -0.00000000000E+00 -0.00000000000E+00 -0.90543741867E+03  0.90543741867E+03  0.00000000000E+00 0.  1.
         21    1    1    2  503  501 -0.65780865027E+01  0.47277977084E+02  0.17910866882E+03  0.18536017260E+03  0.00000000000E+00 0. -1.
         21    1    1    2  504  506  0.79397629513E+02 -0.28135950556E+01  0.43570478543E+03  0.44288887990E+03  0.00000000000E+00 0. -1.
         21    1    1    2  505  503 -0.15371587862E+03 -0.28555536546E+02 -0.88646784343E+03  0.90014955838E+03  0.00000000000E+00 0.  1.
         21    1    1    2  506  502  0.80896335612E+02 -0.15908845482E+02  0.30864427790E+03  0.31946611520E+03  0.00000000000E+00 0. -1.
<scales pt_clust_3="47.73341" pt_clust_4="32.33372" pt_clust_5="156.32682" pt_clust_6="32.33372"></scales>
<clustering>
<clus scale="   32.334">  4  6 -1 -1</clus>
<clus scale="   47.733">  1  3  2 -1</clus>
<clus scale="  156.327">  2  5  1 -1</clus>
<clus scale="   47.733">  1  3  2 -1</clus>
</clustering>
</event>
<event>
 6    0  0.9315069E+002  0.8154985E+02  0.7546771E-02  0.1324710E+00
         21   -1    0    0  504  501  0.00000000000E+00  0.00000000000E+00  0.76723905574E+02  0.76723905574E+02  0.00000000000E+00 0. -1.
         21   -1    0    0  503  502 -0.00000000000E+00 -0.00000000000E+00 -0.36800703679E+03  0.36800703679E+03  0.00000000000E+00 0. -1.
         21    1    1    2  503  501  0.31335596232E+02  0.39527017048E+02 -0.45461986637E+02  0.67905057962E+02  0.00000000000E+00 0. -1.
         21    1    1    2  504  505 -0.92917340033E+01  0.66913262688E+02 -0.22066133647E+02  0.71067821822E+02  0.00000000000E+00 0. -1.
         21    1    1    2  505  506  0.12330168743E+02 -0.10019486164E+03 -0.25059604302E+02  0.10401455248E+03  0.00000000000E+00 0. -1.
         21    1    1    2  506  502 -0.34374030972E+02 -0.62454181005E+01 -0.19869540663E+03  0.20174351011E+03  0.00000000000E+00 0. -1.
<scales pt_clust_3="42.29705" pt_clust_4="81.54985" pt_clust_5="14000.00000" pt_clust_6="34.93679"></scales>
<clustering>
<clus scale="   34.937">  2  6  1 -1</clus>
<clus scale="   42.297">  2  3  1 -1</clus>
<clus scale="   81.550">  1  4  2 -1</clus>
<clus scale="   81.550">  1  3  2 -1</clus>
</clustering>
</event>
<event>
 6    0  0.9315069E+002  0.1365987E+03  0.7546771E-02  0.1217980E+00
         21   -1    0    0  506  501  0.00000000000E+00  0.00000000000E+00  0.73358533449E+03  0.73358533449E+03  0.00000000000E+00 0.  1.
         21   -1    0    0  503  502 -0.00000000000E+00 -0.00000000000E+00 -0.14072159503E+03  0.14072159503E+03  0.00000000000E+00 0.  1.
         21    1    1    2  503  504  0.35448798813E+02  0.28461394282E+02 -0.73863321485E+01  0.46056771537E+02  0.00000000000E+00 0. -1.
         21    1    1    2  504  501 -0.11727224921E+02  0.16230281234E+03  0.19926020596E+03  0.25726321225E+03  0.00000000000E+00 0.  1.
         21    1    1    2  505  502 -0.10390846181E+03 -0.12800462062E+03  0.80487179780E+01  0.16506645085E+03  0.00000000000E+00 0.  1.
         21    1    1    2  506  505  0.80186887920E+02 -0.62759586002E+02  0.39294114766E+03  0.40592049487E+03  0.00000000000E+00 0.  1.
<scales pt_clust_3="45.46062" pt_clust_4="136.59865" pt_clust_5="14000.00000" pt_clust_6="102.44835"></scales>
<clustering>
<clus scale="   45.461">  2  3  1 -1</clus>
<clus scale="  102.448">  1  6  2 -1</clus>
<clus scale="  136.599">  1  4  2 -1</clus>
<clus scale="  102.448">  1  3  2 -1</clus>
</clustering>
</event>
<event>
 6    0  0.9315069E+002  0.1181833E+03  0.7546771E-02  0.1246125E+00
         21   -1    0    0  503  501  0.00000000000E+00  0.00000000000E+00  0.12877160180E+04  0.12877160180E+04  0.00000000000E+00 0. -1.
         21   -1    0    0  504  502 -0.00000000000E+00 -0.00000000000E+00 -0.98933111181E+02  0.98933111181E+02  0.00000000000E+00 0. -1.
         21    1    1    2  503  505 -0.80415960646E+02 -0.74902251031E+02  0.18141942598E+03  0.21210865625E+03  0.00000000000E+00 0. -1.
         21    1    1    2  504  506  0.73344136771E+02  0.73583223107E+02 -0.38043007951E+02  0.11063961124E+03  0.00000000000E+00 0. -1.
         21    1    1    2  505  502 -0.15991392840E+02 -0.56186182087E+02  0.95323125746E+02  0.11179941862E+03  0.00000000000E+00 0. -1.
         21    1    1    2  506  501  0.23063216715E+02  0.57505210010E+02  0.95008336309E+03  0.95210144311E+03  0.00000000000E+00 0. -1.
<scales pt_clust_3="31.37161" pt_clust_4="110.07199" pt_clust_5="31.37161" pt_clust_6="61.95774"></scales>
<clustering>
<clus scale="   31.372">  3  5 -1 -1</clus>
<clus scale="   61.958">  1  6  2 -1</clus>
<clus scale="  110.072">  2  4  1 -1</clus>
<clus scale="   61.958">  1  3  2 -1</clus>
</clustering>
</event>
<event>
 6    0  0.9315069E+002  0.1799778E+03  0.7546771E-02  0.1167825E+00
         21   -1    0    0  503  501  0.00000000000E+00  0.00000000000E+00  0.72650111562E+02  0.72650111562E+02  0.00000000000E+00 0.  1.
         21   -1    0    0  505  502 -0.00000000000E+00 -0.00000000000E+00 -0.82007555304E+03  0.82007555304E+03  0.00000000000E+00 0.  1.
         21    1    1    2  503  502 -0.87950624649E+02  0.16720344779E+03 -0.32857370510E+03  0.37901581103E+03  0.00000000000E+00 0.  1.
         21    1    1    2  504  506  0.58698837897E+02 -0.10250891080E+03 -0.84328584459E+02  0.14513766059E+03  0.00000000000E+00 0.  1.
         21    1    1    2  505  504 -0.22437095566E+02 -0.43490783547E+02 -0.29761789846E+03  0.30161446417E+03  0.00000000000E+00 0.  1.
         21    1    1    2  506  501  0.51688882318E+02 -0.21203753440E+02 -0.36905253457E+02  0.66957728814E+02  0.00000000000E+00 0. -1.
<scales pt_clust_3="172.03330" pt_clust_4="36.36837" pt_clust_5="48.93742" pt_clust_6="36.36837"></scales>
<clustering>
<clus scale="   36.368">  4  6 -1 -1</clus>
<clus scale="   48.937">  2  5  1 -1</clus>
<clus scale="  172.033">  2  3  1 -1</clus>
<clus scale="  179.978">  1  3  2 -1</clus>
</clustering>
</event>
<event>
 6    0  0.9315069E+002  0.1295390E+03  0.7546771E-02  0.1228141E+00
         21   -1    0    0  506  501  0.00000000000E+00  0.00000000000E+00  0.28053221230E+03  0.28053221230E+03  0.00000000000E+00 0. -1.
         21   -1    0    0  505  502 -0.00000000000E+00 -0.00000000000E+00 -0.74288403569E+03  0.74288403569E+03  0.00000000000E+00 0. -1.
         21    1    1    2  503  501  0.36835048452E+02 -0.45675384347E+02  0.10819767746E+03  0.12308451949E+03  0.00000000000E+00 0. -1.
         21    1    1    2  504  503  0.25045610785E+02 -0.82300376937E+02  0.60601777249E+02  0.10522932134E+03  0.00000000000E+00 0. -1.
         21    1    1    2  505  504 -0.57069539278E+02  0.73313316192E+02  0.54197765463E+02  0.10756008751E+03  0.00000000000E+00 0.  1.
         21    1    1    2  506  502 -0.48111199583E+01  0.54662445092E+02 -0.68534904357E+03  0.68754231964E+03  0.00000000000E+00 0. -1.
<scales pt_clust_3="48.34732" pt_clust_4="48.34732" pt_clust_5="115.55694" pt_clust_6="54.87376"></scales>
<clustering>
<clus scale="   48.347">  3  4 -1 -1</clus>
<clus scale="   54.874">  2  6  1 -1</clus>
<clus scale="  115.557">  2  5  1 -1</clus>
<clus scale="  129.539">  1  3  2 -1</clus>
</clustering>
</event>
<event>
 6    0  0.9315069E+002  0.9579598E+02  0.7546771E-02  0.1289393E+00
         21   -1    0    0  504  501  0.00000000000E+00  0.00000000000E+00  0.30026790385E+03  0.30026790385E+03  0.00000000000E+00 0.  1.
         21   -1    0    0  506  502 -0.00000000000E+00 -0.00000000000E+00 -0.66584300426E+03  0.66584300426E+03  0.00000000000E+00 0.  1.
         21    1    1    2  503  505  0.94332875203E+02 -0.40625661157E+02 -0.96390673375E+02  0.14085559131E+03  0.00000000000E+00 0. -1.
         21    1    1    2  504  502 -0.32086640782E+02  0.46630380580E+02  0.16307629647E+02  0.58905718690E+02  0.00000000000E+00 0. -1.
         21    1    1    2  505  501  0.33647623971E+02  0.89376166618E+01  0.23465620209E+03  0.23722473895E+03  0.00000000000E+00 0.  1.
         21    1    1    2  506  503 -0.95893858392E+02 -0.14942336084E+02 -0.52014825877E+03  0.52912485917E+03  0.00000000000E+00 0.  1.
<scales pt_clust_3="95.79598" pt_clust_4="53.32108" pt_clust_5="34.81442" pt_clust_6="14000.00000"></scales>
<clustering>
<clus scale="   34.814">  1  5  2 -1</clus>
<clus scale="   53.321">  1  4  2 -1</clus>
<clus scale="   95.796">  1  3  2 -1</clus>
<clus scale="   34.814">  1  3  2 -1</clus>
</clustering>
</event>
<event>
 6    0  0.9315069E+002  0.2588671E+03  0.7546771E-02  0.1107826E+00
         21   -1    0    0  505  501  0.00000000000E+00  0.00000000000E+00  0.15350230160E+04  0.15350230160E+04  0.00000000000E+00 0.  1.
         21   -1    0    0  506  502 -0.00000000000E+00 -0.00000000000E+00 -0.70259069273E+03  0.70259069273E+03  0.00000000000E+00 0. -1.
         21    1    1    2  503  504  0.22311061137E+03 -0.97527026849E+02  0.52211832666E+01  0.24355107601E+03  0.00000000000E+00 0. -1.
         21    1    1    2  504  502  0.24947077632E+02 -0.31944920476E+02 -0.56188296138E+03  0.56334296563E+03  0.00000000000E+00 0. -1.
         21    1    1    2  505  503 -0.24937623868E+03  0.75964025838E+02  0.13068157052E+04  0.13325638180E+04  0.00000000000E+00 0.  1.
         21    1    1    2  506  501  0.13185496831E+01  0.53507921487E+02  0.82278396225E+02  0.98155849141E+02  0.00000000000E+00 0.  1.
<scales pt_clust_3="258.86707" pt_clust_4="40.53190" pt_clust_5="14000.00000" pt_clust_6="51.76840"></scales>
<clustering>
<clus scale="   40.532">  2  4  1 -1</clus>
<clus scale="   51.768">  2  6  1 -1</clus>
<clus scale="  258.867">  2  3  1 -1</clus>
<clus scale="  258.867">  1  3  2 -1</clus>
</clustering>
</event>
<event>
 6    0  0.9315069E+002  0.7069613E+02  0.7546771E-02  0.1357742E+00
         21   -1    0    0  504  501  0.00000000000E+00  0.00000000000E+00  0.12374936969E+03  0.12374936969E+03  0.00000000000E+00 0. -1.
         21   -1    0    0  506  502 -0.00000000000E+00 -0.00000000000E+00 -0.50981790376E+03  0.50981790376E+03  0.00000000000E+00 0.  1.
         21    1    1    2  503  505 -0.48938784664E+02 -0.59953168823E+02 -0.37430792428E+02  0.85967734169E+02  0.00000000000E+00 0. -1.
         21    1    1    2  504  502  0.51031953792E+02  0.21092248918E+02 -0.13812244128E+03  0.14875130943E+03  0.00000000000E+00 0.  1.
         21    1    1    2  505  501  0.44694081432E+02 -0.20855930914E+02  0.82529055385E+02  0.96143516432E+02  0.00000000000E+00 0. -1.
         21    1    1    2  506  503 -0.46787250559E+02  0.59716850819E+02 -0.29304435575E+03  0.30270471342E+03  0.00000000000E+00 0.  1.
<scales pt_clust_3="70.69613" pt_clust_4="60.62794" pt_clust_5="49.32069" pt_clust_6="14000.00000"></scales>
<clustering>
<clus scale="   49.321">  1  5  2 -1</clus>
<clus scale="   60.628">  2  4  1 -1</clus>
<clus scale="   70.696">  1  3  2 -1</clus>
<clus scale="   49.321">  1  3  2 -1</clus>
</clustering>
</event>
<event>
 6    0  0.9315069E+002  0.1215485E+03  0.7546771E-02  0.1240564E+00
         21   -1    0    0  505  501  0.00000000000E+00  0.00000000000E+00  0.67101309405E+02  0.67101309405E+02  0.00000000000E+00 0. -1.
         21   -1    0    0  504  502 -0.00000000000E+00 -0.00000000000E+00 -0.30009365652E+03  0.30009365652E+03  0.00000000000E+00 0. -1.
         21    1    1    2  503  501 -0.11365543334E+03 -0.10267486243E+02 -0.77858563595E+02  0.13814823461E+03  0.00000000000E+00 0. -1.
         21    1    1    2  504  503  0.10132496976E+01  0.37185914646E+02 -0.68517448806E+02  0.77964477257E+02  0.00000000000E+00 0. -1.
         21    1    1    2  505  506  0.55894572749E+02 -0.21235863836E+01 -0.18247703663E+02  0.58836141706E+02  0.00000000000E+00 0.  1.
         21    1    1    2  506  502  0.56747610890E+02 -0.24794842019E+02 -0.68368631048E+02  0.92246112351E+02  0.00000000000E+00 0. -1.
<scales pt_clust_3="113.41709" pt_clust_4="37.19972" pt_clust_5="42.93267" pt_clust_6="42.93267"></scales>
<clustering>
<clus scale="   37.200">  2  4  1 -1</clus>
<clus scale="   42.933">  5  6 -1 -1</clus>
<clus scale="  113.417">  1  3  2 -1</clus>
<clus scale="  113.417">  1  3  2 -1</clus>
</clustering>
</event>
<event>
 6    0  0.9315069E+002  0.8530370E+02  0.7546771E-02  0.1314640E+00
         21   -1    0    0  504  501  0.00000000000E+00  0.00000000000E+00  0.41253412878E+03  0.41253412878E+03  0.00000000000E+00 0. -1.
         21   -1    0    0  505  502 -0.00000000000E+00 -0.00000000000E+00 -0.35285567151E+03  0.35285567151E+03  0.00000000000E+00 0. -1.
         21    1    1    2  503  501 -0.66218289011E+02  0.55518081860E+02  0.34687163162E+03  0.35747314310E+03  0.00000000000E+00 0. -1.
         21    1    1    2  504  506 -0.41494880743E+02 -0.36320022779E+02  0.13351836703E+02  0.56738353218E+02  0.00000000000E+00 0. -1.
         21    1    1    2  505  503  0.95860783359E+02  0.16536227876E+02 -0.75855264416E+02  0.12335622302E+03  0.00000000000E+00 0. -1.
         21    1    1    2  506  502  0.11852386395E+02 -0.35734286957E+02 -0.22468974663E+03  0.22782208095E+03  0.00000000000E+00 0. -1.
<scales pt_clust_3="14000.00000" pt_clust_4="57.95540" pt_clust_5="85.30370" pt_clust_6="37.64862"></scales>
<clustering>
<clus scale="   37.649">  2  6  1 -1</clus>
<clus scale="   57.955">  2  4  1 -1</clus>
<clus scale="   85.304">  2  5  1 -1</clus>
<clus scale="   85.304">  1  3  2 -1</clus>
</clustering>
</event>
<event>
 6    0  0.9315069E+002  0.1462442E+03  0.7546771E-02  0.1205166E+00
         21   -1    0    0  505  501  0.00000000000E+00  0.00000000000E+00  0.23050633128E+03  0.23050633128E+03  0.00000000000E+00 0.  1.
         21   -1    0    0  504  502 -0.00000000000E+00 -0.00000000000E+00 -0.38670972551E+03  0.38670972551E+03  0.00000000000E+00 0. -1.
         21    1    1    2  503  502 -0.36817030648E+02 -0.14645143405E+01 -0.95458770149E+02  0.10232309293E+03  0.00000000000E+00 0. -1.
         21    1    1    2  504  501 -0.16508771002E+02  0.50979387145E+02  0.14052328437E+03  0.15039358658E+03  0.00000000000E+00 0.  1.
         21    1    1    2  505  506 -0.81065808189E+02 -0.12551399112E+03 -0.10326837298E+03  0.18163090069E+03  0.00000000000E+00 0. -1.
         21    1    1    2  506  503  0.13439160984E+03  0.75999118320E+02 -0.97999535468E+02  0.18286847660E+03  0.00000000000E+00 0. -1.
<scales pt_clust_3="36.84615" pt_clust_4="53.75984" pt_clust_5="14000.00000" pt_clust_6="146.24415"></scales>
<clustering>
<clus scale="   36.846">  2  3  1 -1</clus>
<clus scale="   53.760">  1  4  2 -1</clus>
<clus scale="  146.244">  2  6  1 -1</clus>
<clus scale="   53.760">  1  3  2 -1</clus>
</clustering>
</event>
<event>
 6    0  0.9315069E+002  0.8146597E+02  0.7546771E-02  0.1324942E+00
         21   -1    0    0  504  501  0.00000000000E+00  0.00000000000E+00  0.28881649358E+02  0.28881649358E+02  0.00000000000E+00 0.  1.
         21   -1    0    0  506  502 -0.00000000000E+00 -0.00000000000E+00 -0.18193094863E+04  0.18193094863E+04  0.00000000000E+00 0. -1.
         21    1    1    2  503  501  0.42560926904E+02 -0.56378581274E+01 -0.14869085006E+03  0.15476494059E+03  0.00000000000E+00 0. -1.
         21    1    1    2  504  502  0.21911830589E+02 -0.10080976427E+03 -0.11216765597E+03  0.15239527531E+03  0.00000000000E+00 0.  1.
         21    1    1    2  505  503 -0.40520722817E+02  0.29860998782E+02 -0.13376641180E+03  0.14292327015E+03  0.00000000000E+00 0.  1.
         21    1    1    2  506  505 -0.23952034677E+02  0.76586623613E+02 -0.13958029191E+04  0.13981076496E+04  0.00000000000E+00 0. -1.
<scales pt_clust_3="42.93271" pt_clust_4="14000.00000" pt_clust_5="43.82662" pt_clust_6="81.46597"></scales>
<clustering>
<clus scale="   42.933">  1  3  2 -1</clus>
<clus scale="   43.827">  1  5  2 -1</clus>
<clus scale="   81.466">  2  6  1 -1</clus>
<clus scale="   42.933">  1  3  2 -1</clus>
</clustering>
</event>
<event>
 6    0  0.9315069E+002  0.3223715E+03  0.7546771E-02  0.1074563E+00
         21   -1    0    0  503  501  0.00000000000E+00  0.00000000000E+00  0.51452285037E+03  0.51452285037E+03  0.00000000000E+00 0. -1.
         21   -1    0    0  506  502 -0.00000000000E+00 -0.00000000000E+00 -0.39965689583E+03  0.39965689583E+03  0.00000000000E+00 0. -1.
         21    1    1    2  503  505 -0.22175567732E+03 -0.12339807505E+03 -0.90332741544E+02  0.26937458965E+03  0.00000000000E+00 0. -1.
         21    1    1    2  504  501  0.21787444253E+03  0.19950881283E+03  0.32842315795E+03  0.44174065896E+03  0.00000000000E+00 0. -1.
         21    1    1    2  505  502 -0.34428940911E+02 -0.93516141112E+02 -0.35529698247E+02  0.10579688123E+03  0.00000000000E+00 0. -1.
         21    1    1    2  506  504  0.38310175704E+02  0.17405403328E+02 -0.87694763611E+02  0.97267616359E+02  0.00000000000E+00 0.  1.
<scales pt_clust_3="70.47972" pt_clust_4="302.80926" pt_clust_5="70.47972" pt_clust_6="42.07871"></scales>
<clustering>
<clus scale="   42.079">  2  6  1 -1</clus>
<clus scale="   70.480">  3  5 -1 -1</clus>
<clus scale="  302.809">  1  4  2 -1</clus>
<clus scale="  302.809">  1  3  2 -1</clus>
</clustering>
</event>
<event>
 6    0  0.9315069E+002  0.1379347E+03  0.7546771E-02  0.1216135E+00
         21   -1    0    0  506  501  0.00000000000E+00  0.00000000000E+00  0.54020730599E+03  0.54020730599E+03  0.00000000000E+00 0. -1.
         21   -1    0    0  503  502 -0.00000000000E+00 -0.00000000000E+00 -0.26437935942E+03  0.26437935942E+03  0.00000000000E+00 0.  1.
         21    1    1    2  503  505 -0.19603940968E+03  0.65137686649E+02  0.26443375525E+03  0.33555860783E+03  0.00000000000E+00 0. -1.
         21    1    1    2  504  501  0.16831065708E+02 -0.42339895631E+02  0.25784759557E+02  0.52352701557E+02  0.00000000000E+00 0.  1.
         21    1    1    2  505  504  0.49996679404E+02 -0.63531721154E+02  0.16977718520E+03  0.18804318695E+03  0.00000000000E+00 0. -1.
         21    1    1    2  506  502  0.12921166457E+03  0.40733930136E+02 -0.18416775345E+03  0.22863216907E+03  0.00000000000E+00 0.  1.
<scales pt_clust_3="137.93465" pt_clust_4="45.56261" pt_clust_5="96.55064" pt_clust_6="14000.00000"></scales>
<clustering>
<clus scale="   45.563">  1  4  2 -1</clus>
<clus scale="   96.551">  1  5  2 -1</clus>
<clus scale="  137.935">  1  3  2 -1</clus>
<clus scale="   45.563">  1  3  2 -1</clus>
</clustering>
</event>
<event>
 6    0  0.9315069E+002  0.1013714E+03  0.7546771E-02  0.1277438E+00
         21   -1    0    0  506  501  0.00000000000E+00  0.00000000000E+00  0.35630001498E+03  0.35630001498E+03  0.00000000000E+00 0.  1.
         21   -1    0    0  504  502 -0.00000000000E+00 -0.00000000000E+00 -0.14824636464E+04  0.14824636464E+04  0.00000000000E+00 0.  1.
         21    1    1    2  503  501 -0.85000583666E+02 -0.54084266929E+02  0.32223514373E+03  0.33761767579E+03  0.00000000000E+00 0.  1.
         21    1    1    2  504  505 -0.33384116639E+02 -0.13324631925E+02 -0.10574156725E+04  0.10580264408E+04  0.00000000000E+00 0.  1.
         21    1    1    2  505  503 -0.21264851082E+02  0.42413974795E+02 -0.32294778853E+02  0.57394179936E+02  0.00000000000E+00 0. -1.
         21    1    1    2  506  502  0.13964955139E+03  0.24994924059E+02 -0.35868832377E+03  0.38572536479E+03  0.00000000000E+00 0.  1.
<scales pt_clust_3="101.37142" pt_clust_4="35.94503" pt_clust_5="47.91773" pt_clust_6="14000.00000"></scales>
<clustering>
<clus scale="   35.945">  2  4  1 -1</clus>
<clus scale="   47.918">  2  5  1 -1</clus>
<clus scale="  101.371">  1  3  2 -1</clus>
<clus scale="  101.371">  1  3  2 -1</clus>
</clustering>
</event>
<event>
 6    0  0.9315069E+002  0.1398919E+03  0.7546771E-02  0.1213475E+00
         21   -1    0    0  503  501  0.00000000000E+00  0.00000000000E+00  0.12913008936E+04  0.12913008936E+04  0.00000000000E+00 0.  1.
         21   -1    0    0  504  502 -0.00000000000E+00 -0.00000000000E+00 -0.23114442707E+03  0.23114442707E+03  0.00000000000E+00 0.  1.
         21    1    1    2  503  505 -0.27658507348E+02  0.37026570523E+02  0.21788013999E+03  0.22272789532E+03  0.00000000000E+00 0.  1.
         21    1    1    2  504  501  0.15395915741E+03  0.42185784706E+02  0.86316505647E+03  0.87780235662E+03  0.00000000000E+00 0.  1.
         21    1    1    2  505  506 -0.11429544840E+03 -0.29272524659E+02  0.17963575865E+03  0.21491704448E+03  0.00000000000E+00 0.  1.
         21    1    1    2  506  502 -0.12005201658E+02 -0.49939830569E+02 -0.20052448855E+03  0.20699802427E+03  0.00000000000E+00 0.  1.
<scales pt_clust_3="46.21645" pt_clust_4="139.89187" pt_clust_5="14000.00000" pt_clust_6="51.27340"></scales>
<clustering>
<clus scale="   46.216">  1  3  2 -1</clus>
<clus scale="   51.273">  2  6  1 -1</clus>
<clus scale="  139.892">  1  4  2 -1</clus>
<clus scale="   46.216">  1  3  2 -1</clus>
</clustering>
</event>
<event>
 6    0  0.9315069E+002  0.5788832E+02  0.7546771E-02  0.1406913E+00
         21   -1    0    0  505  501  0.00000000000E+00  0.00000000000E+00  0.66773303202E+03  0.66773303202E+03  0.00000000000E+00 0. -1.
         21   -1    0    0  504  502 -0.00000000000E+00 -0.00000000000E+00 -0.23373172865E+04  0.23373172865E+04  0.00000000000E+00 0. -1.
         21    1    1    2  503  501  0.52946457139E+02  0.23221625416E+02  0.65852799350E+03  0.66106103306E+03  0.00000000000E+00 0. -1.
         21    1    1    2  504  503 -0.54855778661E+01 -0.33165152130E+02 -0.71138782698E+02  0.78681289289E+02  0.00000000000E+00 0.  1.
         21    1    1    2  505  506 -0.98129565448E+02 -0.21427570183E+02 -0.69734774626E+03  0.70454413034E+03  0.00000000000E+00 0. -1.
         21    1    1    2  506  502  0.50668686175E+02  0.31371096897E+02 -0.15596257190E+04  0.15607638659E+04  0.00000000000E+00 0. -1.
<scales pt_clust_3="14000.00000" pt_clust_4="33.61575" pt_clust_5="57.88832" pt_clust_6="47.64997"></scales>
<clustering>
<clus scale="   33.616">  2  4  1 -1</clus>
<clus scale="   47.650">  2  6  1 -1</clus>
<clus scale="   57.888">  2  5  1 -1</clus>
<clus scale="   57.888">  1  3  2 -1</clus>
</clustering>
</event>
<event>
 6    0  0.9315069E+002  0.1077963E+03  0.7546771E-02  0.1264706E+00
         21   -1    0    0  505  501  0.00000000000E+00  0.00000000000E+00  0.32896234318E+03  0.32896234318E+03  0.00000000000E+00 0. -1.
         21   -1    0    0  504  502 -0.00000000000E+00 -0.00000000000E+00 -0.53547292745E+03  0.53547292745E+03  0.00000000000E+00 0. -1.
         21    1    1    2  503  506  0.87326365185E+02 -0.51264192890E+02  0.71426231868E+02  0.12391778778E+03  0.00000000000E+00 0. -1.
         21    1    1    2  504  501  0.28282853750E+02  0.92440053561E+02  0.19785623308E+02  0.98673979388E+02  0.00000000000E+00 0. -1.
         21    1    1    2  505  503 -0.10041455882E+03 -0.69473069806E+02  0.14974890793E+03  0.19322092661E+03  0.00000000000E+00 0. -1.
         21    1    1    2  506  502 -0.15194660113E+02  0.28297209136E+02 -0.44747134738E+03  0.44862257686E+03  0.00000000000E+00 0. -1.
<scales pt_clust_3="93.16235" pt_clust_4="107.79631" pt_clust_5="14000.00000" pt_clust_6="32.11868"></scales>
<clustering>
<clus scale="   32.119">  2  6  1 -1</clus>
<clus scale="   93.162">  2  3  1 -1</clus>
<clus scale="  107.796">  2  4  1 -1</clus>
<clus scale="  107.796">  1  3  2 -1</clus>
</clustering>
</event>
<event>
 6    0  0.9315069E+002  0.1561850E+03  0.7546771E-02  0.1193072E+00
         21   -1    0    0  503  501  0.00000000000E+00  0.00000000000E+00  0.29564296982E+03  0.29564296982E+03  0.00000000000E+00 0. -1.
         21   -1    0    0  505  502 -0.00000000000E+00 -0.00000000000E+00 -0.22849962048E+03  0.22849962048E+03  0.00000000000E+00 0. -1.
         21    1    1    2  503  504 -0.33613385198E+02  0.31330333409E+02  0.26639249466E+02  0.53114019506E+02  0.00000000000E+00 0.  1.
         21    1    1    2  504  506 -0.70017899289E+02  0.66482598925E+02  0.19330804393E+03  0.21607971221E+03  0.00000000000E+00 0. -1.
         21    1    1    2  505  501  0.13427656068E+03 -0.77896370122E+02 -0.15361222893E+03  0.21839129127E+03  0.00000000000E+00 0. -1.
         21    1    1    2  506  502 -0.30645276192E+02 -0.19916562212E+02  0.80828487487E+00  0.36557567310E+02  0.00000000000E+00 0. -1.
<scales pt_clust_3="42.59772" pt_clust_4="42.59772" pt_clust_5="143.56922" pt_clust_6="36.54863"></scales>
<clustering>
<clus scale="   36.549">  2  6  1 -1</clus>
<clus scale="   42.598">  3  4 -1 -1</clus>
<clus scale="  143.569">  2  5  1 -1</clus>
<clus scale="  156.185">  1  3  2 -1</clus>
</clustering>
</event>
<event>
 6    0  0.9315069E+002  0.9416513E+02  0.7546771E-02  0.1293068E+00
         21   -1    0    0  504  501  0.00000000000E+00  0.00000000000E+00  0.10100752362E+03  0.10100752362E+03  0.00000000000E+00 0. -1.
         21   -1    0    0  503  502 -0.00000000000E+00 -0.00000000000E+00 -0.69954730751E+03  0.69954730751E+03  0.00000000000E+00 0.  1.
         21    1    1    2  503  505  0.88762097834E+02 -0.78095204408E+02 -0.46383735504E+03  0.47866759123E+03  0.00000000000E+00 0.  1.
         21    1    1    2  504  506 -0.38546091143E+02  0.15160686359E+02 -0.42706792915E+02  0.59493846021E+02  0.00000000000E+00 0.  1.
         21    1    1    2  505  501 -0.35353044347E+02 -0.12446166144E+02  0.72067436244E+02  0.81230906453E+02  0.00000000000E+00 0. -1.
         21    1    1    2  506  502 -0.14862962344E+02  0.75380684193E+02 -0.16406307218E+03  0.18116248743E+03  0.00000000000E+00 0. -1.
<scales pt_clust_3="94.16513" pt_clust_4="51.88017" pt_clust_5="37.47993" pt_clust_6="14000.00000"></scales>
<clustering>
<clus scale="   37.480">  1  5  2 -1</clus>
<clus scale="   51.880">  1  4  2 -1</clus>
<clus scale="   94.165">  2  3  1 -1</clus>
<clus scale="   37.480">  1  3  2 -1</clus>
</clustering>
</event>
<event>
 6    0  0.9315069E+002  0.1224270E+03  0.7546771E-02  0.1239146E+00
         21   -1    0    0  505  501  0.00000000000E+00  0.00000000000E+00  0.61126870747E+03  0.61126870747E+03  0.00000000000E+00 0.  1.
         21   -1    0    0  506  502 -0.00000000000E+00 -0.00000000000E+00 -0.29142941591E+03  0.29142941591E+03  0.00000000000E+00 0. -1.
         21    1    1    2  503  502 -0.50769496445E+02  0.23850583224E+03  0.27935675855E+03  0.37081366254E+03  0.00000000000E+00 0.  1.
         21    1    1    2  504  501  0.91209866605E+02 -0.70036650699E+02  0.14046012954E+03  0.18153076928E+03  0.00000000000E+00 0. -1.
         21    1    1    2  505  503 -0.39727261877E+02 -0.51703563659E+02  0.99648139736E+02  0.11908511907E+03  0.00000000000E+00 0.  1.
         21    1    1    2  506  504 -0.71310828330E+00 -0.11676561788E+03 -0.19962573626E+03  0.23126857248E+03  0.00000000000E+00 0. -1.
<scales pt_clust_3="122.42704" pt_clust_4="116.87730" pt_clust_5="65.20363" pt_clust_6="14000.00000"></scales>
<clustering>
<clus scale="   65.204">  1  5  2 -1</clus>
<clus scale="  116.877">  1  4  2 -1</clus>
<clus scale="  122.427">  1  3  2 -1</clus>
<clus scale="   65.204">  1  3  2 -1</clus>
</clustering>
</event>
<event>
 6    0  0.9315069E+002  0.7899489E+02  0.7546771E-02  0.1331928E+00
         21   -1    0    0  504  501  0.00000000000E+00  0.00000000000E+00  0.93597174483E+02  0.93597174483E+02  0.00000000000E+00 0.  1.
         21   -1    0    0  505  502 -0.00000000000E+00 -0.00000000000E+00 -0.10200286723E+04  0.10200286723E+04  0.00000000000E+00 0.  1.
         21    1    1    2  503  506 -0.16562362845E+02  0.65486810671E+02 -0.17275771443E+03  0.18549410268E+03  0.00000000000E+00 0.  1.
         21    1    1    2  504  502  0.20093686180E+02 -0.79594913455E+02 -0.72861340345E+03  0.73322342990E+03  0.00000000000E+00 0.  1.
         21    1    1    2  505  503  0.52924330011E+02  0.22288766999E+01 -0.92232752890E+02  0.10636180378E+03  0.00000000000E+00 0. -1.
         21    1    1    2  506  501 -0.56455653346E+02  0.11879226084E+02  0.67172372989E+02  0.88546510378E+02  0.00000000000E+00 0.  1.
<scales pt_clust_3="14000.00000" pt_clust_4="78.99489" pt_clust_5="52.97124" pt_clust_6="57.09630"></scales>
<clustering>
<clus scale="   52.971">  2  5  1 -1</clus>
<clus scale="   57.096">  1  6  2 -1</clus>
<clus scale="   78.995">  2  4  1 -1</clus>
<clus scale="   57.096">  1  3  2 -1</clus>
</clustering>
</event>
<event>
 6    0  0.9315069E+002  0.6497978E+02  0.7546771E-02  0.1378048E+00
         21   -1    0    0  504  501  0.00000000000E+00  0.00000000000E+00  0.12711014110E+04  0.12711014110E+04  0.00000000000E+00 0.  1.
         21   -1    0    0  505  502 -0.00000000000E+00 -0.00000000000E+00 -0.15546681143E+03  0.15546681143E+03  0.00000000000E+00 0. -1.
         21    1    1    2  503  506  0.54843044530E+02 -0.64620339058E+02 -0.14844891256E+02  0.86046025763E+02  0.00000000000E+00 0. -1.
         21    1    1    2  504  503 -0.57024868549E+02 -0.29741219428E+02  0.69293271663E+02  0.94540643450E+02  0.00000000000E+00 0. -1.
         21    1    1    2  505  501 -0.16914865369E+02  0.49989355825E+02  0.11466212840E+04  0.11478351002E+04  0.00000000000E+00 0.  1.
         21    1    1    2  506  502  0.19096689389E+02  0.44372202661E+02 -0.85435064883E+02  0.98146452947E+02  0.00000000000E+00 0. -1.
<scales pt_clust_3="64.97978" pt_clust_4="14000.00000" pt_clust_5="53.11672" pt_clust_6="48.30710"></scales>
<clustering>
<clus scale="   48.307">  2  6  1 -1</clus>
<clus scale="   53.117">  1  5  2 -1</clus>
<clus scale="   64.980">  2  3  1 -1</clus>
<clus scale="   53.117">  1  3  2 -1</clus>
</clustering>
</event>
<event>
 6    0  0.9315069E+002  0.8347366E+02  0.7546771E-02  0.1319473E+00
         21   -1    0    0  506  501  0.00000000000E+00  0.00000000000E+00  0.70655367353E+02  0.70655367353E+02  0.00000000000E+00 0. -1.
         21   -1    0    0  504  502 -0.00000000000E+00 -0.00000000000E+00 -0.40081838681E+03  0.40081838681E+03  0.00000000000E+00 0. -1.
         21    1    1    2  503  502 -0.14500043235E+02  0.85230205588E+02 -0.97832855476E+02  0.13055920806E+03  0.00000000000E+00 0. -1.
         21    1    1    2  504  505  0.59799854198E+02 -0.63778481776E+02 -0.15817054496E+03  0.18072531254E+03  0.00000000000E+00 0. -1.
         21    1    1    2  505  501 -0.26441301167E+02  0.43473380333E+02  0.10389418421E+02  0.51932814483E+02  0.00000000000E+00 0. -1.
         21    1    1    2  506  503 -0.18858509796E+02 -0.64925104146E+02 -0.84549037440E+02  0.10825641908E+03  0.00000000000E+00 0. -1.
<scales pt_clust_3="83.47366" pt_clust_4="14000.00000" pt_clust_5="50.88298" pt_clust_6="58.38821"></scales>
<clustering>
<clus scale="   50.883">  1  5  2 -1</clus>
<clus scale="   58.388">  1  6  2 -1</clus>
<clus scale="   83.474">  1  3  2 -1</clus>
<clus scale="   50.883">  1  3  2 -1</clus>
</clustering>
</event>
<event>
 6    0  0.9315069E+002  0.1277659E+03  0.7546771E-02  0.1230809E+00
         21   -1    0    0  503  501  0.00000000000E+00  0.00000000000E+00  0.36640450003E+02  0.36640450003E+02  0.00000000000E+00 0.  1.
         21   -1    0    0  504  502 -0.00000000000E+00 -0.00000000000E+00 -0.20540101374E+04  0.20540101374E+04  0.00000000000E+00 0. -1.
         21    1    1    2  503  506  0.39447605057E+02 -0.36722474077E+01 -0.12392460033E+03  0.13010344159E+03  0.00000000000E+00 0. -1.
         21    1    1    2  504  505  0.12659535418E+03 -0.78400550670E+01 -0.11982259199E+04  0.12049204145E+04  0.00000000000E+00 0. -1.
         21    1    1    2  505  501 -0.12700768101E+03  0.15024797637E+02 -0.10883371355E+03  0.16793294134E+03  0.00000000000E+00 0.  1.
         21    1    1    2  506  502 -0.39035278228E+02 -0.35124951620E+01 -0.58638545365E+03  0.58769379001E+03  0.00000000000E+00 0. -1.
<scales pt_clust_3="36.28636" pt_clust_4="127.76594" pt_clust_5="14000.00000" pt_clust_6="39.19299"></scales>
<clustering>
<clus scale="   39.193">  2  6  1 -1</clus>
<clus scale="   36.286">  2  3  1 -1</clus>
<clus scale="  127.766">  2  4  1 -1</clus>
<clus scale="  127.766">  1  3  2 -1</clus>
</clustering>
</event>
<event>
 6    0  0.9315069E+002  0.1006604E+03  0.7546771E-02  0.1278913E+00
         21   -1    0    0  505  501  0.00000000000E+00  0.00000000000E+00  0.10844077350E+03  0.10844077350E+03  0.00000000000E+00 0.  1.
         21   -1    0    0  503  502 -0.00000000000E+00 -0.00000000000E+00 -0.17960985117E+04  0.17960985117E+04  0.00000000000E+00 0. -1.
         21    1    1    2  503  506  0.15403306322E+01  0.91844340950E+02 -0.23793190231E+02  0.94888732126E+02  0.00000000000E+00 0. -1.
         21    1    1    2  504  502 -0.41531384417E+02  0.26199223216E+02 -0.16560043088E+04  0.16567321829E+04  0.00000000000E+00 0. -1.
         21    1    1    2  505  504  0.65639971300E+01 -0.10586729911E+03  0.19739860937E+02  0.10789176609E+03  0.00000000000E+00 0.  1.
         21    1    1    2  506  501  0.33427056655E+02 -0.12176265054E+02 -0.27600100086E+02  0.45026604047E+02  0.00000000000E+00 0. -1.
<scales pt_clust_3="100.66039" pt_clust_4="48.97766" pt_clust_5="14000.00000" pt_clust_6="35.57569"></scales>
<clustering>
<clus scale="   35.576">  1  6  2 -1</clus>
<clus scale="   48.978">  2  4  1 -1</clus>
<clus scale="  100.660">  2  3  1 -1</clus>
<clus scale="   35.576">  1  3  2 -1</clus>
</clustering>
</event>
<event>
 6    0  0.9315069E+002  0.1297784E+03  0.7546771E-02  0.1227785E+00
         21   -1    0    0  506  501  0.00000000000E+00  0.00000000000E+00  0.79535599309E+03  0.79535599309E+03  0.00000000000E+00 0.  1.
         21   -1    0    0  504  502 -0.00000000000E+00 -0.00000000000E+00 -0.36636892292E+02  0.36636892292E+02  0.00000000000E+00 0.  1.
         21    1    1    2  503  502 -0.22464622649E+02 -0.25348791445E+02  0.17008571335E+02  0.37901345588E+02  0.00000000000E+00 0. -1.
         21    1    1    2  504  505 -0.36616237567E+02  0.24767911676E+01  0.55666034233E+02  0.66675263143E+02  0.00000000000E+00 0.  1.
         21    1    1    2  505  501 -0.46640579142E+02  0.78888389841E+02  0.13260508729E+03  0.16119190690E+03  0.00000000000E+00 0.  1.
         21    1    1    2  506  503  0.10572143936E+03 -0.56016389564E+02  0.55343940794E+03  0.56622436975E+03  0.00000000000E+00 0.  1.
<scales pt_clust_3="33.87064" pt_clust_4="37.16573" pt_clust_5="37.16573" pt_clust_6="117.97031"></scales>
<clustering>
<clus scale="   33.871">  2  3  1 -1</clus>
<clus scale="   37.166">  4  5 -1 -1</clus>
<clus scale="  117.970">  1  6  2 -1</clus>
<clus scale="  117.970">  1  3  2 -1</clus>
</clustering>
</event>
<event>
 6    0  0.9315069E+002  0.9203685E+02  0.7546771E-02  0.1297993E+00
         21   -1    0    0  506  501  0.00000000000E+00  0.00000000000E+00  0.20045209792E+02  0.20045209792E+02  0.00000000000E+00 0.  1.
         21   -1    0    0  503  502 -0.00000000000E+00 -0.00000000000E+00 -0.15670826213E+04  0.15670826213E+04  0.00000000000E+00 0.  1.
         21    1    1    2  503  501  0.10778686608E+03 -0.23354986989E+02 -0.62899805652E+03  0.63859378248E+03  0.00000000000E+00 0. -1.
         21    1    1    2  504  505 -0.58563871684E+02  0.80239442504E+02 -0.49314672367E+03  0.50305246870E+03  0.00000000000E+00 0.  1.
         21    1    1    2  505  502 -0.56484774752E+02 -0.68182922486E+01 -0.35310293364E+03  0.35765723903E+03  0.00000000000E+00 0. -1.
         21    1    1    2  506  504  0.72617803534E+01 -0.50066163266E+02 -0.71789697690E+02  0.87824340889E+02  0.00000000000E+00 0.  1.
<scales pt_clust_3="92.03685" pt_clust_4="14000.00000" pt_clust_5="57.46910" pt_clust_6="50.59006"></scales>
<clustering>
<clus scale="   50.590">  1  6  2 -1</clus>
<clus scale="   57.469">  2  5  1 -1</clus>
<clus scale="   92.037">  2  3  1 -1</clus>
<clus scale="   50.590">  1  3  2 -1</clus>
</clustering>
</event>
<event>
 6    0  0.9315069E+002  0.2012205E+03  0.7546771E-02  0.1148713E+00
         21   -1    0    0  505  501  0.00000000000E+00  0.00000000000E+00  0.90199960630E+03  0.90199960630E+03  0.00000000000E+00 0. -1.
         21   -1    0    0  506  502 -0.00000000000E+00 -0.00000000000E+00 -0.19282980574E+03  0.19282980574E+03  0.00000000000E+00 0. -1.
         21    1    1    2  503  504 -0.10324218322E+03  0.11596410433E+03  0.49755615868E+03  0.52121852704E+03  0.00000000000E+00 0. -1.
         21    1    1    2  504  501 -0.62430908858E+02  0.27475287265E+02  0.19154884366E+03  0.20333093542E+03  0.00000000000E+00 0.  1.
         21    1    1    2  505  502  0.12083455741E+03 -0.96305207663E+02  0.15600515401E+03  0.21957525217E+03  0.00000000000E+00 0. -1.
         21    1    1    2  506  503  0.44838534671E+02 -0.47134183931E+02 -0.13594035580E+03  0.15070469741E+03  0.00000000000E+00 0. -1.
<scales pt_clust_3="30.25620" pt_clust_4="30.25620" pt_clust_5="195.97425" pt_clust_6="65.05479"></scales>
<clustering>
<clus scale="   30.256">  3  4 -1 -1</clus>
<clus scale="   65.055">  2  6  1 -1</clus>
<clus scale="  195.974">  2  5  1 -1</clus>
<clus scale="  201.221">  1  3  2 -1</clus>
</clustering>
</event>
<event>
 6    0  0.9315069E+002  0.1190136E+03  0.7546771E-02  0.1244733E+00
         21   -1    0    0  503  501  0.00000000000E+00  0.00000000000E+00  0.36040095323E+03  0.36040095323E+03  0.00000000000E+00 0. -1.
         21   -1    0    0  505  502 -0.00000000000E+00 -0.00000000000E+00 -0.13987825583E+03  0.13987825583E+03  0.00000000000E+00 0. -1.
         21    1    1    2  503  504  0.76782870779E+01  0.33421735454E+02  0.28029579184E+02  0.44290245003E+02  0.00000000000E+00 0. -1.
         21    1    1    2  504  506 -0.18426520086E+02  0.90006153682E+02  0.25014027338E+03  0.26647851829E+03  0.00000000000E+00 0. -1.
         21    1    1    2  505  501  0.45653429277E+02 -0.12718527367E+03 -0.70136741880E+02  0.15224812644E+03  0.00000000000E+00 0. -1.
         21    1    1    2  506  502 -0.34905196269E+02  0.37573845382E+01  0.12489586715E+02  0.37262319324E+02  0.00000000000E+00 0. -1.
<scales pt_clust_3="34.29240" pt_clust_4="14000.00000" pt_clust_5="119.01364" pt_clust_6="34.89351"></scales>
<clustering>
<clus scale="   34.292">  1  3  2 -1</clus>
<clus scale="   34.894">  2  6  1 -1</clus>
<clus scale="  119.014">  2  5  1 -1</clus>
<clus scale="   34.292">  1  3  2 -1</clus>
</clustering>
</event>
<event>
 6    0  0.9315069E+002  0.8595678E+02  0.7546771E-02  0.1312949E+00
         21   -1    0    0  506  501  0.00000000000E+00  0.00000000000E+00  0.19559789875E+04  0.19559789875E+04  0.00000000000E+00 0. -1.
         21   -1    0    0  505  502 -0.00000000000E+00 -0.00000000000E+00 -0.26971272653E+03  0.26971272653E+03  0.00000000000E+00 0.  1.
         21    1    1    2  503  501  0.25822272489E+02 -0.42724134169E+02  0.17965883644E+04  0.17972818067E+04  0.00000000000E+00 0. -1.
         21    1    1    2  504  502  0.89282292517E+02  0.62299357276E+02 -0.19889020323E+03  0.22673740454E+03  0.00000000000E+00 0.  1.
         21    1    1    2  505  503 -0.54383243596E+02  0.21464084332E+02 -0.27336199487E+02  0.64540777053E+02  0.00000000000E+00 0.  1.
         21    1    1    2  506  504 -0.60721321410E+02 -0.41039307439E+02  0.11590429929E+03  0.13713172581E+03  0.00000000000E+00 0. -1.
<scales pt_clust_3="49.92135" pt_clust_4="14000.00000" pt_clust_5="53.93808" pt_clust_6="85.95678"></scales>
<clustering>
<clus scale="   49.921">  1  3  2 -1</clus>
<clus scale="   53.938">  2  5  1 -1</clus>
<clus scale="   85.957">  1  6  2 -1</clus>
<clus scale="   49.921">  1  3  2 -1</clus>
</clustering>
</event>
<event>
 6    0  0.9315069E+002  0.1240470E+03  0.7546771E-02  0.1236566E+00
         21   -1    0    0  504  501  0.00000000000E+00  0.00000000000E+00  0.41627238261E+03  0.41627238261E+03  0.00000000000E+00 0.  1.
         21   -1    0    0  501  502 -0.00000000000E+00 -0.00000000000E+00 -0.48898863959E+03  0.48898863959E+03  0.00000000000E+00 0.  1.
         21    1    1    2  503  505 -0.51757165345E+02  0.64531771901E+01 -0.30536927669E+02  0.60439652645E+02  0.00000000000E+00 0.  1.
         21    1    1    2  504  506  0.11162872375E+03 -0.60331509446E+02  0.38544649643E+03  0.40579534818E+03  0.00000000000E+00 0.  1.
         21    1    1    2  505  502 -0.37469763691E+02 -0.36289798356E+01 -0.15627622949E+03  0.16074642326E+03  0.00000000000E+00 0.  1.
         21    1    1    2  506  503 -0.22401794710E+02  0.57507312092E+02 -0.27134959624E+03  0.27827959812E+03  0.00000000000E+00 0.  1.
<scales pt_clust_3="57.22521" pt_clust_4="14000.00000" pt_clust_5="37.64509" pt_clust_6="124.04704"></scales>
<clustering>
<clus scale="   37.645">  2  5  1 -1</clus>
<clus scale="   57.225">  2  3  1 -1</clus>
<clus scale="  124.047">  2  6  1 -1</clus>
<clus scale="  124.047">  1  3  2 -1</clus>
</clustering>
</event>
<event>
 6    0  0.9315069E+002  0.1419824E+03  0.7546771E-02  0.1210686E+00
         21   -1    0    0  504  501  0.00000000000E+00  0.00000000000E+00  0.35543407957E+03  0.35543407957E+03  0.00000000000E+00 0. -1.
         21   -1    0    0  503  502 -0.00000000000E+00 -0.00000000000E+00 -0.16073386267E+03  0.16073386267E+03  0.00000000000E+00 0. -1.
         21    1    1    2  503  506 -0.17863280421E+02  0.30093330726E+02 -0.28389188348E+02  0.45062749102E+02  0.00000000000E+00 0. -1.
         21    1    1    2  504  505  0.12271150209E+03  0.53022074072E+02 -0.31216864834E+02  0.13727325207E+03  0.00000000000E+00 0. -1.
         21    1    1    2  505  502  0.27072435398E+02 -0.25835106657E+02 -0.45587872950E+01  0.37698170193E+02  0.00000000000E+00 0.  1.
         21    1    1    2  506  501 -0.13192065707E+03 -0.57280298141E+02  0.25886505738E+03  0.29613377087E+03  0.00000000000E+00 0. -1.
<scales pt_clust_3="34.99579" pt_clust_4="14000.00000" pt_clust_5="31.72066" pt_clust_6="141.98244"></scales>
<clustering>
<clus scale="   34.996">  2  3  1 -1</clus>
<clus scale="   31.721">  2  5  1 -1</clus>
<clus scale="  141.982">  1  6  2 -1</clus>
<clus scale="  141.982">  1  3  2 -1</clus>
</clustering>
</event>
<event>
 6    0  0.9315069E+002  0.1274155E+03  0.7546771E-02  0.1231342E+00
         21   -1    0    0  502  501  0.00000000000E+00  0.00000000000E+00  0.16223205844E+04  0.16223205844E+04  0.00000000000E+00 0.  1.
         21   -1    0    0  505  502 -0.00000000000E+00 -0.00000000000E+00 -0.87625159657E+03  0.87625159657E+03  0.00000000000E+00 0.  1.
         21    1    1    2  503  506 -0.65891852510E+02 -0.21761599488E+02 -0.99547055365E+02  0.12134628001E+03  0.00000000000E+00 0. -1.
         21    1    1    2  504  503 -0.14235727827E+02 -0.39353414238E+02 -0.45521504734E+02  0.61834897527E+02  0.00000000000E+00 0. -1.
         21    1    1    2  505  504  0.73613021958E+02 -0.57214005172E+02 -0.70687163449E+03  0.71299356732E+03  0.00000000000E+00 0.  1.
         21    1    1    2  506  501  0.65145583790E+01  0.11832901890E+03  0.15980091825E+04  0.16023974362E+04  0.00000000000E+00 0.  1.
<scales pt_clust_3="37.68608" pt_clust_4="37.68608" pt_clust_5="93.23261" pt_clust_6="117.81229"></scales>
<clustering>
<clus scale="   37.686">  3  4 -1 -1</clus>
<clus scale="   93.233">  2  5  1 -1</clus>
<clus scale="  117.812">  1  6  2 -1</clus>
<clus scale="  117.812">  1  3  2 -1</clus>
</clustering>
</event>
<event>
 6    0  0.9315069E+002  0.1109153E+03  0.7546771E-02  0.1258884E+00
         21   -1    0    0  506  501  0.00000000000E+00  0.00000000000E+00  0.49597286427E+02  0.49597286427E+02  0.00000000000E+00 0.  1.
         21   -1    0    0  504  502 -0.00000000000E+00 -0.00000000000E+00 -0.80394588723E+03  0.80394588723E+03  0.00000000000E+00 0.  1.
         21    1    1    2  503  502 -0.31417634829E+02  0.31177816000E+02 -0.22340527227E+03  0.22774775447E+03  0.00000000000E+00 0.  1.
         21    1    1    2  504  501  0.24102004158E+01 -0.12131834151E+03 -0.31014879091E+03  0.33304087070E+03  0.00000000000E+00 0.  1.
         21    1    1    2  505  503 -0.95587575757E+01  0.10971072638E+03 -0.22377404217E+03  0.24940456147E+03  0.00000000000E+00 0.  1.
         21    1    1    2  506  505  0.38566191989E+02 -0.19570200871E+02  0.29795045546E+01  0.43349987013E+02  0.00000000000E+00 0.  1.
<scales pt_clust_3="40.89555" pt_clust_4="110.91530" pt_clust_5="14000.00000" pt_clust_6="43.24747"></scales>
<clustering>
<clus scale="   43.247">  1  6  2 -1</clus>
<clus scale="   40.896">  2  3  1 -1</clus>
<clus scale="  110.915">  2  4  1 -1</clus>
<clus scale="   43.247">  1  3  2 -1</clus>
</clustering>
</event>
<event>
 6    0  0.9315069E+002  0.7227431E+02  0.7546771E-02  0.1352526E+00
         21   -1    0    0  502  501  0.00000000000E+00  0.00000000000E+00  0.32051108291E+03  0.32051108291E+03  0.00000000000E+00 0. -1.
         21   -1    0    0  505  502 -0.00000000000E+00 -0.00000000000E+00 -0.16161978146E+03  0.16161978146E+03  0.00000000000E+00 0. -1.
         21    1    1    2  503  501  0.27947342890E+02  0.39995379541E+02  0.22367432772E+03  0.22893424654E+03  0.00000000000E+00 0. -1.
         21    1    1    2  504  503 -0.25354191749E+02 -0.11572058710E+03  0.18784589886E+02  0.11994561324E+03  0.00000000000E+00 0. -1.
         21    1    1    2  505  506  0.30723944284E+02  0.33791127587E+02 -0.58224439072E+02  0.73999232167E+02  0.00000000000E+00 0. -1.
         21    1    1    2  506  504 -0.33317095425E+02  0.41934079968E+02 -0.25343177086E+02  0.59251772422E+02  0.00000000000E+00 0. -1.
<scales pt_clust_3="50.03984" pt_clust_4="72.27431" pt_clust_5="45.67057" pt_clust_6="14000.00000"></scales>
<clustering>
<clus scale="   45.671">  2  5  1 -1</clus>
<clus scale="   50.040">  1  3  2 -1</clus>
<clus scale="   72.274">  1  4  2 -1</clus>
<clus scale="   50.040">  1  3  2 -1</clus>
</clustering>
</event>
<event>
 6    0  0.9315069E+002  0.9080346E+02  0.7546771E-02  0.1300918E+00
         21   -1    0    0  504  501  0.00000000000E+00  0.00000000000E+00  0.62212458296E+02  0.62212458296E+02  0.00000000000E+00 0. -1.
         21   -1    0    0  505  502 -0.00000000000E+00 -0.00000000000E+00 -0.11488988318E+04  0.11488988318E+04  0.00000000000E+00 0.  1.
         21    1    1    2  503  501 -0.25088341653E+02  0.41382779083E+02 -0.92822031138E+01  0.49275943280E+02  0.00000000000E+00 0.  1.
         21    1    1    2  504  506  0.39226151241E+02 -0.25769972091E+02 -0.26132649331E+02  0.53718691010E+02  0.00000000000E+00 0. -1.
         21    1    1    2  505  503 -0.79406527827E+02  0.21385880948E+02 -0.35488464081E+02  0.89566643615E+02  0.00000000000E+00 0. -1.
         21    1    1    2  506  502  0.65268718240E+02 -0.36998687940E+02 -0.10157830570E+04  0.10185500122E+04  0.00000000000E+00 0.  1.
<scales pt_clust_3="37.68876" pt_clust_4="46.93381" pt_clust_5="37.68876" pt_clust_6="76.36425"></scales>
<clustering>
<clus scale="   37.689">  3  5 -1 -1</clus>
<clus scale="   46.934">  1  4  2 -1</clus>
<clus scale="   76.364">  2  6  1 -1</clus>
<clus scale="   46.934">  1  3  2 -1</clus>
</clustering>
</event>
<event>
 6    0  0.9315069E+002  0.2559761E+03  0.7546771E-02  0.1109585E+00
         21   -1    0    0  506  501  0.00000000000E+00  0.00000000000E+00  0.37026296303E+02  0.37026296303E+02  0.00000000000E+00 0. -1.
         21   -1    0    0  504  502 -0.00000000000E+00 -0.00000000000E+00 -0.38333646062E+04  0.38333646062E+04  0.00000000000E+00 0.  1.
         21    1    1    2  503  502  0.20246221722E+03 -0.72901264026E+02 -0.49974641180E+03  0.54410662541E+03  0.00000000000E+00 0. -1.
         21    1    1    2  504  505 -0.85379810949E+02  0.54767958897E+01 -0.19297030458E+04  0.19315987038E+04  0.00000000000E+00 0.  1.
         21    1    1    2  505  501 -0.14341917971E+03  0.12839916520E+03 -0.11950990831E+04  0.12105028811E+04  0.00000000000E+00 0.  1.
         21    1    1    2  506  503  0.26336773431E+02 -0.60974697062E+02 -0.17178976913E+03  0.18418269217E+03  0.00000000000E+00 0. -1.
<scales pt_clust_3="53.20945" pt_clust_4="85.55529" pt_clust_5="237.38372" pt_clust_6="53.20945"></scales>
<clustering>
<clus scale="   53.209">  3  6 -1 -1</clus>
<clus scale="   85.555">  2  4  1 -1</clus>
<clus scale="  237.384">  2  5  1 -1</clus>
<clus scale="  255.976">  1  3  2 -1</clus>
</clustering>
</event>
<event>
 6    0  0.9315069E+002  0.1664462E+03  0.7546771E-02  0.1181605E+00
         21   -1    0    0  504  501  0.00000000000E+00  0.00000000000E+00  0.26498660251E+04  0.26498660251E+04  0.00000000000E+00 0.  1.
         21   -1    0    0  505  502 -0.00000000000E+00 -0.00000000000E+00 -0.14372173000E+03  0.14372173000E+03  0.00000000000E+00 0. -1.
         21    1    1    2  503  506 -0.11560245470E+03  0.63891951637E+02  0.13119509605E+04  0.13185831153E+04  0.00000000000E+00 0.  1.
         21    1    1    2  504  502  0.81010415362E+02 -0.17600297711E+02  0.65639407813E+02  0.10574019924E+03  0.00000000000E+00 0. -1.
         21    1    1    2  505  503  0.58625420476E+02 -0.85033266731E+02 -0.97694823142E+02  0.14216847346E+03  0.00000000000E+00 0. -1.
         21    1    1    2  506  501 -0.24033381134E+02  0.38741612804E+02  0.12262487498E+04  0.12270959671E+04  0.00000000000E+00 0.  1.
<scales pt_clust_3="166.44624" pt_clust_4="81.01502" pt_clust_5="14000.00000" pt_clust_6="45.59074"></scales>
<clustering>
<clus scale="   45.591">  1  6  2 -1</clus>
<clus scale="   81.015">  2  4  1 -1</clus>
<clus scale="  166.446">  1  3  2 -1</clus>
<clus scale="   45.591">  1  3  2 -1</clus>
</clustering>
</event>
<event>
 6    0  0.9315069E+002  0.9267066E+02  0.7546771E-02  0.1296510E+00
         21   -1    0    0  505  501  0.00000000000E+00  0.00000000000E+00  0.13422566001E+03  0.13422566001E+03  0.00000000000E+00 0.  1.
         21   -1    0    0  501  502 -0.00000000000E+00 -0.00000000000E+00 -0.13596625422E+04  0.13596625422E+04  0.00000000000E+00 0.  1.
         21    1    1    2  503  504  0.80795567359E+02  0.23200692519E+02 -0.28255765779E+03  0.29479658379E+03  0.00000000000E+00 0.  1.
         21    1    1    2  504  502  0.27684908070E+02 -0.29062980444E+02 -0.10254482275E+04  0.10262334911E+04  0.00000000000E+00 0.  1.
         21    1    1    2  505  506 -0.49272678575E+02  0.36918300601E+02  0.86166687727E+02  0.10590304928E+03  0.00000000000E+00 0.  1.
         21    1    1    2  506  503 -0.59207796854E+02 -0.31056012676E+02 -0.35976845628E+01  0.66955077969E+02  0.00000000000E+00 0. -1.
<scales pt_clust_3="92.67066" pt_clust_4="40.13865" pt_clust_5="60.39934" pt_clust_6="14000.00000"></scales>
<clustering>
<clus scale="   40.139">  2  4  1 -1</clus>
<clus scale="   60.399">  1  5  2 -1</clus>
<clus scale="   92.671">  2  3  1 -1</clus>
<clus scale="   60.399">  1  3  2 -1</clus>
</clustering>
</event>
<event>
 6    0  0.9315069E+002  0.1069387E+03  0.7546771E-02  0.1266346E+00
         21   -1    0    0  505  501  0.00000000000E+00  0.00000000000E+00  0.45204462208E+03  0.45204462208E+03  0.00000000000E+00 0. -1.
         21   -1    0    0  503  502 -0.00000000000E+00 -0.00000000000E+00 -0.96667395164E+02  0.96667395164E+02  0.00000000000E+00 0. -1.
         21    1    1    2  503  501 -0.11469517424E+02 -0.11361496412E+03  0.29000151354E+03  0.31167416922E+03  0.00000000000E+00 0. -1.
         21    1    1    2  504  506  0.42294319585E+02  0.63122797021E+00  0.43421789645E+02  0.60618971732E+02  0.00000000000E+00 0.  1.
         21    1    1    2  505  504 -0.22524626685E+01  0.92200634442E+02  0.70704328355E+02  0.11621158560E+03  0.00000000000E+00 0. -1.
         21    1    1    2  506  502 -0.28572339492E+02  0.20783101712E+02 -0.48750404628E+02  0.60207290690E+02  0.00000000000E+00 0. -1.
<scales pt_clust_3="106.93873" pt_clust_4="36.79422" pt_clust_5="14000.00000" pt_clust_6="35.33151"></scales>
<clustering>
<clus scale="   35.332">  2  6  1 -1</clus>
<clus scale="   36.794">  2  4  1 -1</clus>
<clus scale="  106.939">  1  3  2 -1</clus>
<clus scale="  106.939">  1  3  2 -1</clus>
</clustering>
</event>
<event>
 6    0  0.9315069E+002  0.2541195E+03  0.7546771E-02  0.1110729E+00
         21   -1    0    0  504  501  0.00000000000E+00  0.00000000000E+00  0.24426400407E+03  0.24426400407E+03  0.00000000000E+00 0. -1.
         21   -1    0    0  501  502 -0.00000000000E+00 -0.00000000000E+00 -0.25764729666E+03  0.25764729666E+03  0.00000000000E+00 0.  1.
         21    1    1    2  503  506 -0.83846363653E+02 -0.13286508071E+02 -0.39410348016E+02  0.93594441743E+02  0.00000000000E+00 0.  1.
         21    1    1    2  504  505  0.18360252865E+03  0.23746840961E+02 -0.13123334624E+02  0.18559639785E+03  0.00000000000E+00 0. -1.
         21    1    1    2  505  503  0.51799857997E+02 -0.72863187784E+01  0.47833508669E+02  0.70882722024E+02  0.00000000000E+00 0. -1.
         21    1    1    2  506  502 -0.15155602299E+03 -0.31740141116E+01 -0.86831186258E+01  0.15183773912E+03  0.00000000000E+00 0.  1.
<scales pt_clust_3="35.40809" pt_clust_4="50.12320" pt_clust_5="50.12320" pt_clust_6="240.67400"></scales>
<clustering>
<clus scale="   35.408">  3  6 -1 -1</clus>
<clus scale="   50.123">  4  5 -1 -1</clus>
<clus scale="  240.674">  2  3  1 -1</clus>
<clus scale="  254.120">  1  3  2 -1</clus>
</clustering>
</event>
<event>
 6    0  0.9315069E+002  0.9382713E+02  0.7546771E-02  0.1293840E+00
         21   -1    0    0  505  501  0.00000000000E+00  0.00000000000E+00  0.16712371053E+04  0.16712371053E+04  0.00000000000E+00 0. -1.
         21   -1    0    0  506  502 -0.00000000000E+00 -0.00000000000E+00 -0.22453873598E+03  0.22453873598E+03  0.00000000000E+00 0. -1.
         21    1    1    2  503  504 -0.32613603829E+02  0.11965334504E+02  0.20706433179E+03  0.20995821938E+03  0.00000000000E+00 0. -1.
         21    1    1    2  504  501 -0.11267598907E+02  0.30847814482E+02  0.14188239572E+04  0.14192039909E+04  0.00000000000E+00 0. -1.
         21    1    1    2  505  502  0.28152946557E+02 -0.11515841780E+03 -0.13786335535E+03  0.18182506521E+03  0.00000000000E+00 0. -1.
         21    1    1    2  506  503  0.15728256179E+02  0.72345268814E+02 -0.41326564313E+02  0.84788565739E+02  0.00000000000E+00 0. -1.
<scales pt_clust_3="56.22965" pt_clust_4="32.84123" pt_clust_5="14000.00000" pt_clust_6="93.82713"></scales>
<clustering>
<clus scale="   32.841">  1  4  2 -1</clus>
<clus scale="   56.230">  1  3  2 -1</clus>
<clus scale="   93.827">  2  6  1 -1</clus>
<clus scale="   32.841">  1  3  2 -1</clus>
</clustering>
</event>
<event>
 6    0  0.9315069E+002  0.8809176E+02  0.7546771E-02  0.1307540E+00
         21   -1    0    0  505  501  0.00000000000E+00  0.00000000000E+00  0.19337391863E+03  0.19337391863E+03  0.00000000000E+00 0. -1.
         21   -1    0    0  506  502 -0.00000000000E+00 -0.00000000000E+00 -0.25242677346E+04  0.25242677346E+04  0.00000000000E+00 0. -1.
         21    1    1    2  503  502  0.49701813057E+02  0.76048184357E+02 -0.18865082938E+04  0.18886945595E+04  0.00000000000E+00 0. -1.
         21    1    1    2  504  503 -0.22196490618E+02 -0.77503910173E+02 -0.39016937606E+03  0.39841144851E+03  0.00000000000E+00 0. -1.
         21    1    1    2  505  504  0.35427163956E+02  0.79709572768E+01  0.18220853881E+03  0.18579174288E+03  0.00000000000E+00 0. -1.
         21    1    1    2  506  501 -0.62932486395E+02 -0.65152314607E+01 -0.23642468495E+03  0.24474390236E+03  0.00000000000E+00 0. -1.
<scales pt_clust_3="88.09176" pt_clust_4="14000.00000" pt_clust_5="36.31281" pt_clust_6="47.30554"></scales>
<clustering>
<clus scale="   36.313">  1  5  2 -1</clus>
<clus scale="   47.306">  1  6  2 -1</clus>
<clus scale="   88.092">  2  3  1 -1</clus>
<clus scale="   36.313">  1  3  2 -1</clus>
</clustering>
</event>
<event>
 6    0  0.9315069E+002  0.1380203E+03  0.7546771E-02  0.1216018E+00
         21   -1    0    0  504  501  0.00000000000E+00  0.00000000000E+00  0.26391146836E+03  0.26391146836E+03  0.00000000000E+00 0.  1.
         21   -1    0    0  506  502 -0.00000000000E+00 -0.00000000000E+00 -0.12252926337E+03  0.12252926337E+03  0.00000000000E+00 0.  1.
         21    1    1    2  503  502 -0.35599178575E+02 -0.28774896581E+01 -0.46891662725E+02  0.58944121803E+02  0.00000000000E+00 0. -1.
         21    1    1    2  504  503  0.65648957189E+02  0.11938412910E+03  0.10433064714E+03  0.17160198075E+03  0.00000000000E+00 0.  1.
         21    1    1    2  505  501 -0.89056926695E+00 -0.56687407621E+02  0.65925865722E+02  0.86950992333E+02  0.00000000000E+00 0.  1.
         21    1    1    2  506  505 -0.29159209347E+02 -0.59819231825E+02  0.18017354858E+02  0.68943636849E+02  0.00000000000E+00 0.  1.
<scales pt_clust_3="35.71528" pt_clust_4="127.55276" pt_clust_5="46.44376" pt_clust_6="46.44376"></scales>
<clustering>
<clus scale="   35.715">  2  3  1 -1</clus>
<clus scale="   46.444">  5  6 -1 -1</clus>
<clus scale="  127.553">  2  4  1 -1</clus>
<clus scale="  138.020">  1  3  2 -1</clus>
</clustering>
</event>
<event>
 6    0  0.9315069E+002  0.1508543E+03  0.7546771E-02  0.1199427E+00
         21   -1    0    0  506  501  0.00000000000E+00  0.00000000000E+00  0.35972563740E+03  0.35972563740E+03  0.00000000000E+00 0. -1.
         21   -1    0    0  505  502 -0.00000000000E+00 -0.00000000000E+00 -0.26204792175E+03  0.26204792175E+03  0.00000000000E+00 0.  1.
         21    1    1    2  503  504  0.36288448902E+02 -0.88988725118E+02 -0.10179510676E+03  0.13999317298E+03  0.00000000000E+00 0.  1.
         21    1    1    2  504  501 -0.59060138977E+02  0.87918853896E+02 -0.11534368507E+02  0.10654044557E+03  0.00000000000E+00 0. -1.
         21    1    1    2  505  503  0.62608350627E+02 -0.55050592556E+02 -0.55392882169E+02  0.10009367964E+03  0.00000000000E+00 0.  1.
         21    1    1    2  506  502 -0.39836660552E+02  0.56120463778E+02  0.26640007308E+03  0.27514626095E+03  0.00000000000E+00 0. -1.
<scales pt_clust_3="45.68319" pt_clust_4="142.65798" pt_clust_5="45.68319" pt_clust_6="68.82199"></scales>
<clustering>
<clus scale="   45.683">  3  5 -1 -1</clus>
<clus scale="   68.822">  1  6  2 -1</clus>
<clus scale="  142.658">  1  4  2 -1</clus>
<clus scale="   68.822">  1  3  2 -1</clus>
</clustering>
</event>
<event>
 6    0  0.9315069E+002  0.1829712E+03  0.7546771E-02  0.1164958E+00
         21   -1    0    0  504  501  0.00000000000E+00  0.00000000000E+00  0.23067274489E+03  0.23067274489E+03  0.00000000000E+00 0.  1.
         21   -1    0    0  505  502 -0.00000000000E+00 -0.00000000000E+00 -0.74101209891E+03  0.74101209891E+03  0.00000000000E+00 0.  1.
         21    1    1    2  503  506 -0.77168326242E+02 -0.13443864518E+03 -0.97387917750E+02  0.18306585268E+03  0.00000000000E+00 0.  1.
         21    1    1    2  504  503  0.26546767304E+00  0.20343168585E+03  0.89373515680E+02  0.22219843966E+03  0.00000000000E+00 0.  1.
         21    1    1    2  505  501  0.14166502784E+03 -0.11335488245E+03 -0.31881643255E+03  0.36682724429E+03  0.00000000000E+00 0.  1.
         21    1    1    2  506  502 -0.64762169272E+02  0.44361841785E+02 -0.18350851940E+03  0.19959330717E+03  0.00000000000E+00 0.  1.
<scales pt_clust_3="182.97122" pt_clust_4="14000.00000" pt_clust_5="132.64131" pt_clust_6="78.49912"></scales>
<clustering>
<clus scale="   78.499">  2  6  1 -1</clus>
<clus scale="  132.641">  2  5  1 -1</clus>
<clus scale="  182.971">  2  3  1 -1</clus>
<clus scale="  182.971">  1  3  2 -1</clus>
</clustering>
</event>
<event>
 6    0  0.9315069E+002  0.1545466E+03  0.7546771E-02  0.1194995E+00
         21   -1    0    0  506  501  0.00000000000E+00  0.00000000000E+00  0.72642308423E+02  0.72642308423E+02  0.00000000000E+00 0. -1.
         21   -1    0    0  503  502 -0.00000000000E+00 -0.00000000000E+00 -0.55738163070E+03  0.55738163070E+03  0.00000000000E+00 0. -1.
         21    1    1    2  503  504 -0.59386502776E+02 -0.18614969277E+02 -0.70887524872E+02  0.94330880286E+02  0.00000000000E+00 0. -1.
         21    1    1    2  504  505 -0.79413901959E+02  0.24101287386E+02 -0.13317209931E+03  0.15691477914E+03  0.00000000000E+00 0. -1.
         21    1    1    2  505  501  0.13866335040E+03 -0.79525040870E+02 -0.11382438421E+03  0.19623390968E+03  0.00000000000E+00 0. -1.
         21    1    1    2  506  502  0.13705433771E+00  0.74038722761E+02 -0.16685531388E+03  0.18254437001E+03  0.00000000000E+00 0. -1.
<scales pt_clust_3="40.51057" pt_clust_4="40.51057" pt_clust_5="147.29647" pt_clust_6="74.03885"></scales>
<clustering>
<clus scale="   40.511">  3  4 -1 -1</clus>
<clus scale="   74.039">  2  6  1 -1</clus>
<clus scale="  147.296">  1  5  2 -1</clus>
<clus scale="  147.296">  1  3  2 -1</clus>
</clustering>
</event>
<event>
 6    0  0.9315069E+002  0.1782064E+03  0.7546771E-02  0.1169550E+00
         21   -1    0    0  505  501  0.00000000000E+00  0.00000000000E+00  0.67672778969E+02  0.67672778969E+02  0.00000000000E+00 0. -1.
         21   -1    0    0  503  502 -0.00000000000E+00 -0.00000000000E+00 -0.25971160655E+04  0.25971160655E+04  0.00000000000E+00 0.  1.
         21    1    1    2  503  506  0.20239687295E+02 -0.40311349990E+02 -0.33827234953E+03  0.34126651218E+03  0.00000000000E+00 0.  1.
         21    1    1    2  504  502 -0.16412288805E+03 -0.13436250689E+03 -0.13346130092E+04  0.13513628269E+04  0.00000000000E+00 0.  1.
         21    1    1    2  505  504  0.12646578060E+03  0.12076150310E+03 -0.77877338354E+02  0.19142051647E+03  0.00000000000E+00 0. -1.
         21    1    1    2  506  501  0.17417420154E+02  0.53912353776E+02 -0.77868058944E+03  0.78073898889E+03  0.00000000000E+00 0.  1.
<scales pt_clust_3="45.10709" pt_clust_4="178.20639" pt_clust_5="14000.00000" pt_clust_6="46.84916"></scales>
<clustering>
<clus scale="   45.107">  2  3  1 -1</clus>
<clus scale="   46.849">  2  6  1 -1</clus>
<clus scale="  178.206">  2  4  1 -1</clus>
<clus scale="  178.206">  1  3  2 -1</clus>
</clustering>
</event>
<event>
 6    0  0.9315069E+002  0.6949499E+02  0.7546771E-02  0.1361819E+00
         21   -1    0    0  503  501  0.00000000000E+00  0.00000000000E+00  0.33944610721E+02  0.33944610721E+02  0.00000000000E+00 0. -1.
         21   -1    0    0  506  502 -0.00000000000E+00 -0.00000000000E+00 -0.16063787862E+04  0.16063787862E+04  0.00000000000E+00 0. -1.
         21    1    1    2  503  505 -0.11413974705E+02 -0.76165471554E+02 -0.48672056895E+02  0.91106679217E+02  0.00000000000E+00 0. -1.
         21    1    1    2  504  501  0.45469567424E+02  0.41240539990E+02 -0.10274191330E+03  0.11968360142E+03  0.00000000000E+00 0. -1.
         21    1    1    2  505  502  0.10938535383E+02  0.84166563107E+02 -0.62742232551E+03  0.63313698079E+03  0.00000000000E+00 0. -1.
         21    1    1    2  506  504 -0.44994128102E+02 -0.49241631543E+02 -0.79359787974E+03  0.79639613546E+03  0.00000000000E+00 0. -1.
<scales pt_clust_3="49.48327" pt_clust_4="61.38618" pt_clust_5="14000.00000" pt_clust_6="69.49499"></scales>
<clustering>
<clus scale="   61.386">  1  4  2 -1</clus>
<clus scale="   49.483">  1  3  2 -1</clus>
<clus scale="   69.495">  2  6  1 -1</clus>
<clus scale="   61.386">  1  3  2 -1</clus>
</clustering>
</event>
<event>
 6    0  0.9315069E+002  0.8466333E+02  0.7546771E-02  0.1316315E+00
         21   -1    0    0  503  501  0.00000000000E+00  0.00000000000E+00  0.57994253737E+03  0.57994253737E+03  0.00000000000E+00 0.  1.
         21   -1    0    0  506  502 -0.00000000000E+00 -0.00000000000E+00 -0.35867388590E+03  0.35867388590E+03  0.00000000000E+00 0. -1.
         21    1    1    2  503  505 -0.70246445418E+02  0.45678664298E+02 -0.59862754112E+02  0.10297889490E+03  0.00000000000E+00 0. -1.
         21    1    1    2  504  501 -0.64264252472E+02 -0.54331091623E+02  0.52769531224E+03  0.53436326991E+03  0.00000000000E+00 0.  1.
         21    1    1    2  505  502  0.12401058851E+02 -0.34583484278E+02 -0.24402331083E+02  0.44105299089E+02  0.00000000000E+00 0. -1.
         21    1    1    2  506  504  0.12210963904E+03  0.43235911603E+02 -0.22216157558E+03  0.25716895936E+03  0.00000000000E+00 0. -1.
<scales pt_clust_3="76.65458" pt_clust_4="84.66333" pt_clust_5="36.73967" pt_clust_6="14000.00000"></scales>
<clustering>
<clus scale="   36.740">  2  5  1 -1</clus>
<clus scale="   76.655">  2  3  1 -1</clus>
<clus scale="   84.663">  1  4  2 -1</clus>
<clus scale="   84.663">  1  3  2 -1</clus>
</clustering>
</event>
<event>
 6    0  0.9315069E+002  0.6211532E+02  0.7546771E-02  0.1389163E+00
         21   -1    0    0  505  501  0.00000000000E+00  0.00000000000E+00  0.69699145291E+02  0.69699145291E+02  0.00000000000E+00 0. -1.
         21   -1    0    0  504  502 -0.00000000000E+00 -0.00000000000E+00 -0.43375255748E+03  0.43375255748E+03  0.00000000000E+00 0. -1.
         21    1    1    2  503  501 -0.51641264517E+02  0.26283890469E+02 -0.59324461540E+02  0.82928009961E+02  0.00000000000E+00 0. -1.
         21    1    1    2  504  503 -0.54382305710E+02 -0.24804300197E+02 -0.18263593659E+03  0.19216808740E+03  0.00000000000E+00 0.  1.
         21    1    1    2  505  506  0.57064817477E+02 -0.49615273882E+02  0.13084013383E+02  0.76741515507E+02  0.00000000000E+00 0. -1.
         21    1    1    2  506  502  0.48958752750E+02  0.48135683610E+02 -0.13517702744E+03  0.15161408990E+03  0.00000000000E+00 0. -1.
<scales pt_clust_3="57.94535" pt_clust_4="14000.00000" pt_clust_5="33.81325" pt_clust_6="62.11532"></scales>
<clustering>
<clus scale="   57.945">  1  3  2 -1</clus>
<clus scale="   33.813">  1  5  2 -1</clus>
<clus scale="   62.115">  1  6  2 -1</clus>
<clus scale="   57.945">  1  3  2 -1</clus>
</clustering>
</event>
<event>
 6    0  0.9315069E+002  0.2141621E+03  0.7546771E-02  0.1138312E+00
         21   -1    0    0  506  501  0.00000000000E+00  0.00000000000E+00  0.11843826397E+04  0.11843826397E+04  0.00000000000E+00 0.  1.
         21   -1    0    0  504  502 -0.00000000000E+00 -0.00000000000E+00 -0.54601053472E+03  0.54601053472E+03  0.00000000000E+00 0.  1.
         21    1    1    2  503  501 -0.84811746140E+02  0.16538104134E+02  0.33871767208E+03  0.34956573424E+03  0.00000000000E+00 0. -1.
         21    1    1    2  504  503  0.78937205370E+02 -0.12643824173E+03  0.61593036408E+03  0.63370965336E+03  0.00000000000E+00 0.  1.
         21    1    1    2  505  502  0.14360234985E+03  0.17228710264E+03 -0.47660379285E+03  0.52674059648E+03  0.00000000000E+00 0.  1.
         21    1    1    2  506  505 -0.13772780908E+03 -0.62386965049E+02  0.16032786171E+03  0.22037719038E+03  0.00000000000E+00 0.  1.
<scales pt_clust_3="86.40915" pt_clust_4="115.23810" pt_clust_5="214.16210" pt_clust_6="14000.00000"></scales>
<clustering>
<clus scale="   86.409">  1  3  2 -1</clus>
<clus scale="  115.238">  1  4  2 -1</clus>
<clus scale="  214.162">  2  5  1 -1</clus>
<clus scale="   86.409">  1  3  2 -1</clus>
</clustering>
</event>
<event>
 6    0  0.9315069E+002  0.7928374E+02  0.7546771E-02  0.1331096E+00
         21   -1    0    0  502  501  0.00000000000E+00  0.00000000000E+00  0.67086814571E+02  0.67086814571E+02  0.00000000000E+00 0.  1.
         21   -1    0    0  503  502 -0.00000000000E+00 -0.00000000000E+00 -0.47088991899E+03  0.47088991899E+03  0.00000000000E+00 0.  1.
         21    1    1    2  503  505  0.37509542051E+02 -0.15911403876E+02 -0.29485522154E+03  0.29765708490E+03  0.00000000000E+00 0.  1.
         21    1    1    2  504  501  0.35253607210E+02  0.37204287781E+01 -0.33477950764E+02  0.48758913021E+02  0.00000000000E+00 0.  1.
         21    1    1    2  505  506  0.28468941179E+02 -0.49051888721E+02 -0.34334539089E+02  0.66298031445E+02  0.00000000000E+00 0.  1.
         21    1    1    2  506  504 -0.10123209044E+03  0.61242863819E+02 -0.41135393022E+02  0.12526270420E+03  0.00000000000E+00 0.  1.
<scales pt_clust_3="41.47737" pt_clust_4="35.44938" pt_clust_5="79.28374" pt_clust_6="14000.00000"></scales>
<clustering>
<clus scale="   35.449">  1  4  2 -1</clus>
<clus scale="   41.477">  2  3  1 -1</clus>
<clus scale="   79.284">  2  5  1 -1</clus>
<clus scale="   35.449">  1  3  2 -1</clus>
</clustering>
</event>
<event>
 6    0  0.9315069E+002  0.7835427E+02  0.7546771E-02  0.1333788E+00
         21   -1    0    0  504  501  0.00000000000E+00  0.00000000000E+00  0.45888928972E+03  0.45888928972E+03  0.00000000000E+00 0.  1.
         21   -1    0    0  506  502 -0.00000000000E+00 -0.00000000000E+00 -0.73528269886E+02  0.73528269886E+02  0.00000000000E+00 0.  1.
         21    1    1    2  503  501 -0.92659148944E+01 -0.45663186323E+02  0.58755073900E+02  0.74987615464E+02  0.00000000000E+00 0.  1.
         21    1    1    2  504  505 -0.21069027241E+02 -0.41798281407E+02  0.27607407293E+03  0.28001409604E+03  0.00000000000E+00 0.  1.
         21    1    1    2  505  502  0.37364538495E+02  0.12110528446E+03  0.62121370351E+02  0.14114412250E+03  0.00000000000E+00 0.  1.
         21    1    1    2  506  503 -0.70295963597E+01 -0.33643816733E+02 -0.11589497348E+02  0.36271725601E+02  0.00000000000E+00 0.  1.
<scales pt_clust_3="14000.00000" pt_clust_4="48.12839" pt_clust_5="78.35427" pt_clust_6="34.37036"></scales>
<clustering>
<clus scale="   34.370">  2  6  1 -1</clus>
<clus scale="   48.128">  1  4  2 -1</clus>
<clus scale="   78.354">  2  5  1 -1</clus>
<clus scale="   48.128">  1  3  2 -1</clus>
</clustering>
</event>
<event>
 6    0  0.9315069E+002  0.1171385E+03  0.7546771E-02  0.1247894E+00
         21   -1    0    0  503  501  0.00000000000E+00  0.00000000000E+00  0.67246243460E+02  0.67246243460E+02  0.00000000000E+00 0. -1.
         21   -1    0    0  505  502 -0.00000000000E+00 -0.00000000000E+00 -0.12335213720E+04  0.12335213720E+04  0.00000000000E+00 0. -1.
         21    1    1    2  503  506 -0.16697424470E+02  0.31605216678E+02  0.11370855391E+01  0.35762923101E+02  0.00000000000E+00 0. -1.
         21    1    1    2  504  501 -0.10309303462E+03 -0.51183681228E+02 -0.30268255512E+02  0.11901306778E+03  0.00000000000E+00 0. -1.
         21    1    1    2  505  504  0.87523631305E+02  0.56444522561E+00 -0.10000846083E+04  0.10039073306E+04  0.00000000000E+00 0. -1.
         21    1    1    2  506  502  0.32266827780E+02  0.19014019325E+02 -0.13705935027E+03  0.14208429400E+03  0.00000000000E+00 0.  1.
<scales pt_clust_3="35.74484" pt_clust_4="14000.00000" pt_clust_5="117.13853" pt_clust_6="37.58285"></scales>
<clustering>
<clus scale="   35.745">  1  3  2 -1</clus>
<clus scale="   37.583">  2  6  1 -1</clus>
<clus scale="  117.139">  2  5  1 -1</clus>
<clus scale="   35.745">  1  3  2 -1</clus>
</clustering>
</event>
<event>
 6    0  0.9315069E+002  0.1024072E+03  0.7546771E-02  0.1275314E+00
         21   -1    0    0  505  501  0.00000000000E+00  0.00000000000E+00  0.27203016229E+03  0.27203016229E+03  0.00000000000E+00 0. -1.
         21   -1    0    0  504  502 -0.00000000000E+00 -0.00000000000E+00 -0.38831944278E+03  0.38831944278E+03  0.00000000000E+00 0.  1.
         21    1    1    2  503  501  0.51709881295E+01  0.29908518779E+02  0.10463307361E+03  0.10894649470E+03  0.00000000000E+00 0. -1.
         21    1    1    2  504  503 -0.42112432066E+02 -0.21865050301E+02 -0.11129599625E+02  0.48738130318E+02  0.00000000000E+00 0. -1.
         21    1    1    2  505  506  0.11433310455E+03 -0.72329389817E+02  0.10559333382E+03  0.17162037051E+03  0.00000000000E+00 0. -1.
         21    1    1    2  506  502 -0.77391660615E+02  0.64285921339E+02 -0.31538608829E+03  0.33104460954E+03  0.00000000000E+00 0.  1.
<scales pt_clust_3="30.35224" pt_clust_4="45.44301" pt_clust_5="14000.00000" pt_clust_6="102.40721"></scales>
<clustering>
<clus scale="   30.352">  1  3  2 -1</clus>
<clus scale="   45.443">  1  4  2 -1</clus>
<clus scale="  102.407">  2  6  1 -1</clus>
<clus scale="   30.352">  1  3  2 -1</clus>
</clustering>
</event>
<event>
 6    0  0.9315069E+002  0.1628213E+03  0.7546771E-02  0.1185548E+00
         21   -1    0    0  503  501  0.00000000000E+00  0.00000000000E+00  0.75330963589E+03  0.75330963589E+03  0.00000000000E+00 0. -1.
         21   -1    0    0  505  502 -0.00000000000E+00 -0.00000000000E+00 -0.24697434456E+03  0.24697434456E+03  0.00000000000E+00 0. -1.
         21    1    1    2  503  506 -0.63672424142E+02 -0.73651276368E+02  0.66638596403E+01  0.97586347058E+02  0.00000000000E+00 0. -1.
         21    1    1    2  504  501  0.15945004752E+03 -0.53769556288E+02  0.64795786591E+03  0.66945117733E+03  0.00000000000E+00 0. -1.
         21    1    1    2  505  504 -0.66154826920E+02  0.70007707023E+02 -0.13729641424E+03  0.16771358183E+03  0.00000000000E+00 0. -1.
         21    1    1    2  506  502 -0.29622796455E+02  0.57413125633E+02 -0.10990019984E+02  0.65532874224E+02  0.00000000000E+00 0. -1.
<scales pt_clust_3="93.03915" pt_clust_4="14000.00000" pt_clust_5="162.82128" pt_clust_6="64.60478"></scales>
<clustering>
<clus scale="   64.605">  2  6  1 -1</clus>
<clus scale="   93.039">  2  3  1 -1</clus>
<clus scale="  162.821">  2  5  1 -1</clus>
<clus scale="  162.821">  1  3  2 -1</clus>
</clustering>
</event>
<event>
 6    0  0.9315069E+002  0.1063203E+03  0.7546771E-02  0.1267540E+00
         21   -1    0    0  506  501  0.00000000000E+00  0.00000000000E+00  0.11784858662E+04  0.11784858662E+04  0.00000000000E+00 0. -1.
         21   -1    0    0  503  502 -0.00000000000E+00 -0.00000000000E+00 -0.31309468781E+03  0.31309468781E+03  0.00000000000E+00 0. -1.
         21    1    1    2  503  504 -0.10193861038E+03 -0.41163759785E+02 -0.18520098822E+03  0.21537256428E+03  0.00000000000E+00 0. -1.
         21    1    1    2  504  501  0.44126267456E+02 -0.24939002794E+02 -0.41808781104E+01  0.50858244974E+02  0.00000000000E+00 0. -1.
         21    1    1    2  505  502  0.58915038642E+02  0.97115661685E+02 -0.47152759812E+02  0.12298705737E+03  0.00000000000E+00 0. -1.
         21    1    1    2  506  505 -0.11026957219E+01 -0.31012899105E+02  0.11019258045E+04  0.11023626874E+04  0.00000000000E+00 0. -1.
<scales pt_clust_3="14000.00000" pt_clust_4="55.69768" pt_clust_5="106.32030" pt_clust_6="31.03250"></scales>
<clustering>
<clus scale="   31.032">  1  6  2 -1</clus>
<clus scale="   55.698">  1  4  2 -1</clus>
<clus scale="  106.320">  1  5  2 -1</clus>
<clus scale="   31.032">  1  3  2 -1</clus>
</clustering>
</event>
<event>
 6    0  0.9315069E+002  0.9125868E+02  0.7546771E-02  0.1299832E+00
         21   -1    0    0  506  501  0.00000000000E+00  0.00000000000E+00  0.14935113081E+02  0.14935113081E+02  0.00000000000E+00 0.  1.
         21   -1    0    0  503  502 -0.00000000000E+00 -0.00000000000E+00 -0.18769567608E+04  0.18769567608E+04  0.00000000000E+00 0.  1.
         21    1    1    2  503  504 -0.34069483182E+02 -0.82665871776E+02 -0.55277896213E+03  0.55996335328E+03  0.00000000000E+00 0.  1.
         21    1    1    2  504  501  0.42003796034E+02  0.80471421601E+02 -0.25922339850E+03  0.27465749381E+03  0.00000000000E+00 0.  1.
         21    1    1    2  505  502  0.28901846573E+02 -0.16854217571E+02 -0.92396338131E+03  0.92456893274E+03  0.00000000000E+00 0.  1.
         21    1    1    2  506  505 -0.36836159426E+02  0.19048667747E+02 -0.12605590573E+03  0.13270209401E+03  0.00000000000E+00 0.  1.
<scales pt_clust_3="91.25868" pt_clust_4="14000.00000" pt_clust_5="33.45716" pt_clust_6="36.93287"></scales>
<clustering>
<clus scale="   33.457">  2  5  1 -1</clus>
<clus scale="   36.933">  1  6  2 -1</clus>
<clus scale="   91.259">  2  3  1 -1</clus>
<clus scale="   36.933">  1  3  2 -1</clus>
</clustering>
</event>
<event>
 6    0  0.9315069E+002  0.1500012E+03  0.7546771E-02  0.1200472E+00
         21   -1    0    0  502  501  0.00000000000E+00  0.00000000000E+00  0.65607622304E+03  0.65607622304E+03  0.00000000000E+00 0.  1.
         21   -1    0    0  504  502 -0.00000000000E+00 -0.00000000000E+00 -0.18129442930E+03  0.18129442930E+03  0.00000000000E+00 0.  1.
         21    1    1    2  503  506 -0.78042503275E+02 -0.69491505636E+02  0.32037729581E+03  0.33698859527E+03  0.00000000000E+00 0.  1.
         21    1    1    2  504  505 -0.92522984796E+01 -0.32657171720E+02 -0.13934240895E+03  0.14341688472E+03  0.00000000000E+00 0.  1.
         21    1    1    2  505  503  0.86990205244E+02  0.13791111379E+03  0.20975662738E+03  0.26567765025E+03  0.00000000000E+00 0.  1.
         21    1    1    2  506  501  0.30459651018E+00 -0.35762436437E+02  0.83990279505E+02  0.91287522095E+02  0.00000000000E+00 0. -1.
<scales pt_clust_3="30.87718" pt_clust_4="33.94254" pt_clust_5="140.40885" pt_clust_6="30.87718"></scales>
<clustering>
<clus scale="   30.877">  3  6 -1 -1</clus>
<clus scale="   33.943">  2  4  1 -1</clus>
<clus scale="  140.409">  2  5  1 -1</clus>
<clus scale="  150.001">  1  3  2 -1</clus>
</clustering>
</event>
<event>
 6    0  0.9315069E+002  0.7807835E+02  0.7546771E-02  0.1334595E+00
         21   -1    0    0  506  501  0.00000000000E+00  0.00000000000E+00  0.67712049207E+02  0.67712049207E+02  0.00000000000E+00 0.  1.
         21   -1    0    0  504  502 -0.00000000000E+00 -0.00000000000E+00 -0.55408873891E+03  0.55408873891E+03  0.00000000000E+00 0. -1.
         21    1    1    2  503  505  0.62604694251E+02  0.21735516132E+02 -0.69753161036E+02  0.96214779937E+02  0.00000000000E+00 0.  1.
         21    1    1    2  504  503 -0.10580164112E+02 -0.34567788944E+02 -0.34268397002E+03  0.34458551219E+03  0.00000000000E+00 0. -1.
         21    1    1    2  505  501 -0.12554067837E+02 -0.70053975609E+02 -0.47134316417E+02  0.85362801629E+02  0.00000000000E+00 0. -1.
         21    1    1    2  506  502 -0.39470462302E+02  0.82886248421E+02 -0.26805242234E+02  0.95637694362E+02  0.00000000000E+00 0.  1.
<scales pt_clust_3="58.99228" pt_clust_4="36.15068" pt_clust_5="78.07835" pt_clust_6="14000.00000"></scales>
<clustering>
<clus scale="   36.151">  2  4  1 -1</clus>
<clus scale="   58.992">  2  3  1 -1</clus>
<clus scale="   78.078">  2  5  1 -1</clus>
<clus scale="   78.078">  1  3  2 -1</clus>
</clustering>
</event>
<event>
 6    0  0.9315069E+002  0.8504458E+02  0.7546771E-02  0.1315316E+00
         21   -1    0    0  504  501  0.00000000000E+00  0.00000000000E+00  0.12764571022E+03  0.12764571022E+03  0.00000000000E+00 0.  1.
         21   -1    0    0  505  502 -0.00000000000E+00 -0.00000000000E+00 -0.90540295417E+03  0.90540295417E+03  0.00000000000E+00 0.  1.
         21    1    1    2  503  501  0.41406661903E+02  0.60971271017E+02  0.68564657205E+02  0.10066339830E+03  0.00000000000E+00 0.  1.
         21    1    1    2  504  506 -0.77307390034E+02 -0.36841421527E+02 -0.58157116638E+02  0.10351798447E+03  0.00000000000E+00 0.  1.
         21    1    1    2  505  503  0.10311369929E+03  0.24458321424E+02 -0.14087045895E+03  0.17628139628E+03  0.00000000000E+00 0. -1.
         21    1    1    2  506  502 -0.67212971158E+02 -0.48588170915E+02 -0.64729432556E+03  0.65258588534E+03  0.00000000000E+00 0.  1.
<scales pt_clust_3="73.70215" pt_clust_4="55.68264" pt_clust_5="14000.00000" pt_clust_6="85.04458"></scales>
<clustering>
<clus scale="   73.702">  1  3  2 -1</clus>
<clus scale="   55.683">  1  4  2 -1</clus>
<clus scale="   85.045">  2  6  1 -1</clus>
<clus scale="   73.702">  1  3  2 -1</clus>
</clustering>
</event>
<event>
 6    0  0.9315069E+002  0.1337465E+03  0.7546771E-02  0.1222000E+00
         21   -1    0    0  506  501  0.00000000000E+00  0.00000000000E+00  0.94190327780E+03  0.94190327780E+03  0.00000000000E+00 0.  1.
         21   -1    0    0  504  502 -0.00000000000E+00 -0.00000000000E+00 -0.14181137044E+03  0.14181137044E+03  0.00000000000E+00 0.  1.
         21    1    1    2  503  501 -0.24570954553E+02 -0.13673761280E+03  0.65194012784E+03  0.66657845513E+03  0.00000000000E+00 0.  1.
         21    1    1    2  504  503  0.72141682608E+02  0.97190207126E+02  0.17727988270E+03  0.21465906816E+03  0.00000000000E+00 0.  1.
         21    1    1    2  505  502 -0.16633935689E+02  0.38251689536E+02 -0.10905615956E+03  0.11676097596E+03  0.00000000000E+00 0.  1.
         21    1    1    2  506  505 -0.30936792366E+02  0.12957161344E+01  0.79928056380E+02  0.85716148997E+02  0.00000000000E+00 0.  1.
<scales pt_clust_3="14000.00000" pt_clust_4="133.74646" pt_clust_5="41.77270" pt_clust_6="30.96391"></scales>
<clustering>
<clus scale="   30.964">  1  6  2 -1</clus>
<clus scale="   41.773">  2  5  1 -1</clus>
<clus scale="  133.746">  2  4  1 -1</clus>
<clus scale="   30.964">  1  3  2 -1</clus>
</clustering>
</event>
<event>
 6    0  0.9315069E+002  0.1114001E+03  0.7546771E-02  0.1257999E+00
         21   -1    0    0  503  501  0.00000000000E+00  0.00000000000E+00  0.16595898967E+03  0.16595898967E+03  0.00000000000E+00 0.  1.
         21   -1    0    0  504  502 -0.00000000000E+00 -0.00000000000E+00 -0.26329809211E+03  0.26329809211E+03  0.00000000000E+00 0. -1.
         21    1    1    2  503  502  0.62759033205E+02  0.89532416362E+02 -0.14429559719E+02  0.11028581968E+03  0.00000000000E+00 0.  1.
         21    1    1    2  504  505  0.64256943936E+02 -0.23874287687E+01 -0.12969891187E+03  0.14476347053E+03  0.00000000000E+00 0. -1.
         21    1    1    2  505  506 -0.94799066428E+02 -0.72955324790E+02  0.52207418979E+01  0.11973553590E+03  0.00000000000E+00 0.  1.
         21    1    1    2  506  501 -0.32216910713E+02 -0.14189662804E+02  0.41568627248E+02  0.54472255669E+02  0.00000000000E+00 0. -1.
<scales pt_clust_3="14000.00000" pt_clust_4="62.28652" pt_clust_5="111.40015" pt_clust_6="35.20335"></scales>
<clustering>
<clus scale="   35.203">  1  6  2 -1</clus>
<clus scale="   62.287">  2  4  1 -1</clus>
<clus scale="  111.400">  2  5  1 -1</clus>
<clus scale="   35.203">  1  3  2 -1</clus>
</clustering>
</event>
<event>
 6    0  0.9315069E+002  0.1241093E+03  0.7546771E-02  0.1236468E+00
         21   -1    0    0  504  501  0.00000000000E+00  0.00000000000E+00  0.78894185848E+03  0.78894185848E+03  0.00000000000E+00 0. -1.
         21   -1    0    0  503  502 -0.00000000000E+00 -0.00000000000E+00 -0.19922477105E+03  0.19922477105E+03  0.00000000000E+00 0. -1.
         21    1    1    2  503  506 -0.37878564409E+02 -0.70164067371E+00 -0.43003929266E+02  0.57311568410E+02  0.00000000000E+00 0. -1.
         21    1    1    2  504  505  0.34840590773E+02 -0.31818028903E+01  0.34903232558E+02  0.49418885844E+02  0.00000000000E+00 0. -1.
         21    1    1    2  505  502  0.14647946101E+03 -0.47831573556E+02 -0.88965635272E+02  0.17792969451E+03  0.00000000000E+00 0. -1.
         21    1    1    2  506  501 -0.14344148738E+03  0.51715017120E+02  0.68678341942E+03  0.70350648077E+03  0.00000000000E+00 0. -1.
<scales pt_clust_3="37.55194" pt_clust_4="34.98558" pt_clust_5="124.10934" pt_clust_6="14000.00000"></scales>
<clustering>
<clus scale="   34.986">  1  4  2 -1</clus>
<clus scale="   37.552">  2  3  1 -1</clus>
<clus scale="  124.109">  2  5  1 -1</clus>
<clus scale="   34.986">  1  3  2 -1</clus>
</clustering>
</event>
<event>
 6    0  0.9315069E+002  0.8151524E+02  0.7546771E-02  0.1324806E+00
         21   -1    0    0  503  501  0.00000000000E+00  0.00000000000E+00  0.49767029230E+03  0.49767029230E+03  0.00000000000E+00 0.  1.
         21   -1    0    0  505  502 -0.00000000000E+00 -0.00000000000E+00 -0.92549734954E+02  0.92549734954E+02  0.00000000000E+00 0.  1.
         21    1    1    2  503  504  0.17900065379E+02 -0.56319322457E+02  0.30853752711E+03  0.31414595980E+03  0.00000000000E+00 0.  1.
         21    1    1    2  504  506 -0.12133308369E+03  0.51308617332E+02  0.78960295764E+02  0.15358717303E+03  0.00000000000E+00 0.  1.
         21    1    1    2  505  501  0.31904117484E+02 -0.93473371673E+01  0.34174149905E+02  0.47677226704E+02  0.00000000000E+00 0.  1.
         21    1    1    2  506  502  0.71528900830E+02  0.14358042293E+02 -0.16551415431E+02  0.74809667726E+02  0.00000000000E+00 0.  1.
<scales pt_clust_3="74.17609" pt_clust_4="14000.00000" pt_clust_5="33.24523" pt_clust_6="81.51524"></scales>
<clustering>
<clus scale="   33.245">  1  5  2 -1</clus>
<clus scale="   74.176">  1  3  2 -1</clus>
<clus scale="   81.515">  2  6  1 -1</clus>
<clus scale="   33.245">  1  3  2 -1</clus>
</clustering>
</event>
<event>
 6    0  0.9315069E+002  0.9798439E+02  0.7546771E-02  0.1284592E+00
         21   -1    0    0  506  501  0.00000000000E+00  0.00000000000E+00  0.48895741911E+03  0.48895741911E+03  0.00000000000E+00 0. -1.
         21   -1    0    0  503  502 -0.00000000000E+00 -0.00000000000E+00 -0.32085499172E+03  0.32085499172E+03  0.00000000000E+00 0. -1.
         21    1    1    2  503  501  0.44228705456E+02  0.34025979630E+02  0.30537987263E+03  0.31043648671E+03  0.00000000000E+00 0. -1.
         21    1    1    2  504  502 -0.86684005734E+01 -0.37897197107E+02 -0.24625668804E+03  0.24930642816E+03  0.00000000000E+00 0. -1.
         21    1    1    2  505  504 -0.10021280302E+03 -0.47441914926E-01 -0.23209145907E+02  0.10286531288E+03  0.00000000000E+00 0.  1.
         21    1    1    2  506  505  0.64652498136E+02  0.39186593918E+01  0.13218838871E+03  0.14720418308E+03  0.00000000000E+00 0. -1.
<scales pt_clust_3="54.77219" pt_clust_4="38.87594" pt_clust_5="14000.00000" pt_clust_6="97.98439"></scales>
<clustering>
<clus scale="   38.876">  2  4  1 -1</clus>
<clus scale="   54.772">  1  3  2 -1</clus>
<clus scale="   97.984">  1  6  2 -1</clus>
<clus scale="   54.772">  1  3  2 -1</clus>
</clustering>
</event>
<event>
 6    0  0.9315069E+002  0.9015168E+02  0.7546771E-02  0.1302485E+00
         21   -1    0    0  504  501  0.00000000000E+00  0.00000000000E+00  0.24970756276E+03  0.24970756276E+03  0.00000000000E+00 0. -1.
         21   -1    0    0  505  502 -0.00000000000E+00 -0.00000000000E+00 -0.51923077577E+03  0.51923077577E+03  0.00000000000E+00 0. -1.
         21    1    1    2  503  506 -0.75125946562E+02  0.96723384025E+02 -0.37091245917E+03  0.39060897741E+03  0.00000000000E+00 0. -1.
         21    1    1    2  504  502  0.49784255974E+02 -0.78766874676E+01  0.16671441266E+03  0.17416718904E+03  0.00000000000E+00 0. -1.
         21    1    1    2  505  503  0.54062192120E+02 -0.72256211597E+01 -0.97604609515E+02  0.11181050942E+03  0.00000000000E+00 0. -1.
         21    1    1    2  506  501 -0.28720501532E+02 -0.81621075398E+02  0.32279443008E+02  0.92351662672E+02  0.00000000000E+00 0. -1.
<scales pt_clust_3="90.15168" pt_clust_4="50.40352" pt_clust_5="59.05828" pt_clust_6="14000.00000"></scales>
<clustering>
<clus scale="   50.404">  1  4  2 -1</clus>
<clus scale="   59.058">  2  5  1 -1</clus>
<clus scale="   90.152">  2  3  1 -1</clus>
<clus scale="   50.404">  1  3  2 -1</clus>
</clustering>
</event>
<event>
 6    0  0.9315069E+002  0.1056322E+03  0.7546771E-02  0.1268879E+00
         21   -1    0    0  503  501  0.00000000000E+00  0.00000000000E+00  0.47531218626E+02  0.47531218626E+02  0.00000000000E+00 0.  1.
         21   -1    0    0  505  502 -0.00000000000E+00 -0.00000000000E+00 -0.57053304834E+03  0.57053304834E+03  0.00000000000E+00 0.  1.
         21    1    1    2  503  504  0.49546617891E+02  0.24097100472E+02 -0.41471737733E+01  0.55251575958E+02  0.00000000000E+00 0.  1.
         21    1    1    2  504  502  0.66894874711E+02  0.35361469577E+02 -0.21520036268E+03  0.22811522065E+03  0.00000000000E+00 0.  1.
         21    1    1    2  505  506 -0.37059335948E+02 -0.42138268868E+02 -0.16137217300E+03  0.17085083056E+03  0.00000000000E+00 0.  1.
         21    1    1    2  506  501 -0.79382156654E+02 -0.17320301180E+02 -0.14228212025E+03  0.16384663979E+03  0.00000000000E+00 0.  1.
<scales pt_clust_3="55.09571" pt_clust_4="91.84567" pt_clust_5="43.36297" pt_clust_6="43.36297"></scales>
<clustering>
<clus scale="   43.363">  5  6 -1 -1</clus>
<clus scale="   55.096">  1  3  2 -1</clus>
<clus scale="   91.846">  2  4  1 -1</clus>
<clus scale="   55.096">  1  3  2 -1</clus>
</clustering>
</event>
<event>
 6    0  0.9315069E+002  0.1563320E+03  0.7546771E-02  0.1192901E+00
         21   -1    0    0  506  501  0.00000000000E+00  0.00000000000E+00  0.46074324577E+03  0.46074324577E+03  0.00000000000E+00 0. -1.
         21   -1    0    0  505  502 -0.00000000000E+00 -0.00000000000E+00 -0.38940692966E+03  0.38940692966E+03  0.00000000000E+00 0. -1.
         21    1    1    2  503  502 -0.20307112703E+02  0.14555447539E+03  0.18749161193E+03  0.23822591940E+03  0.00000000000E+00 0. -1.
         21    1    1    2  504  501  0.10464350371E+03 -0.14136798590E+03  0.16204652938E+03  0.23915318938E+03  0.00000000000E+00 0. -1.
         21    1    1    2  505  504 -0.54736507364E+02 -0.12212884634E+02 -0.31778575168E+03  0.32269648861E+03  0.00000000000E+00 0. -1.
         21    1    1    2  506  503 -0.29599883645E+02  0.80263951512E+01  0.39583926481E+02  0.50074578047E+02  0.00000000000E+00 0. -1.
<scales pt_clust_3="156.33205" pt_clust_4="14000.00000" pt_clust_5="56.24273" pt_clust_6="30.66881"></scales>
<clustering>
<clus scale="   30.669">  1  6  2 -1</clus>
<clus scale="   56.243">  2  5  1 -1</clus>
<clus scale="  156.332">  1  3  2 -1</clus>
<clus scale="   30.669">  1  3  2 -1</clus>
</clustering>
</event>
<event>
 6    0  0.9315069E+002  0.1798939E+03  0.7546771E-02  0.1167906E+00
         21   -1    0    0  503  501  0.00000000000E+00  0.00000000000E+00  0.10095027454E+04  0.10095027454E+04  0.00000000000E+00 0.  1.
         21   -1    0    0  504  502 -0.00000000000E+00 -0.00000000000E+00 -0.96931821840E+02  0.96931821840E+02  0.00000000000E+00 0. -1.
         21    1    1    2  503  506  0.11298567200E+02 -0.57533312431E+02  0.10571097001E+03  0.12088237605E+03  0.00000000000E+00 0. -1.
         21    1    1    2  504  501 -0.16578370707E+03 -0.22028823430E+02  0.78507523360E+03  0.80269086764E+03  0.00000000000E+00 0.  1.
         21    1    1    2  505  502  0.95227527998E+02  0.45672088103E+02 -0.12712086201E+02  0.10637583774E+03  0.00000000000E+00 0. -1.
         21    1    1    2  506  505  0.59257611874E+02  0.33890047759E+02  0.34496806148E+02  0.76485485790E+02  0.00000000000E+00 0. -1.
<scales pt_clust_3="58.63224" pt_clust_4="172.02884" pt_clust_5="42.29721" pt_clust_6="42.29721"></scales>
<clustering>
<clus scale="   42.297">  5  6 -1 -1</clus>
<clus scale="   58.632">  1  3  2 -1</clus>
<clus scale="  172.029">  1  4  2 -1</clus>
<clus scale="   58.632">  1  3  2 -1</clus>
</clustering>
</event>
<event>
 6    0  0.9315069E+002  0.1334223E+03  0.7546771E-02  0.1222464E+00
         21   -1    0    0  506  501  0.00000000000E+00  0.00000000000E+00  0.95443508636E+03  0.95443508636E+03  0.00000000000E+00 0. -1.
         21   -1    0    0  505  502 -0.00000000000E+00 -0.00000000000E+00 -0.51179251116E+02  0.51179251116E+02  0.00000000000E+00 0.  1.
         21    1    1    2  503  501  0.88501518550E+02  0.15247104961E+03  0.24144727355E+03  0.29895940470E+03  0.00000000000E+00 0.  1.
         21    1    1    2  504  502  0.58334403680E+01 -0.10711882188E+03  0.22013177914E+03  0.24488052437E+03  0.00000000000E+00 0. -1.
         21    1    1    2  505  503 -0.26220674218E+02  0.18983366607E+02  0.54204090869E+02  0.63134581895E+02  0.00000000000E+00 0.  1.
         21    1    1    2  506  504 -0.68114284700E+02 -0.64335594336E+02  0.38747269168E+03  0.39863982650E+03  0.00000000000E+00 0. -1.
<scales pt_clust_3="14000.00000" pt_clust_4="133.42234" pt_clust_5="32.37116" pt_clust_6="94.49120"></scales>
<clustering>
<clus scale="   32.371">  2  5  1 -1</clus>
<clus scale="   94.491">  1  6  2 -1</clus>
<clus scale="  133.422">  2  4  1 -1</clus>
<clus scale="   94.491">  1  3  2 -1</clus>
</clustering>
</event>
<event>
 6    0  0.9315069E+002  0.1381658E+03  0.7546771E-02  0.1215818E+00
         21   -1    0    0  506  501  0.00000000000E+00  0.00000000000E+00  0.58159215398E+03  0.58159215398E+03  0.00000000000E+00 0.  1.
         21   -1    0    0  503  502 -0.00000000000E+00 -0.00000000000E+00 -0.92470118269E+03  0.92470118269E+03  0.00000000000E+00 0.  1.
         21    1    1    2  503  504 -0.47788417037E+02  0.22296570090E+02 -0.46557984168E+02  0.70345687362E+02  0.00000000000E+00 0.  1.
         21    1    1    2  504  501 -0.81380988426E+02 -0.11096322038E+03  0.53291750450E+03  0.55039691874E+03  0.00000000000E+00 0.  1.
         21    1    1    2  505  502  0.75931952148E+01 -0.57531034842E+02 -0.33119227314E+02  0.66815864893E+02  0.00000000000E+00 0.  1.
         21    1    1    2  506  505  0.12157621025E+03  0.14619768514E+03 -0.79634932174E+03  0.81873486567E+03  0.00000000000E+00 0.  1.
<scales pt_clust_3="52.73395" pt_clust_4="14000.00000" pt_clust_5="56.45248" pt_clust_6="138.16583"></scales>
<clustering>
<clus scale="   52.734">  2  3  1 -1</clus>
<clus scale="   56.452">  2  5  1 -1</clus>
<clus scale="  138.166">  2  6  1 -1</clus>
<clus scale="  138.166">  1  3  2 -1</clus>
</clustering>
</event>
<event>
 6    0  0.9315069E+002  0.1209978E+03  0.7546771E-02  0.1241460E+00
         21   -1    0    0  503  501  0.00000000000E+00  0.00000000000E+00  0.40930911770E+03  0.40930911770E+03  0.00000000000E+00 0.  1.
         21   -1    0    0  506  502 -0.00000000000E+00 -0.00000000000E+00 -0.46649743665E+03  0.46649743665E+03  0.00000000000E+00 0. -1.
         21    1    1    2  503  505 -0.16369792458E+02  0.15356554858E+03  0.14833806748E+03  0.21413670886E+03  0.00000000000E+00 0.  1.
         21    1    1    2  504  501 -0.22651457746E+02 -0.99282151506E+02  0.98564695884E+02  0.14172167590E+03  0.00000000000E+00 0.  1.
         21    1    1    2  505  502 -0.33598884841E+02  0.98902891922E+00 -0.39187845693E+03  0.39331741411E+03  0.00000000000E+00 0. -1.
         21    1    1    2  506  504  0.72620135045E+02 -0.55272425994E+02  0.87787374623E+02  0.12663075548E+03  0.00000000000E+00 0.  1.
<scales pt_clust_3="120.99776" pt_clust_4="14000.00000" pt_clust_5="33.61344" pt_clust_6="84.23498"></scales>
<clustering>
<clus scale="   33.613">  2  5  1 -1</clus>
<clus scale="   84.235">  2  6  1 -1</clus>
<clus scale="  120.998">  2  3  1 -1</clus>
<clus scale="  120.998">  1  3  2 -1</clus>
</clustering>
</event>
<event>
 6    0  0.9315069E+002  0.1118602E+03  0.7546771E-02  0.1257163E+00
         21   -1    0    0  503  501  0.00000000000E+00  0.00000000000E+00  0.28192232097E+03  0.28192232097E+03  0.00000000000E+00 0. -1.
         21   -1    0    0  504  502 -0.00000000000E+00 -0.00000000000E+00 -0.10393270266E+04  0.10393270266E+04  0.00000000000E+00 0. -1.
         21    1    1    2  503  505 -0.53762190219E+01 -0.54829768976E+02 -0.23236825825E+02  0.59792619706E+02  0.00000000000E+00 0. -1.
         21    1    1    2  504  506  0.10601754240E+03 -0.75769061747E+01 -0.60183291254E+03  0.61114645006E+03  0.00000000000E+00 0. -1.
         21    1    1    2  505  502  0.92628470602E+01  0.40906514369E+02 -0.37800230660E+03  0.38032208331E+03  0.00000000000E+00 0. -1.
         21    1    1    2  506  501 -0.10990417044E+03  0.21500160782E+02  0.24566733929E+03  0.26998819453E+03  0.00000000000E+00 0. -1.
<scales pt_clust_3="52.47676" pt_clust_4="14000.00000" pt_clust_5="41.94214" pt_clust_6="111.86020"></scales>
<clustering>
<clus scale="   41.942">  2  5  1 -1</clus>
<clus scale="   52.477">  2  3  1 -1</clus>
<clus scale="  111.860">  1  6  2 -1</clus>
<clus scale="  111.860">  1  3  2 -1</clus>
</clustering>
</event>
<event>
 6    0  0.9315069E+002  0.1225894E+03  0.7546771E-02  0.1238885E+00
         21   -1    0    0  505  501  0.00000000000E+00  0.00000000000E+00  0.35675769886E+02  0.35675769886E+02  0.00000000000E+00 0. -1.
         21   -1    0    0  504  502 -0.00000000000E+00 -0.00000000000E+00 -0.19463991370E+04  0.19463991370E+04  0.00000000000E+00 0. -1.
         21    1    1    2  503  506  0.61656104900E+02  0.86583862978E+02 -0.50657563030E+03  0.51760709985E+03  0.00000000000E+00 0. -1.
         21    1    1    2  504  503  0.67443896267E+02 -0.83831448974E+02 -0.44755467184E+03  0.46030595832E+03  0.00000000000E+00 0. -1.
         21    1    1    2  505  502 -0.16237627747E+03  0.76615783232E+01 -0.95555010992E+03  0.96927847796E+03  0.00000000000E+00 0. -1.
         21    1    1    2  506  501  0.33276276302E+02 -0.10413992328E+02 -0.10429550635E+01  0.34883370766E+02  0.00000000000E+00 0. -1.
<scales pt_clust_3="109.90807" pt_clust_4="122.58942" pt_clust_5="14000.00000" pt_clust_6="34.86778"></scales>
<clustering>
<clus scale="   34.868">  1  6  2 -1</clus>
<clus scale="  109.908">  1  3  2 -1</clus>
<clus scale="  122.589">  2  4  1 -1</clus>
<clus scale="   34.868">  1  3  2 -1</clus>
</clustering>
</event>
<event>
 6    0  0.9315069E+002  0.2122319E+03  0.7546771E-02  0.1139811E+00
         21   -1    0    0  504  501  0.00000000000E+00  0.00000000000E+00  0.64311239114E+02  0.64311239114E+02  0.00000000000E+00 0.  1.
         21   -1    0    0  506  502 -0.00000000000E+00 -0.00000000000E+00 -0.11653744941E+04  0.11653744941E+04  0.00000000000E+00 0.  1.
         21    1    1    2  503  502  0.47476521586E+02 -0.41491177682E+02 -0.24232300025E+03  0.25039164199E+03  0.00000000000E+00 0.  1.
         21    1    1    2  504  505  0.22109555349E+02  0.37748940776E+02 -0.54957987534E+02  0.70243827923E+02  0.00000000000E+00 0.  1.
         21    1    1    2  505  503  0.42761921549E+02 -0.14837458573E+03 -0.64160807773E+03  0.65992766651E+03  0.00000000000E+00 0.  1.
         21    1    1    2  506  501 -0.11234799848E+03  0.15211682264E+03 -0.16217418943E+03  0.24912259675E+03  0.00000000000E+00 0.  1.
<scales pt_clust_3="35.89328" pt_clust_4="43.74717" pt_clust_5="35.89328" pt_clust_6="204.66384"></scales>
<clustering>
<clus scale="   35.893">  3  5 -1 -1</clus>
<clus scale="   43.747">  1  4  2 -1</clus>
<clus scale="  204.664">  1  6  2 -1</clus>
<clus scale="   43.747">  1  3  2 -1</clus>
</clustering>
</event>
<event>
 6    0  0.9315069E+002  0.1811697E+03  0.7546771E-02  0.1166676E+00
         21   -1    0    0  506  501  0.00000000000E+00  0.00000000000E+00  0.74438532153E+03  0.74438532153E+03  0.00000000000E+00 0.  1.
         21   -1    0    0  505  502 -0.00000000000E+00 -0.00000000000E+00 -0.10050297254E+04  0.10050297254E+04  0.00000000000E+00 0. -1.
         21    1    1    2  503  501 -0.33172059272E+02  0.21068482885E+02  0.63359834273E+03  0.63481582084E+03  0.00000000000E+00 0.  1.
         21    1    1    2  504  503  0.87673244939E+02  0.33020701206E+02 -0.52098469232E+03  0.52934111329E+03  0.00000000000E+00 0.  1.
         21    1    1    2  505  504  0.62124595137E+02  0.62372803366E+02 -0.40751706570E+03  0.41691724690E+03  0.00000000000E+00 0. -1.
         21    1    1    2  506  502 -0.11662578080E+03 -0.11646198746E+03  0.34259011415E+02  0.16834086591E+03  0.00000000000E+00 0. -1.
<scales pt_clust_3="39.29716" pt_clust_4="40.66534" pt_clust_5="40.66534" pt_clust_6="176.27368"></scales>
<clustering>
<clus scale="   39.297">  1  3  2 -1</clus>
<clus scale="   40.665">  4  5 -1 -1</clus>
<clus scale="  176.274">  1  6  2 -1</clus>
<clus scale="   39.297">  1  3  2 -1</clus>
</clustering>
</event>
<event>
 6    0  0.9315069E+002  0.1055923E+03  0.7546771E-02  0.1268957E+00
         21   -1    0    0  502  501  0.00000000000E+00  0.00000000000E+00  0.64584681648E+02  0.64584681648E+02  0.00000000000E+00 0.  1.
         21   -1    0    0  505  502 -0.00000000000E+00 -0.00000000000E+00 -0.47322894810E+03  0.47322894810E+03  0.00000000000E+00 0.  1.
         21    1    1    2  503  504 -0.27005415249E+02 -0.47149446415E+02 -0.13688380433E+03  0.14727368617E+03  0.00000000000E+00 0.  1.
         21    1    1    2  504  501  0.68106772168E+02  0.71672261174E+02 -0.16047894491E+01  0.98883875259E+02  0.00000000000E+00 0.  1.
         21    1    1    2  505  506 -0.53476751229E+02  0.15722731309E+02 -0.21589850348E+03  0.22297787111E+03  0.00000000000E+00 0.  1.
         21    1    1    2  506  503  0.12375394309E+02 -0.40245546067E+02 -0.54257169189E+02  0.68678197202E+02  0.00000000000E+00 0.  1.
<scales pt_clust_3="41.74118" pt_clust_4="94.34674" pt_clust_5="55.74018" pt_clust_6="41.74118"></scales>
<clustering>
<clus scale="   41.741">  3  6 -1 -1</clus>
<clus scale="   55.740">  2  5  1 -1</clus>
<clus scale="   94.347">  1  4  2 -1</clus>
<clus scale="   94.347">  1  3  2 -1</clus>
</clustering>
</event>
<event>
 6    0  0.9315069E+002  0.8158413E+02  0.7546771E-02  0.1324615E+00
         21   -1    0    0  506  501  0.00000000000E+00  0.00000000000E+00  0.63711834218E+03  0.63711834218E+03  0.00000000000E+00 0. -1.
         21   -1    0    0  505  502 -0.00000000000E+00 -0.00000000000E+00 -0.85429862075E+02  0.85429862075E+02  0.00000000000E+00 0. -1.
         21    1    1    2  503  502 -0.34918802525E+01  0.41705687986E+02 -0.56995534792E+02  0.70711021943E+02  0.00000000000E+00 0. -1.
         21    1    1    2  504  501 -0.35156154002E+02  0.14517846527E+02  0.18165444224E+03  0.18559380220E+03  0.00000000000E+00 0.  1.
         21    1    1    2  505  504 -0.56717375314E+02  0.18113662653E+02  0.87587749422E+02  0.10590835324E+03  0.00000000000E+00 0. -1.
         21    1    1    2  506  503  0.95365409568E+02 -0.74337197166E+02  0.33944182323E+03  0.36033502686E+03  0.00000000000E+00 0. -1.
<scales pt_clust_3="42.11785" pt_clust_4="38.03581" pt_clust_5="81.58413" pt_clust_6="14000.00000"></scales>
<clustering>
<clus scale="   38.036">  1  4  2 -1</clus>
<clus scale="   42.118">  2  3  1 -1</clus>
<clus scale="   81.584">  2  5  1 -1</clus>
<clus scale="   38.036">  1  3  2 -1</clus>
</clustering>
</event>
<event>
 6    0  0.9315069E+002  0.1972868E+03  0.7546771E-02  0.1152048E+00
         21   -1    0    0  504  501  0.00000000000E+00  0.00000000000E+00  0.13726392017E+03  0.13726392017E+03  0.00000000000E+00 0. -1.
         21   -1    0    0  506  502 -0.00000000000E+00 -0.00000000000E+00 -0.36345494660E+03  0.36345494660E+03  0.00000000000E+00 0. -1.
         21    1    1    2  503  501 -0.15466864614E+03  0.85926735450E+02 -0.67751549360E+02  0.18946257257E+03  0.00000000000E+00 0. -1.
         21    1    1    2  504  505  0.58801336828E+02 -0.10992423686E+02 -0.12087991146E+02  0.61029092417E+02  0.00000000000E+00 0.  1.
         21    1    1    2  505  502  0.95148663577E+02 -0.11248324169E+03 -0.65807738308E+02  0.16135800650E+03  0.00000000000E+00 0. -1.
         21    1    1    2  506  503  0.71864573328E+00  0.37548929926E+02 -0.80543747612E+02  0.88869195280E+02  0.00000000000E+00 0. -1.
<scales pt_clust_3="185.68970" pt_clust_4="43.93820" pt_clust_5="43.93820" pt_clust_6="37.55581"></scales>
<clustering>
<clus scale="   37.556">  2  6  1 -1</clus>
<clus scale="   43.938">  4  5 -1 -1</clus>
<clus scale="  185.690">  1  3  2 -1</clus>
<clus scale="  185.690">  1  3  2 -1</clus>
</clustering>
</event>
<event>
 6    0  0.9315069E+002  0.1427158E+03  0.7546771E-02  0.1209721E+00
         21   -1    0    0  505  501  0.00000000000E+00  0.00000000000E+00  0.35445539012E+03  0.35445539012E+03  0.00000000000E+00 0. -1.
         21   -1    0    0  506  502 -0.00000000000E+00 -0.00000000000E+00 -0.24131446592E+04  0.24131446592E+04  0.00000000000E+00 0. -1.
         21    1    1    2  503  504  0.31994531852E+02 -0.51645289068E+02 -0.84634537841E+03  0.84852306127E+03  0.00000000000E+00 0. -1.
         21    1    1    2  504  501 -0.12040944175E+03  0.86190598560E+02  0.32606810058E+03  0.35811682334E+03  0.00000000000E+00 0. -1.
         21    1    1    2  505  502  0.93629167867E+02  0.12321126275E+01 -0.18765773794E+03  0.20972211564E+03  0.00000000000E+00 0. -1.
         21    1    1    2  506  503 -0.52142579731E+01 -0.35777422119E+02 -0.13507542534E+04  0.13512380491E+04  0.00000000000E+00 0. -1.
<scales pt_clust_3="84.88363" pt_clust_4="14000.00000" pt_clust_5="142.71585" pt_clust_6="36.15539"></scales>
<clustering>
<clus scale="   36.155">  2  6  1 -1</clus>
<clus scale="   84.884">  2  3  1 -1</clus>
<clus scale="  142.716">  2  5  1 -1</clus>
<clus scale="  142.716">  1  3  2 -1</clus>
</clustering>
</event>
<event>
 6    0  0.9315069E+002  0.1460642E+03  0.7546771E-02  0.1205394E+00
         21   -1    0    0  506  501  0.00000000000E+00  0.00000000000E+00  0.29325634179E+02  0.29325634179E+02  0.00000000000E+00 0. -1.
         21   -1    0    0  505  502 -0.00000000000E+00 -0.00000000000E+00 -0.11262429539E+04  0.11262429539E+04  0.00000000000E+00 0. -1.
         21    1    1    2  503  504 -0.52461562149E+02 -0.90939099060E+02 -0.44291859376E+03  0.45519118614E+03  0.00000000000E+00 0. -1.
         21    1    1    2  504  501  0.10984232224E+03  0.61494657786E+02 -0.22968631305E+03  0.26192123071E+03  0.00000000000E+00 0. -1.
         21    1    1    2  505  503 -0.37456514132E+02 -0.15299672972E+02 -0.32718990410E+03  0.32968212537E+03  0.00000000000E+00 0.  1.
         21    1    1    2  506  502 -0.19924245955E+02  0.44744114246E+02 -0.97122508821E+02  0.10877404588E+03  0.00000000000E+00 0. -1.
<scales pt_clust_3="37.18099" pt_clust_4="133.22042" pt_clust_5="37.18099" pt_clust_6="48.97970"></scales>
<clustering>
<clus scale="   37.181">  3  5 -1 -1</clus>
<clus scale="   48.980">  1  6  2 -1</clus>
<clus scale="  133.220">  1  4  2 -1</clus>
<clus scale="   48.980">  1  3  2 -1</clus>
</clustering>
</event>
<event>
 6    0  0.9315069E+002  0.8880751E+02  0.7546771E-02  0.1305765E+00
         21   -1    0    0  505  501  0.00000000000E+00  0.00000000000E+00  0.11882471965E+03  0.11882471965E+03  0.00000000000E+00 0.  1.
         21   -1    0    0  503  502 -0.00000000000E+00 -0.00000000000E+00 -0.21087041322E+03  0.21087041322E+03  0.00000000000E+00 0.  1.
         21    1    1    2  503  506  0.68629304466E+02 -0.47167851362E+02 -0.34153647242E+02  0.90006995581E+02  0.00000000000E+00 0.  1.
         21    1    1    2  504  502 -0.77532800744E+02  0.52137083790E+02 -0.70182942342E+02  0.11685570629E+03  0.00000000000E+00 0.  1.
         21    1    1    2  505  504 -0.51159029744E+02 -0.26043049400E+02 -0.25867141383E+01  0.57464578972E+02  0.00000000000E+00 0. -1.
         21    1    1    2  506  501  0.60062526022E+02  0.21073816972E+02  0.14877610157E+02  0.65367852022E+02  0.00000000000E+00 0.  1.
<scales pt_clust_3="88.80751" pt_clust_4="14000.00000" pt_clust_5="57.40633" pt_clust_6="38.81724"></scales>
<clustering>
<clus scale="   57.406">  1  5  2 -1</clus>
<clus scale="   38.817">  1  6  2 -1</clus>
<clus scale="   88.808">  1  3  2 -1</clus>
<clus scale="   57.406">  1  3  2 -1</clus>
</clustering>
</event>
<event>
 6    0  0.9315069E+002  0.6797107E+02  0.7546771E-02  0.1367132E+00
         21   -1    0    0  506  501  0.00000000000E+00  0.00000000000E+00  0.81923873151E+03  0.81923873151E+03  0.00000000000E+00 0.  1.
         21   -1    0    0  505  502 -0.00000000000E+00 -0.00000000000E+00 -0.63721504682E+02  0.63721504682E+02  0.00000000000E+00 0. -1.
         21    1    1    2  503  504 -0.49648188457E+02  0.59354811664E+02  0.18706548084E+03  0.20243870778E+03  0.00000000000E+00 0. -1.
         21    1    1    2  504  501 -0.25835964234E+02  0.36019718852E+02  0.53525765929E+03  0.53709001017E+03  0.00000000000E+00 0.  1.
         21    1    1    2  505  503  0.56745333079E+02 -0.35705022454E+02 -0.94889762285E+01  0.67712053023E+02  0.00000000000E+00 0. -1.
         21    1    1    2  506  502  0.18738819613E+02 -0.59669508062E+02  0.42683062924E+02  0.75719465221E+02  0.00000000000E+00 0. -1.
<scales pt_clust_3="67.97107" pt_clust_4="44.32739" pt_clust_5="14000.00000" pt_clust_6="53.81465"></scales>
<clustering>
<clus scale="   44.327">  1  4  2 -1</clus>
<clus scale="   53.815">  1  6  2 -1</clus>
<clus scale="   67.971">  1  3  2 -1</clus>
<clus scale="   44.327">  1  3  2 -1</clus>
</clustering>
</event>
<event>
 6    0  0.9315069E+002  0.1617685E+03  0.7546771E-02  0.1186714E+00
         21   -1    0    0  505  501  0.00000000000E+00  0.00000000000E+00  0.58631989291E+03  0.58631989291E+03  0.00000000000E+00 0. -1.
         21   -1    0    0  503  502 -0.00000000000E+00 -0.00000000000E+00 -0.11286587852E+03  0.11286587852E+03  0.00000000000E+00 0. -1.
         21    1    1    2  503  504 -0.55490173720E+02  0.12485749108E+03  0.11189900231E+03  0.17660673593E+03  0.00000000000E+00 0. -1.
         21    1    1    2  504  506 -0.48680689083E+02  0.39826123733E+02  0.26693271270E+02  0.68326132280E+02  0.00000000000E+00 0. -1.
         21    1    1    2  505  502  0.53481203939E+02 -0.12460620690E+03  0.25199334638E+02  0.13792009440E+03  0.00000000000E+00 0. -1.
         21    1    1    2  506  501  0.50689658865E+02 -0.40077407917E+02  0.30966240617E+03  0.31633280882E+03  0.00000000000E+00 0. -1.
<scales pt_clust_3="35.97862" pt_clust_4="35.97862" pt_clust_5="152.83005" pt_clust_6="64.61919"></scales>
<clustering>
<clus scale="   35.979">  3  4 -1 -1</clus>
<clus scale="   64.619">  1  6  2 -1</clus>
<clus scale="  152.830">  2  5  1 -1</clus>
<clus scale="   64.619">  1  3  2 -1</clus>
</clustering>
</event>
<event>
 6    0  0.9315069E+002  0.1229689E+03  0.7546771E-02  0.1238278E+00
         21   -1    0    0  503  501  0.00000000000E+00  0.00000000000E+00  0.41764825398E+03  0.41764825398E+03  0.00000000000E+00 0.  1.
         21   -1    0    0  506  502 -0.00000000000E+00 -0.00000000000E+00 -0.24396551216E+04  0.24396551216E+04  0.00000000000E+00 0.  1.
         21    1    1    2  503  504  0.11214788970E+03 -0.31683653376E+02  0.34573791320E+03  0.36485025377E+03  0.00000000000E+00 0.  1.
         21    1    1    2  504  502 -0.10513449518E+03  0.50710997226E+02 -0.61412476267E+02  0.13189525980E+03  0.00000000000E+00 0. -1.
         21    1    1    2  505  501  0.19018273705E+02  0.46413652185E+02  0.29085976668E+01  0.50243226253E+02  0.00000000000E+00 0.  1.
         21    1    1    2  506  505 -0.26031668220E+02 -0.65440996034E+02 -0.23092409022E+04  0.23103146357E+04  0.00000000000E+00 0.  1.
<scales pt_clust_3="122.96890" pt_clust_4="14000.00000" pt_clust_5="50.15897" pt_clust_6="70.35963"></scales>
<clustering>
<clus scale="   50.159">  1  5  2 -1</clus>
<clus scale="   70.360">  2  6  1 -1</clus>
<clus scale="  122.969">  1  3  2 -1</clus>
<clus scale="   50.159">  1  3  2 -1</clus>
</clustering>
</event>
<event>
 6    0  0.9315069E+002  0.1373638E+03  0.7546771E-02  0.1216921E+00
         21   -1    0    0  503  501  0.00000000000E+00  0.00000000000E+00  0.14279826207E+03  0.14279826207E+03  0.00000000000E+00 0. -1.
         21   -1    0    0  505  502 -0.00000000000E+00 -0.00000000000E+00 -0.93851976777E+03  0.93851976777E+03  0.00000000000E+00 0. -1.
         21    1    1    2  503  506 -0.11626664155E+02 -0.10635022415E+03 -0.57603821648E+02  0.12150617171E+03  0.00000000000E+00 0. -1.
         21    1    1    2  504  502  0.19906116445E+02  0.85723179777E+02 -0.45809577077E+03  0.46647234882E+03  0.00000000000E+00 0. -1.
         21    1    1    2  505  501 -0.50193107552E+02 -0.10641797289E+02  0.98585348173E+02  0.11113805275E+03  0.00000000000E+00 0. -1.
         21    1    1    2  506  504  0.41913655261E+02  0.31268841659E+02 -0.37860726146E+03  0.38220145655E+03  0.00000000000E+00 0.  1.
<scales pt_clust_3="127.28854" pt_clust_4="39.80470" pt_clust_5="51.30883" pt_clust_6="39.80470"></scales>
<clustering>
<clus scale="   39.805">  4  6 -1 -1</clus>
<clus scale="   51.309">  1  5  2 -1</clus>
<clus scale="  127.289">  1  3  2 -1</clus>
<clus scale="   51.309">  1  3  2 -1</clus>
</clustering>
</event>
<event>
 6    0  0.9315069E+002  0.1274985E+03  0.7546771E-02  0.1231215E+00
         21   -1    0    0  506  501  0.00000000000E+00  0.00000000000E+00  0.99006324366E+02  0.99006324366E+02  0.00000000000E+00 0.  1.
         21   -1    0    0  505  502 -0.00000000000E+00 -0.00000000000E+00 -0.66818740104E+03  0.66818740104E+03  0.00000000000E+00 0.  1.
         21    1    1    2  503  504  0.73985826574E+02  0.44926208494E+02 -0.12598921788E+03  0.15285793982E+03  0.00000000000E+00 0.  1.
         21    1    1    2  504  502 -0.83616902952E+02 -0.34992564706E+02 -0.27664530372E+03  0.29111662631E+03  0.00000000000E+00 0.  1.
         21    1    1    2  505  501 -0.10617211988E+03 -0.25842604255E+02  0.11877001574E+02  0.10991552393E+03  0.00000000000E+00 0.  1.
         21    1    1    2  506  503  0.11580319626E+03  0.15908960467E+02 -0.17842355664E+03  0.21330363534E+03  0.00000000000E+00 0.  1.
<scales pt_clust_3="35.33780" pt_clust_4="90.64362" pt_clust_5="120.70416" pt_clust_6="35.33780"></scales>
<clustering>
<clus scale="   35.338">  3  6 -1 -1</clus>
<clus scale="   90.644">  2  4  1 -1</clus>
<clus scale="  120.704">  1  5  2 -1</clus>
<clus scale="  120.704">  1  3  2 -1</clus>
</clustering>
</event>
<event>
 6    0  0.9315069E+002  0.1293106E+03  0.7546771E-02  0.1228482E+00
         21   -1    0    0  503  501  0.00000000000E+00  0.00000000000E+00  0.91416541073E+03  0.91416541073E+03  0.00000000000E+00 0. -1.
         21   -1    0    0  504  502 -0.00000000000E+00 -0.00000000000E+00 -0.46800479316E+02  0.46800479316E+02  0.00000000000E+00 0.  1.
         21    1    1    2  503  505  0.88198390611E+01  0.29754951703E+02  0.18099587904E+03  0.18363729180E+03  0.00000000000E+00 0. -1.
         21    1    1    2  504  501 -0.43465443128E+02 -0.75876427806E+01  0.32229344730E+03  0.32529968220E+03  0.00000000000E+00 0. -1.
         21    1    1    2  505  506 -0.10825090493E+03 -0.10487943009E+02  0.23569731549E+03  0.25957942887E+03  0.00000000000E+00 0. -1.
         21    1    1    2  506  502  0.14289650900E+03 -0.11679365913E+02  0.12837828959E+03  0.19244948717E+03  0.00000000000E+00 0.  1.
<scales pt_clust_3="31.03461" pt_clust_4="39.95437" pt_clust_5="129.31059" pt_clust_6="14000.00000"></scales>
<clustering>
<clus scale="   31.035">  1  3  2 -1</clus>
<clus scale="   39.954">  1  4  2 -1</clus>
<clus scale="  129.311">  1  5  2 -1</clus>
<clus scale="   31.035">  1  3  2 -1</clus>
</clustering>
</event>
<event>
 6    0  0.9315069E+002  0.9034828E+02  0.7546771E-02  0.1302010E+00
         21   -1    0    0  503  501  0.00000000000E+00  0.00000000000E+00  0.33211393469E+03  0.33211393469E+03  0.00000000000E+00 0. -1.
         21   -1    0    0  506  502 -0.00000000000E+00 -0.00000000000E+00 -0.14752044518E+03  0.14752044518E+03  0.00000000000E+00 0. -1.
         21    1    1    2  503  505 -0.59650116562E+02  0.30028824515E+02  0.96344480850E+02  0.11722681305E+03  0.00000000000E+00 0. -1.
         21    1    1    2  504  501 -0.27277665732E+02 -0.66723609109E+02  0.16299702857E+03  0.17822497688E+03  0.00000000000E+00 0. -1.
         21    1    1    2  505  502  0.21472121579E+01 -0.39597681062E+02 -0.55967812132E+02  0.68592877622E+02  0.00000000000E+00 0.  1.
         21    1    1    2  506  504  0.84780570136E+02  0.76292465656E+02 -0.18780207775E+02  0.11558971231E+03  0.00000000000E+00 0. -1.
<scales pt_clust_3="64.50413" pt_clust_4="14000.00000" pt_clust_5="39.65586" pt_clust_6="90.34828"></scales>
<clustering>
<clus scale="   39.656">  2  5  1 -1</clus>
<clus scale="   64.504">  1  3  2 -1</clus>
<clus scale="   90.348">  2  6  1 -1</clus>
<clus scale="   64.504">  1  3  2 -1</clus>
</clustering>
</event>
<event>
 6    0  0.9315069E+002  0.2196529E+03  0.7546771E-02  0.1134142E+00
         21   -1    0    0  506  501  0.00000000000E+00  0.00000000000E+00  0.20867386538E+03  0.20867386538E+03  0.00000000000E+00 0. -1.
         21   -1    0    0  504  502 -0.00000000000E+00 -0.00000000000E+00 -0.31956473365E+03  0.31956473365E+03  0.00000000000E+00 0. -1.
         21    1    1    2  503  501  0.74612707287E+01 -0.13602463912E+03 -0.67984792534E+01  0.13639865223E+03  0.00000000000E+00 0.  1.
         21    1    1    2  504  505 -0.28968735321E+02  0.31765148344E+02 -0.68516130776E+02  0.80886787870E+02  0.00000000000E+00 0. -1.
         21    1    1    2  505  503 -0.52316644727E+01 -0.73362453806E+02  0.70887556127E+02  0.10214923179E+03  0.00000000000E+00 0. -1.
         21    1    1    2  506  502  0.26739129065E+02  0.17762194459E+03 -0.10646381436E+03  0.20880392714E+03  0.00000000000E+00 0. -1.
<scales pt_clust_3="71.14806" pt_clust_4="42.99084" pt_clust_5="71.14806" pt_clust_6="198.23632"></scales>
<clustering>
<clus scale="   42.991">  2  4  1 -1</clus>
<clus scale="   71.148">  3  5 -1 -1</clus>
<clus scale="  198.236">  2  6  1 -1</clus>
<clus scale="  219.653">  1  3  2 -1</clus>
</clustering>
</event>
<event>
 6    0  0.9315069E+002  0.1152527E+03  0.7546771E-02  0.1251141E+00
         21   -1    0    0  506  501  0.00000000000E+00  0.00000000000E+00  0.11376601057E+04  0.11376601057E+04  0.00000000000E+00 0. -1.
         21   -1    0    0  504  502 -0.00000000000E+00 -0.00000000000E+00 -0.13043709179E+03  0.13043709179E+03  0.00000000000E+00 0.  1.
         21    1    1    2  503  501 -0.78327670779E+02  0.94292256394E+02  0.39397275601E+03  0.41260245528E+03  0.00000000000E+00 0. -1.
         21    1    1    2  504  503 -0.67859208934E+02  0.36217163743E+02  0.19564342994E+03  0.21022109044E+03  0.00000000000E+00 0. -1.
         21    1    1    2  505  502  0.65069661411E+02 -0.80345508597E+02 -0.84908920976E+02  0.13378709373E+03  0.00000000000E+00 0.  1.
         21    1    1    2  506  505  0.81117218301E+02 -0.50163911541E+02  0.50251574895E+03  0.51148655806E+03  0.00000000000E+00 0. -1.
<scales pt_clust_3="34.15063" pt_clust_4="34.15063" pt_clust_5="106.88582" pt_clust_6="95.37516"></scales>
<clustering>
<clus scale="   34.151">  3  4 -1 -1</clus>
<clus scale="   95.375">  1  6  2 -1</clus>
<clus scale="  106.886">  2  5  1 -1</clus>
<clus scale="   95.375">  1  3  2 -1</clus>
</clustering>
</event>
<event>
 6    0  0.9315069E+002  0.7755869E+02  0.7546771E-02  0.1336126E+00
         21   -1    0    0  503  501  0.00000000000E+00  0.00000000000E+00  0.18156562181E+03  0.18156562181E+03  0.00000000000E+00 0.  1.
         21   -1    0    0  506  502 -0.00000000000E+00 -0.00000000000E+00 -0.14742864931E+03  0.14742864931E+03  0.00000000000E+00 0.  1.
         21    1    1    2  503  504  0.27484771974E+02 -0.73166153767E+02  0.16089830084E+02  0.79797126387E+02  0.00000000000E+00 0.  1.
         21    1    1    2  504  505  0.69696385004E+02  0.16218455609E+01 -0.27782932401E+02  0.75047370364E+02  0.00000000000E+00 0.  1.
         21    1    1    2  505  502 -0.23401678603E+02  0.30903176809E+02 -0.38729058236E+02  0.54795847016E+02  0.00000000000E+00 0.  1.
         21    1    1    2  506  501 -0.73779478375E+02  0.40641131396E+02  0.84559133053E+02  0.11935392735E+03  0.00000000000E+00 0.  1.
<scales pt_clust_3="77.55869" pt_clust_4="60.31024" pt_clust_5="38.76396" pt_clust_6="14000.00000"></scales>
<clustering>
<clus scale="   38.764">  2  5  1 -1</clus>
<clus scale="   60.310">  2  4  1 -1</clus>
<clus scale="   77.559">  2  3  1 -1</clus>
<clus scale="   77.559">  1  3  2 -1</clus>
</clustering>
</event>
<event>
 6    0  0.9315069E+002  0.1747737E+03  0.7546771E-02  0.1172959E+00
         21   -1    0    0  505  501  0.00000000000E+00  0.00000000000E+00  0.36796252938E+03  0.36796252938E+03  0.00000000000E+00 0. -1.
         21   -1    0    0  503  502 -0.00000000000E+00 -0.00000000000E+00 -0.11639798158E+03  0.11639798158E+03  0.00000000000E+00 0. -1.
         21    1    1    2  503  504  0.12374664418E+03  0.25519451622E+02  0.76525696253E+02  0.14771816592E+03  0.00000000000E+00 0. -1.
         21    1    1    2  504  501  0.57829041529E+02  0.27397535675E+01  0.88982898118E+02  0.10615865698E+03  0.00000000000E+00 0. -1.
         21    1    1    2  505  506 -0.13114698351E+03 -0.69699974087E+02  0.58128209773E+02  0.15948826428E+03  0.00000000000E+00 0. -1.
         21    1    1    2  506  502 -0.50428702201E+02  0.41440768898E+02  0.27927743661E+02  0.70995423786E+02  0.00000000000E+00 0. -1.
<scales pt_clust_3="38.83827" pt_clust_4="38.83827" pt_clust_5="165.08729" pt_clust_6="65.27167"></scales>
<clustering>
<clus scale="   38.838">  3  4 -1 -1</clus>
<clus scale="   65.272">  2  6  1 -1</clus>
<clus scale="  165.087">  2  5  1 -1</clus>
<clus scale="  174.774">  1  3  2 -1</clus>
</clustering>
</event>
<event>
 6    0  0.9315069E+002  0.2293053E+03  0.7546771E-02  0.1127130E+00
         21   -1    0    0  506  501  0.00000000000E+00  0.00000000000E+00  0.17087923893E+03  0.17087923893E+03  0.00000000000E+00 0.  1.
         21   -1    0    0  504  502 -0.00000000000E+00 -0.00000000000E+00 -0.13056065157E+04  0.13056065157E+04  0.00000000000E+00 0. -1.
         21    1    1    2  503  502 -0.14270517847E+03  0.73466812936E+02 -0.69846651659E+03  0.71667120450E+03  0.00000000000E+00 0. -1.
         21    1    1    2  504  505  0.39428799912E+02 -0.11838350654E+01 -0.20227160593E+03  0.20608210571E+03  0.00000000000E+00 0. -1.
         21    1    1    2  505  501  0.16892111080E+03 -0.14151409271E+03  0.73093515435E+02  0.23217071760E+03  0.00000000000E+00 0.  1.
         21    1    1    2  506  503 -0.65644732239E+02  0.69231114840E+02 -0.30708266967E+03  0.32156172681E+03  0.00000000000E+00 0. -1.
<scales pt_clust_3="43.86126" pt_clust_4="39.44657" pt_clust_5="222.60915" pt_clust_6="43.86126"></scales>
<clustering>
<clus scale="   39.447">  2  4  1 -1</clus>
<clus scale="   43.861">  3  6 -1 -1</clus>
<clus scale="  222.609">  1  5  2 -1</clus>
<clus scale="  222.609">  1  3  2 -1</clus>
</clustering>
</event>
<event>
 6    0  0.9315069E+002  0.8277025E+02  0.7546771E-02  0.1321369E+00
         21   -1    0    0  503  501  0.00000000000E+00  0.00000000000E+00  0.65010737610E+03  0.65010737610E+03  0.00000000000E+00 0. -1.
         21   -1    0    0  505  502 -0.00000000000E+00 -0.00000000000E+00 -0.17061348346E+03  0.17061348346E+03  0.00000000000E+00 0.  1.
         21    1    1    2  503  504  0.34067211244E+01  0.39236973743E+02  0.56254259537E+03  0.56391960195E+03  0.00000000000E+00 0. -1.
         21    1    1    2  504  506 -0.51873463640E+02 -0.90023130414E+02 -0.54412245786E+02  0.11728475063E+03  0.00000000000E+00 0. -1.
         21    1    1    2  505  501 -0.24240484560E+02  0.27825307646E+02  0.26492079557E+02  0.45427735103E+02  0.00000000000E+00 0. -1.
         21    1    1    2  506  502  0.72707227076E+02  0.22960849026E+02 -0.55128536498E+02  0.94088771878E+02  0.00000000000E+00 0.  1.
<scales pt_clust_3="39.49423" pt_clust_4="14000.00000" pt_clust_5="36.90324" pt_clust_6="82.77025"></scales>
<clustering>
<clus scale="   36.903">  2  5  1 -1</clus>
<clus scale="   39.494">  1  3  2 -1</clus>
<clus scale="   82.770">  2  6  1 -1</clus>
<clus scale="   39.494">  1  3  2 -1</clus>
</clustering>
</event>
<event>
 6    0  0.9315069E+002  0.1821760E+03  0.7546771E-02  0.1165714E+00
         21   -1    0    0  504  501  0.00000000000E+00  0.00000000000E+00  0.28286557241E+03  0.28286557241E+03  0.00000000000E+00 0.  1.
         21   -1    0    0  505  502 -0.00000000000E+00 -0.00000000000E+00 -0.14483602494E+03  0.14483602494E+03  0.00000000000E+00 0.  1.
         21    1    1    2  503  502 -0.13709291885E+02  0.13053319826E+03  0.66419577861E+02  0.14710003690E+03  0.00000000000E+00 0.  1.
         21    1    1    2  504  503  0.27021343118E+02  0.47611424729E+02  0.40074406189E+02  0.67845108741E+02  0.00000000000E+00 0.  1.
         21    1    1    2  505  506 -0.30723744755E+02 -0.92698084329E+01 -0.16822277462E+02  0.36233504650E+02  0.00000000000E+00 0.  1.
         21    1    1    2  506  501  0.17411693522E+02 -0.16887481455E+03  0.48357840884E+02  0.17652294706E+03  0.00000000000E+00 0.  1.
<scales pt_clust_3="34.41213" pt_clust_4="34.41213" pt_clust_5="32.09171" pt_clust_6="173.89759"></scales>
<clustering>
<clus scale="   32.092">  2  5  1 -1</clus>
<clus scale="   34.412">  3  4 -1 -1</clus>
<clus scale="  173.898">  2  6  1 -1</clus>
<clus scale="  182.176">  1  3  2 -1</clus>
</clustering>
</event>
<event>
 6    0  0.9315069E+002  0.9516217E+02  0.7546771E-02  0.1290811E+00
         21   -1    0    0  505  501  0.00000000000E+00  0.00000000000E+00  0.53704736588E+02  0.53704736588E+02  0.00000000000E+00 0. -1.
         21   -1    0    0  504  502 -0.00000000000E+00 -0.00000000000E+00 -0.58945457695E+03  0.58945457695E+03  0.00000000000E+00 0. -1.
         21    1    1    2  503  501 -0.66378026248E+02 -0.11048618360E+03 -0.11702535576E+03  0.17409242667E+03  0.00000000000E+00 0. -1.
         21    1    1    2  504  503  0.27334079690E+02  0.49040922286E+02 -0.24010361997E+03  0.24658043778E+03  0.00000000000E+00 0. -1.
         21    1    1    2  505  506  0.75932441821E+02  0.26683982097E+02 -0.93032926709E+02  0.12301583668E+03  0.00000000000E+00 0. -1.
         21    1    1    2  506  502 -0.36888495262E+02  0.34761279214E+02 -0.85587937917E+02  0.99470612405E+02  0.00000000000E+00 0. -1.
<scales pt_clust_3="95.16217" pt_clust_4="66.71057" pt_clust_5="14000.00000" pt_clust_6="50.68637"></scales>
<clustering>
<clus scale="   50.686">  2  6  1 -1</clus>
<clus scale="   66.711">  2  4  1 -1</clus>
<clus scale="   95.162">  2  3  1 -1</clus>
<clus scale="   95.162">  1  3  2 -1</clus>
</clustering>
</event>
<event>
 6    0  0.9315069E+002  0.7946312E+02  0.7546771E-02  0.1330582E+00
         21   -1    0    0  505  501  0.00000000000E+00  0.00000000000E+00  0.25534802113E+03  0.25534802113E+03  0.00000000000E+00 0. -1.
         21   -1    0    0  503  502 -0.00000000000E+00 -0.00000000000E+00 -0.14425434163E+03  0.14425434163E+03  0.00000000000E+00 0. -1.
         21    1    1    2  503  506 -0.59985365470E+02 -0.19346109561E+02 -0.44956569899E+02  0.77418403515E+02  0.00000000000E+00 0. -1.
         21    1    1    2  504  501  0.78155996504E+02  0.51076238527E+02  0.15395991351E+03  0.18005775990E+03  0.00000000000E+00 0. -1.
         21    1    1    2  505  502  0.28944746150E+02  0.11467958141E+02 -0.50517113808E+02  0.59340468325E+02  0.00000000000E+00 0. -1.
         21    1    1    2  506  504 -0.47115377183E+02 -0.43198087107E+02  0.52607449690E+02  0.82785731016E+02  0.00000000000E+00 0. -1.
<scales pt_clust_3="41.76997" pt_clust_4="14000.00000" pt_clust_5="31.13378" pt_clust_6="79.46312"></scales>
<clustering>
<clus scale="   31.134">  2  5  1 -1</clus>
<clus scale="   41.770">  2  3  1 -1</clus>
<clus scale="   79.463">  2  6  1 -1</clus>
<clus scale="   79.463">  1  3  2 -1</clus>
</clustering>
</event>
<event>
 6    0  0.9315069E+002  0.1215514E+03  0.7546771E-02  0.1240560E+00
         21   -1    0    0  504  501  0.00000000000E+00  0.00000000000E+00  0.14458907441E+03  0.14458907441E+03  0.00000000000E+00 0.  1.
         21   -1    0    0  505  502 -0.00000000000E+00 -0.00000000000E+00 -0.10285167823E+04  0.10285167823E+04  0.00000000000E+00 0.  1.
         21    1    1    2  503  506  0.94769627524E+01 -0.60453128950E+02 -0.16671114409E+03  0.17758659630E+03  0.00000000000E+00 0. -1.
         21    1    1    2  504  503 -0.44721145263E+01  0.12268526553E+03  0.10492533498E+03  0.16149613032E+03  0.00000000000E+00 0.  1.
         21    1    1    2  505  501 -0.25912707894E+02 -0.92176151922E+02 -0.70060705269E+03  0.70711961767E+03  0.00000000000E+00 0.  1.
         21    1    1    2  506  502  0.20907859668E+02  0.29944015337E+02 -0.12153484606E+03  0.12690351239E+03  0.00000000000E+00 0.  1.
<scales pt_clust_3="56.38226" pt_clust_4="121.55135" pt_clust_5="14000.00000" pt_clust_6="36.52099"></scales>
<clustering>
<clus scale="   36.521">  2  6  1 -1</clus>
<clus scale="   56.382">  2  3  1 -1</clus>
<clus scale="  121.551">  1  4  2 -1</clus>
<clus scale="  121.551">  1  3  2 -1</clus>
</clustering>
</event>
<event>
 6    0  0.9315069E+002  0.1439314E+03  0.7546771E-02  0.1208135E+00
         21   -1    0    0  506  501  0.00000000000E+00  0.00000000000E+00  0.27044567759E+02  0.27044567759E+02  0.00000000000E+00 0. -1.
         21   -1    0    0  504  502 -0.00000000000E+00 -0.00000000000E+00 -0.15364257736E+04  0.15364257736E+04  0.00000000000E+00 0. -1.
         21    1    1    2  503  502  0.89668634398E+02  0.53183981649E+02 -0.28372137742E+03  0.30226944918E+03  0.00000000000E+00 0. -1.
         21    1    1    2  504  505 -0.38524787603E+02 -0.14043463623E+02 -0.18549756112E+03  0.18997558609E+03  0.00000000000E+00 0. -1.
         21    1    1    2  505  501 -0.90324515297E+02 -0.67798035171E+02 -0.10049009682E+04  0.10112274954E+04  0.00000000000E+00 0. -1.
         21    1    1    2  506  503  0.39180668501E+02  0.28657517145E+02 -0.35261299183E+02  0.59997810737E+02  0.00000000000E+00 0. -1.
<scales pt_clust_3="134.81923" pt_clust_4="30.36779" pt_clust_5="30.36779" pt_clust_6="48.54254"></scales>
<clustering>
<clus scale="   30.368">  4  5 -1 -1</clus>
<clus scale="   48.543">  1  6  2 -1</clus>
<clus scale="  134.819">  1  3  2 -1</clus>
<clus scale="   48.543">  1  3  2 -1</clus>
</clustering>
</event>
<event>
 6    0  0.9315069E+002  0.1167591E+03  0.7546771E-02  0.1248541E+00
         21   -1    0    0  506  501  0.00000000000E+00  0.00000000000E+00  0.14734053433E+04  0.14734053433E+04  0.00000000000E+00 0.  1.
         21   -1    0    0  504  502 -0.00000000000E+00 -0.00000000000E+00 -0.81963909916E+02  0.81963909916E+02  0.00000000000E+00 0.  1.
         21    1    1    2  503  505 -0.41438962092E+02  0.48072966314E+02  0.49551192393E+03  0.49956007089E+03  0.00000000000E+00 0.  1.
         21    1    1    2  504  503  0.72494148501E+01 -0.41016735283E+02 -0.65480640254E+02  0.77605675288E+02  0.00000000000E+00 0.  1.
         21    1    1    2  505  501 -0.56474573144E+02  0.24121459261E+02  0.63615377376E+03  0.63911098103E+03  0.00000000000E+00 0.  1.
         21    1    1    2  506  502  0.90664120386E+02 -0.31177690293E+02  0.32525637591E+03  0.33909252597E+03  0.00000000000E+00 0.  1.
<scales pt_clust_3="32.70439" pt_clust_4="41.65245" pt_clust_5="32.70439" pt_clust_6="111.92533"></scales>
<clustering>
<clus scale="   32.704">  3  5 -1 -1</clus>
<clus scale="   41.652">  2  4  1 -1</clus>
<clus scale="  111.925">  2  6  1 -1</clus>
<clus scale="  116.759">  1  3  2 -1</clus>
</clustering>
</event>
<event>
 6    0  0.9315069E+002  0.7292288E+02  0.7546771E-02  0.1350427E+00
         21   -1    0    0  506  501  0.00000000000E+00  0.00000000000E+00  0.46170595152E+03  0.46170595152E+03  0.00000000000E+00 0.  1.
         21   -1    0    0  505  502 -0.00000000000E+00 -0.00000000000E+00 -0.20444370774E+03  0.20444370774E+03  0.00000000000E+00 0. -1.
         21    1    1    2  503  502  0.32161346019E+02 -0.37796706368E+02 -0.91768598841E+02  0.10432841858E+03  0.00000000000E+00 0. -1.
         21    1    1    2  504  501 -0.26437422135E+02  0.69692634754E+02  0.38462137150E+03  0.39177748792E+03  0.00000000000E+00 0.  1.
         21    1    1    2  505  504  0.54269407705E+02  0.27084497592E+02  0.25784114658E+02  0.65905684058E+02  0.00000000000E+00 0.  1.
         21    1    1    2  506  503 -0.59993331589E+02 -0.58980425978E+02 -0.61374643531E+02  0.10413806870E+03  0.00000000000E+00 0. -1.
<scales pt_clust_3="49.62805" pt_clust_4="14000.00000" pt_clust_5="63.54873" pt_clust_6="72.92288"></scales>
<clustering>
<clus scale="   49.628">  2  3  1 -1</clus>
<clus scale="   63.549">  2  5  1 -1</clus>
<clus scale="   72.923">  2  6  1 -1</clus>
<clus scale="   72.923">  1  3  2 -1</clus>
</clustering>
</event>
<event>
 6    0  0.9315069E+002  0.8997741E+02  0.7546771E-02  0.1302906E+00
         21   -1    0    0  505  501  0.00000000000E+00  0.00000000000E+00  0.74757177826E+03  0.74757177826E+03  0.00000000000E+00 0. -1.
         21   -1    0    0  504  502 -0.00000000000E+00 -0.00000000000E+00 -0.15530750600E+03  0.15530750600E+03  0.00000000000E+00 0. -1.
         21    1    1    2  503  501 -0.63857689297E+02  0.49491150372E+02  0.50072326170E+03  0.50719913570E+03  0.00000000000E+00 0. -1.
         21    1    1    2  504  506  0.88181980145E+01 -0.30658586211E+02 -0.12479515588E+03  0.12880815368E+03  0.00000000000E+00 0. -1.
         21    1    1    2  505  502 -0.35023433950E+02 -0.39558993605E+02  0.13030525297E+03  0.14060943728E+03  0.00000000000E+00 0. -1.
         21    1    1    2  506  503  0.90062925233E+02  0.20726429444E+02  0.86030913465E+02  0.12626255760E+03  0.00000000000E+00 0. -1.
<scales pt_clust_3="89.97741" pt_clust_4="31.90156" pt_clust_5="56.13882" pt_clust_6="14000.00000"></scales>
<clustering>
<clus scale="   31.902">  2  4  1 -1</clus>
<clus scale="   56.139">  1  5  2 -1</clus>
<clus scale="   89.977">  1  3  2 -1</clus>
<clus scale="   56.139">  1  3  2 -1</clus>
</clustering>
</event>
<event>
 6    0  0.9315069E+002  0.1034992E+03  0.7546771E-02  0.1273105E+00
         21   -1    0    0  504  501  0.00000000000E+00  0.00000000000E+00  0.17701651351E+03  0.17701651351E+03  0.00000000000E+00 0. -1.
         21   -1    0    0  506  502 -0.00000000000E+00 -0.00000000000E+00 -0.11943261334E+04  0.11943261334E+04  0.00000000000E+00 0. -1.
         21    1    1    2  503  505  0.76772940826E+02 -0.12685229983E+03 -0.38293582535E+03  0.41064027658E+03  0.00000000000E+00 0. -1.
         21    1    1    2  504  502 -0.64313290120E+02  0.39786325588E+02 -0.11001667485E+03  0.13350213382E+03  0.00000000000E+00 0. -1.
         21    1    1    2  505  501 -0.14671421745E+02  0.38760030380E+02  0.14770069277E+03  0.15340497129E+03  0.00000000000E+00 0. -1.
         21    1    1    2  506  503  0.22117710384E+01  0.48305943865E+02 -0.67205781242E+03  0.67379526518E+03  0.00000000000E+00 0. -1.
<scales pt_clust_3="103.49925" pt_clust_4="14000.00000" pt_clust_5="41.44382" pt_clust_6="49.60850"></scales>
<clustering>
<clus scale="   41.444">  1  5  2 -1</clus>
<clus scale="   49.609">  2  6  1 -1</clus>
<clus scale="  103.499">  2  3  1 -1</clus>
<clus scale="   41.444">  1  3  2 -1</clus>
</clustering>
</event>
<event>
 6    0  0.9315069E+002  0.8014555E+02  0.7546771E-02  0.1328639E+00
         21   -1    0    0  505  501  0.00000000000E+00  0.00000000000E+00  0.14760091954E+04  0.14760091954E+04  0.00000000000E+00 0. -1.
         21   -1    0    0  503  502 -0.00000000000E+00 -0.00000000000E+00 -0.27630087737E+02  0.27630087737E+02  0.00000000000E+00 0. -1.
         21    1    1    2  503  504  0.30702899187E+02  0.44402684489E+01  0.24864973044E+01  0.31121803792E+02  0.00000000000E+00 0. -1.
         21    1    1    2  504  501  0.47963675490E+02  0.87667593078E+02  0.27864396566E+03  0.29602125032E+03  0.00000000000E+00 0. -1.
         21    1    1    2  505  506 -0.45737631842E+02 -0.37456873696E+02  0.89167077736E+03  0.89362840350E+03  0.00000000000E+00 0. -1.
         21    1    1    2  506  502 -0.32928942835E+02 -0.54650987831E+02  0.27557786731E+03  0.28286782549E+03  0.00000000000E+00 0. -1.
<scales pt_clust_3="31.02231" pt_clust_4="80.14555" pt_clust_5="57.17684" pt_clust_6="14000.00000"></scales>
<clustering>
<clus scale="   31.022">  2  3  1 -1</clus>
<clus scale="   57.177">  1  5  2 -1</clus>
<clus scale="   80.146">  1  4  2 -1</clus>
<clus scale="   57.177">  1  3  2 -1</clus>
</clustering>
</event>
<event>
 6    0  0.9315069E+002  0.9057346E+02  0.7546771E-02  0.1301469E+00
         21   -1    0    0  506  501  0.00000000000E+00  0.00000000000E+00  0.46282099875E+03  0.46282099875E+03  0.00000000000E+00 0. -1.
         21   -1    0    0  504  502 -0.00000000000E+00 -0.00000000000E+00 -0.19008877578E+03  0.19008877578E+03  0.00000000000E+00 0.  1.
         21    1    1    2  503  505 -0.61589491558E+02  0.18643200550E+02 -0.72140313032E+02  0.96669846185E+02  0.00000000000E+00 0. -1.
         21    1    1    2  504  503 -0.18325146709E+01  0.55018478689E+02 -0.59584889588E+02  0.81121823047E+02  0.00000000000E+00 0.  1.
         21    1    1    2  505  501 -0.95088657278E+01  0.67470394089E+02  0.43740473738E+02  0.80968522579E+02  0.00000000000E+00 0.  1.
         21    1    1    2  506  502  0.72930871957E+02 -0.14113207333E+03  0.36071695185E+03  0.39414958272E+03  0.00000000000E+00 0. -1.
<scales pt_clust_3="14000.00000" pt_clust_4="55.04899" pt_clust_5="76.65179" pt_clust_6="90.57346"></scales>
<clustering>
<clus scale="   55.049">  2  4  1 -1</clus>
<clus scale="   76.652">  1  5  2 -1</clus>
<clus scale="   90.573">  1  6  2 -1</clus>
<clus scale="   76.652">  1  3  2 -1</clus>
</clustering>
</event>
<event>
 6    0  0.9315069E+002  0.9751764E+02  0.7546771E-02  0.1285604E+00
         21   -1    0    0  502  501  0.00000000000E+00  0.00000000000E+00  0.25644027404E+02  0.25644027404E+02  0.00000000000E+00 0. -1.
         21   -1    0    0  503  502 -0.00000000000E+00 -0.00000000000E+00 -0.80769654678E+03  0.80769654678E+03  0.00000000000E+00 0. -1.
         21    1    1    2  503  506  0.60875558569E+02 -0.30636278895E+02 -0.35775906565E+03  0.36419220786E+03  0.00000000000E+00 0. -1.
         21    1    1    2  504  501  0.48034745171E+02  0.63518829834E+02 -0.17590216550E+03  0.19308948784E+03  0.00000000000E+00 0. -1.
         21    1    1    2  505  504 -0.52319189728E+02 -0.26354764044E+02 -0.16479692083E+03  0.17489967500E+03  0.00000000000E+00 0. -1.
         21    1    1    2  506  505 -0.56591114012E+02 -0.65277868955E+01 -0.83594367402E+02  0.10115920348E+03  0.00000000000E+00 0.  1.
<scales pt_clust_3="68.14995" pt_clust_4="89.11865" pt_clust_5="39.04254" pt_clust_6="39.04254"></scales>
<clustering>
<clus scale="   39.043">  5  6 -1 -1</clus>
<clus scale="   68.150">  2  3  1 -1</clus>
<clus scale="   89.119">  1  4  2 -1</clus>
<clus scale="   89.119">  1  3  2 -1</clus>
</clustering>
</event>
<event>
 6    0  0.9315069E+002  0.8419492E+02  0.7546771E-02  0.1317551E+00
         21   -1    0    0  506  501  0.00000000000E+00  0.00000000000E+00  0.52789700614E+03  0.52789700614E+03  0.00000000000E+00 0. -1.
         21   -1    0    0  505  502 -0.00000000000E+00 -0.00000000000E+00 -0.22845907369E+03  0.22845907369E+03  0.00000000000E+00 0.  1.
         21    1    1    2  503  504 -0.27391966224E+02  0.56842148482E+02 -0.74767433177E+01  0.63539368492E+02  0.00000000000E+00 0.  1.
         21    1    1    2  504  501 -0.56405297483E+02  0.21456508738E+02  0.74093609895E+02  0.95560464517E+02  0.00000000000E+00 0. -1.
         21    1    1    2  505  503  0.50328291415E+02 -0.78663412721E+02 -0.16951194298E+03  0.19353337756E+03  0.00000000000E+00 0.  1.
         21    1    1    2  506  502  0.33468972292E+02  0.36475550050E+00  0.40233300885E+03  0.40372286926E+03  0.00000000000E+00 0. -1.
<scales pt_clust_3="14000.00000" pt_clust_4="40.05834" pt_clust_5="84.19492" pt_clust_6="33.47096"></scales>
<clustering>
<clus scale="   33.471">  1  6  2 -1</clus>
<clus scale="   40.058">  1  4  2 -1</clus>
<clus scale="   84.195">  2  5  1 -1</clus>
<clus scale="   33.471">  1  3  2 -1</clus>
</clustering>
</event>
<event>
 6    0  0.9315069E+002  0.1147340E+03  0.7546771E-02  0.1252046E+00
         21   -1    0    0  503  501  0.00000000000E+00  0.00000000000E+00  0.53644111376E+02  0.53644111376E+02  0.00000000000E+00 0.  1.
         21   -1    0    0  506  502 -0.00000000000E+00 -0.00000000000E+00 -0.57831939254E+03  0.57831939254E+03  0.00000000000E+00 0.  1.
         21    1    1    2  503  505  0.17172551852E+01 -0.12486023054E+03 -0.78295478087E+02  0.14738795075E+03  0.00000000000E+00 0.  1.
         21    1    1    2  504  501  0.37336705953E+02  0.94675193265E+02 -0.19037961024E+03  0.21587454187E+03  0.00000000000E+00 0.  1.
         21    1    1    2  505  502 -0.35625809337E+02 -0.84952522511E+01 -0.73551308164E+02  0.82165458280E+02  0.00000000000E+00 0.  1.
         21    1    1    2  506  504 -0.34281518017E+01  0.38680289528E+02 -0.18244888468E+03  0.18653555302E+03  0.00000000000E+00 0.  1.
<scales pt_clust_3="14000.00000" pt_clust_4="114.73396" pt_clust_5="36.62469" pt_clust_6="39.21710"></scales>
<clustering>
<clus scale="   36.625">  2  5  1 -1</clus>
<clus scale="   39.217">  2  6  1 -1</clus>
<clus scale="  114.734">  2  4  1 -1</clus>
<clus scale="  114.734">  1  3  2 -1</clus>
</clustering>
</event>
<event>
 6    0  0.9315069E+002  0.1252783E+03  0.7546771E-02  0.1234635E+00
         21   -1    0    0  503  501  0.00000000000E+00  0.00000000000E+00  0.19259606266E+04  0.19259606266E+04  0.00000000000E+00 0.  1.
         21   -1    0    0  506  502 -0.00000000000E+00 -0.00000000000E+00 -0.36013298254E+02  0.36013298254E+02  0.00000000000E+00 0. -1.
         21    1    1    2  503  504 -0.24994720827E+01  0.11011951841E+03  0.15303321391E+04  0.15342910453E+04  0.00000000000E+00 0.  1.
         21    1    1    2  504  502  0.65792527302E+02  0.21614411358E+02  0.15596686797E+03  0.17065023683E+03  0.00000000000E+00 0. -1.
         21    1    1    2  505  501 -0.15893487568E+02 -0.77224101037E+02  0.71525465577E+02  0.10645213457E+03  0.00000000000E+00 0. -1.
         21    1    1    2  506  505 -0.47399567651E+02 -0.54509828728E+02  0.13212285574E+03  0.15058050820E+03  0.00000000000E+00 0. -1.
<scales pt_clust_3="111.63044" pt_clust_4="69.25200" pt_clust_5="54.42762" pt_clust_6="54.42762"></scales>
<clustering>
<clus scale="   54.428">  5  6 -1 -1</clus>
<clus scale="   69.252">  2  4  1 -1</clus>
<clus scale="  111.630">  1  3  2 -1</clus>
<clus scale="  111.630">  1  3  2 -1</clus>
</clustering>
</event>
<event>
 6    0  0.9315069E+002  0.1208891E+03  0.7546771E-02  0.1241637E+00
         21   -1    0    0  506  501  0.00000000000E+00  0.00000000000E+00  0.14910233689E+03  0.14910233689E+03  0.00000000000E+00 0. -1.
         21   -1    0    0  504  502 -0.00000000000E+00 -0.00000000000E+00 -0.30862609810E+03  0.30862609810E+03  0.00000000000E+00 0. -1.
         21    1    1    2  503  501 -0.13654995554E+03  0.19955214276E+02 -0.30622213183E+02  0.14135706872E+03  0.00000000000E+00 0. -1.
         21    1    1    2  504  503  0.11063428861E+03 -0.15052245625E+02 -0.10530038776E+03  0.15347536472E+03  0.00000000000E+00 0. -1.
         21    1    1    2  505  502  0.30867660425E+01  0.67895336235E+02 -0.47531690753E+02  0.82937123370E+02  0.00000000000E+00 0. -1.
         21    1    1    2  506  505  0.22828900892E+02 -0.72798304885E+02  0.23930530492E+02  0.79958878179E+02  0.00000000000E+00 0. -1.
<scales pt_clust_3="14000.00000" pt_clust_4="120.88911" pt_clust_5="67.96547" pt_clust_6="68.99548"></scales>
<clustering>
<clus scale="   67.965">  2  5  1 -1</clus>
<clus scale="   68.995">  1  6  2 -1</clus>
<clus scale="  120.889">  2  4  1 -1</clus>
<clus scale="   68.995">  1  3  2 -1</clus>
</clustering>
</event>
<event>
 6    0  0.9315069E+002  0.2539200E+03  0.7546771E-02  0.1110852E+00
         21   -1    0    0  503  501  0.00000000000E+00  0.00000000000E+00  0.44128287226E+03  0.44128287226E+03  0.00000000000E+00 0.  1.
         21   -1    0    0  506  502 -0.00000000000E+00 -0.00000000000E+00 -0.20567930173E+03  0.20567930173E+03  0.00000000000E+00 0.  1.
         21    1    1    2  503  505 -0.13697815502E+02  0.29190580790E+02  0.28582994563E+02  0.43089531612E+02  0.00000000000E+00 0.  1.
         21    1    1    2  504  501 -0.89385889818E+01 -0.16422782703E+03  0.14041308031E+03  0.21625566042E+03  0.00000000000E+00 0.  1.
         21    1    1    2  505  502  0.73457545096E+02  0.22945596391E+03 -0.30629234141E+02  0.24286663066E+03  0.00000000000E+00 0.  1.
         21    1    1    2  506  504 -0.50821140613E+02 -0.94418717671E+02  0.97236729794E+02  0.14475035130E+03  0.00000000000E+00 0.  1.
<scales pt_clust_3="32.24469" pt_clust_4="47.54640" pt_clust_5="247.17748" pt_clust_6="47.54640"></scales>
<clustering>
<clus scale="   32.245">  1  3  2 -1</clus>
<clus scale="   47.546">  4  6 -1 -1</clus>
<clus scale="  247.177">  2  5  1 -1</clus>
<clus scale="   32.245">  1  3  2 -1</clus>
</clustering>
</event>
<event>
 6    0  0.9315069E+002  0.1298421E+03  0.7546771E-02  0.1227690E+00
         21   -1    0    0  503  501  0.00000000000E+00  0.00000000000E+00  0.51503899127E+03  0.51503899127E+03  0.00000000000E+00 0.  1.
         21   -1    0    0  505  502 -0.00000000000E+00 -0.00000000000E+00 -0.10400084506E+03  0.10400084506E+03  0.00000000000E+00 0.  1.
         21    1    1    2  503  506  0.27470137356E+02 -0.15195149131E+02  0.26288040816E+03  0.26474820112E+03  0.00000000000E+00 0.  1.
         21    1    1    2  504  502 -0.10183994448E+03  0.11016554895E+03  0.11408845979E+02  0.15045924443E+03  0.00000000000E+00 0.  1.
         21    1    1    2  505  501  0.90274256988E+02 -0.55551461155E+02  0.79348858546E+02  0.13240712845E+03  0.00000000000E+00 0.  1.
         21    1    1    2  506  504 -0.15904449862E+02 -0.39418938665E+02  0.57400033523E+02  0.71425262333E+02  0.00000000000E+00 0.  1.
<scales pt_clust_3="31.39269" pt_clust_4="129.84206" pt_clust_5="14000.00000" pt_clust_6="44.21201"></scales>
<clustering>
<clus scale="   31.393">  1  3  2 -1</clus>
<clus scale="   44.212">  1  6  2 -1</clus>
<clus scale="  129.842">  2  4  1 -1</clus>
<clus scale="   31.393">  1  3  2 -1</clus>
</clustering>
</event>
<event>
 6    0  0.9315069E+002  0.1175935E+03  0.7546771E-02  0.1247121E+00
         21   -1    0    0  503  501  0.00000000000E+00  0.00000000000E+00  0.95862063685E+03  0.95862063685E+03  0.00000000000E+00 0. -1.
         21   -1    0    0  505  502 -0.00000000000E+00 -0.00000000000E+00 -0.34133637135E+03  0.34133637135E+03  0.00000000000E+00 0. -1.
         21    1    1    2  503  506  0.50338152748E+02 -0.70919868473E+01  0.26735302841E+03  0.27214310151E+03  0.00000000000E+00 0.  1.
         21    1    1    2  504  501 -0.71653595114E+02 -0.17979205803E+02  0.12493661317E+03  0.14514353876E+03  0.00000000000E+00 0. -1.
         21    1    1    2  505  504  0.41214215947E+02  0.11077438173E+03 -0.31453774644E+03  0.33601126347E+03  0.00000000000E+00 0. -1.
         21    1    1    2  506  502 -0.19898773580E+02 -0.85703189076E+02  0.53953237036E+03  0.54665910445E+03  0.00000000000E+00 0. -1.
<scales pt_clust_3="50.83528" pt_clust_4="64.75074" pt_clust_5="117.59354" pt_clust_6="14000.00000"></scales>
<clustering>
<clus scale="   50.835">  1  3  2 -1</clus>
<clus scale="   64.751">  1  4  2 -1</clus>
<clus scale="  117.594">  2  5  1 -1</clus>
<clus scale="   50.835">  1  3  2 -1</clus>
</clustering>
</event>
<event>
 6    0  0.9315069E+002  0.1234272E+03  0.7546771E-02  0.1237548E+00
         21   -1    0    0  505  501  0.00000000000E+00  0.00000000000E+00  0.71671411750E+03  0.71671411750E+03  0.00000000000E+00 0.  1.
         21   -1    0    0  504  502 -0.00000000000E+00 -0.00000000000E+00 -0.35453637846E+03  0.35453637846E+03  0.00000000000E+00 0.  1.
         21    1    1    2  503  502  0.10650829093E+03 -0.76483329593E+02 -0.31975440612E+03  0.34559600110E+03  0.00000000000E+00 0.  1.
         21    1    1    2  504  501 -0.58130698301E+02 -0.76147625078E+01  0.18877348206E+03  0.19766787858E+03  0.00000000000E+00 0.  1.
         21    1    1    2  505  506  0.17315975718E+02  0.51619045086E+02  0.42314545182E+03  0.42663385030E+03  0.00000000000E+00 0.  1.
         21    1    1    2  506  503 -0.65693568343E+02  0.32479047015E+02  0.70013211291E+02  0.10135276598E+03  0.00000000000E+00 0.  1.
<scales pt_clust_3="14000.00000" pt_clust_4="53.69601" pt_clust_5="54.44602" pt_clust_6="123.42715"></scales>
<clustering>
<clus scale="   54.446">  1  5  2 -1</clus>
<clus scale="   53.696">  1  4  2 -1</clus>
<clus scale="  123.427">  1  6  2 -1</clus>
<clus scale="   54.446">  1  3  2 -1</clus>
</clustering>
</event>
<event>
 6    0  0.9315069E+002  0.2027103E+03  0.7546771E-02  0.1147472E+00
         21   -1    0    0  506  501  0.00000000000E+00  0.00000000000E+00  0.81634810041E+03  0.81634810041E+03  0.00000000000E+00 0. -1.
         21   -1    0    0  503  502 -0.00000000000E+00 -0.00000000000E+00 -0.34518739777E+03  0.34518739777E+03  0.00000000000E+00 0.  1.
         21    1    1    2  503  505  0.29378623974E+02 -0.20281184725E+02 -0.76733157495E+02  0.84631007673E+02  0.00000000000E+00 0. -1.
         21    1    1    2  504  502 -0.99555792594E+02  0.20649701868E+02 -0.62601232650E+02  0.11940134152E+03  0.00000000000E+00 0.  1.
         21    1    1    2  505  501  0.19645751720E+03 -0.84430985717E+01  0.74636581860E+03  0.77183468253E+03  0.00000000000E+00 0. -1.
         21    1    1    2  506  504 -0.12628034858E+03  0.80745814287E+01 -0.13587072581E+03  0.18566846646E+03  0.00000000000E+00 0.  1.
<scales pt_clust_3="35.69916" pt_clust_4="39.27195" pt_clust_5="198.09601" pt_clust_6="39.27195"></scales>
<clustering>
<clus scale="   35.699">  2  3  1 -1</clus>
<clus scale="   39.272">  4  6 -1 -1</clus>
<clus scale="  198.096">  1  5  2 -1</clus>
<clus scale="  198.096">  1  3  2 -1</clus>
</clustering>
</event>
<event>
 6    0  0.9315069E+002  0.1316828E+03  0.7546771E-02  0.1224980E+00
         21   -1    0    0  504  501  0.00000000000E+00  0.00000000000E+00  0.41423748047E+02  0.41423748047E+02  0.00000000000E+00 0.  1.
         21   -1    0    0  506  502 -0.00000000000E+00 -0.00000000000E+00 -0.16134983422E+04  0.16134983422E+04  0.00000000000E+00 0.  1.
         21    1    1    2  503  501 -0.66090667489E+02 -0.77592681818E+02 -0.50131111642E+03  0.51156762608E+03  0.00000000000E+00 0.  1.
         21    1    1    2  504  505 -0.16698801038E+02  0.55726032813E+02 -0.16162790954E+02  0.60377781514E+02  0.00000000000E+00 0.  1.
         21    1    1    2  505  502  0.20907012485E+02  0.68604677739E+02 -0.89156060366E+02  0.11442249813E+03  0.00000000000E+00 0.  1.
         21    1    1    2  506  503  0.61882456042E+02 -0.46738028734E+02 -0.96544462636E+03  0.96855418448E+03  0.00000000000E+00 0.  1.
<scales pt_clust_3="115.55566" pt_clust_4="56.86992" pt_clust_5="56.86992" pt_clust_6="77.54922"></scales>
<clustering>
<clus scale="   56.870">  4  5 -1 -1</clus>
<clus scale="   77.549">  2  6  1 -1</clus>
<clus scale="  115.556">  2  3  1 -1</clus>
<clus scale="  131.683">  1  3  2 -1</clus>
</clustering>
</event>
<event>
 6    0  0.9315069E+002  0.1321021E+03  0.7546771E-02  0.1224369E+00
         21   -1    0    0  505  501  0.00000000000E+00  0.00000000000E+00  0.24055385607E+03  0.24055385607E+03  0.00000000000E+00 0. -1.
         21   -1    0    0  504  502 -0.00000000000E+00 -0.00000000000E+00 -0.44262097445E+03  0.44262097445E+03  0.00000000000E+00 0.  1.
         21    1    1    2  503  501 -0.16013050985E+02 -0.44274256645E+02  0.43779007421E+02  0.64290194385E+02  0.00000000000E+00 0. -1.
         21    1    1    2  504  506  0.38940370670E+02 -0.36433239632E+01 -0.17036975396E+02  0.42660107924E+02  0.00000000000E+00 0.  1.
         21    1    1    2  505  502 -0.12126163661E+03  0.36635676969E+02  0.14324959580E+03  0.19122500892E+03  0.00000000000E+00 0. -1.
         21    1    1    2  506  503  0.98334316919E+02  0.11281903640E+02 -0.37205874620E+03  0.38499951930E+03  0.00000000000E+00 0.  1.
<scales pt_clust_3="46.84658" pt_clust_4="39.11044" pt_clust_5="14000.00000" pt_clust_6="132.10211"></scales>
<clustering>
<clus scale="   39.110">  2  4  1 -1</clus>
<clus scale="   46.847">  1  3  2 -1</clus>
<clus scale="  132.102">  2  6  1 -1</clus>
<clus scale="   46.847">  1  3  2 -1</clus>
</clustering>
</event>
<event>
 6    0  0.9315069E+002  0.1775496E+03  0.7546771E-02  0.1170196E+00
         21   -1    0    0  503  501  0.00000000000E+00  0.00000000000E+00  0.78173862208E+02  0.78173862208E+02  0.00000000000E+00 0. -1.
         21   -1    0    0  501  502 -0.00000000000E+00 -0.00000000000E+00 -0.18815989071E+04  0.18815989071E+04  0.00000000000E+00 0. -1.
         21    1    1    2  503  505 -0.13201407025E+03  0.11173300980E+03 -0.33157253397E+02  0.17610049312E+03  0.00000000000E+00 0. -1.
         21    1    1    2  504  506  0.69675529719E+02 -0.66815472126E+02 -0.72053339421E+03  0.72697136046E+03  0.00000000000E+00 0. -1.
         21    1    1    2  505  504  0.10222970709E+02 -0.36908319630E+02 -0.13175006642E+03  0.13720354656E+03  0.00000000000E+00 0. -1.
         21    1    1    2  506  502  0.52115569820E+02 -0.80092180461E+01 -0.91798433082E+03  0.91949736912E+03  0.00000000000E+00 0. -1.
<scales pt_clust_3="168.09252" pt_clust_4="36.01126" pt_clust_5="36.01126" pt_clust_6="52.72741"></scales>
<clustering>
<clus scale="   36.011">  4  5 -1 -1</clus>
<clus scale="   52.727">  2  6  1 -1</clus>
<clus scale="  168.093">  1  3  2 -1</clus>
<clus scale="  168.093">  1  3  2 -1</clus>
</clustering>
</event>
<event>
 6    0  0.9315069E+002  0.1067072E+03  0.7546771E-02  0.1266792E+00
         21   -1    0    0  502  501  0.00000000000E+00  0.00000000000E+00  0.66628015076E+02  0.66628015076E+02  0.00000000000E+00 0. -1.
         21   -1    0    0  505  502 -0.00000000000E+00 -0.00000000000E+00 -0.11019310408E+04  0.11019310408E+04  0.00000000000E+00 0. -1.
         21    1    1    2  503  501  0.75641214196E+02  0.48870600413E+02  0.91455308728E+01  0.90518338500E+02  0.00000000000E+00 0. -1.
         21    1    1    2  504  506 -0.33890148973E+02 -0.39579746375E+02 -0.71824240902E+02  0.88734548523E+02  0.00000000000E+00 0. -1.
         21    1    1    2  505  504  0.35312800269E+02  0.14112165297E+02 -0.77456231693E+03  0.77549528037E+03  0.00000000000E+00 0. -1.
         21    1    1    2  506  503 -0.77063865492E+02 -0.23403019335E+02 -0.19806199880E+03  0.21381088851E+03  0.00000000000E+00 0. -1.
<scales pt_clust_3="94.70426" pt_clust_4="43.33416" pt_clust_5="38.02824" pt_clust_6="43.33416"></scales>
<clustering>
<clus scale="   38.028">  2  5  1 -1</clus>
<clus scale="   43.334">  4  6 -1 -1</clus>
<clus scale="   94.704">  1  3  2 -1</clus>
<clus scale="   94.704">  1  3  2 -1</clus>
</clustering>
</event>
<event>
 6    0  0.9315069E+002  0.8670724E+02  0.7546771E-02  0.1311027E+00
         21   -1    0    0  503  501  0.00000000000E+00  0.00000000000E+00  0.31192100920E+03  0.31192100920E+03  0.00000000000E+00 0. -1.
         21   -1    0    0  506  502 -0.00000000000E+00 -0.00000000000E+00 -0.35829046142E+03  0.35829046142E+03  0.00000000000E+00 0.  1.
         21    1    1    2  503  504  0.31919648215E+02  0.37191257535E+02  0.24106024210E+03  0.24599206065E+03  0.00000000000E+00 0. -1.
         21    1    1    2  504  502 -0.15918207128E+02 -0.14619777524E+03 -0.24311384292E+03  0.28413292562E+03  0.00000000000E+00 0.  1.
         21    1    1    2  505  501 -0.37127004209E+02  0.55489791555E+02  0.11195050760E+01  0.66774131967E+02  0.00000000000E+00 0.  1.
         21    1    1    2  506  505  0.21125563122E+02  0.53516726148E+02 -0.45435356473E+02  0.73312352388E+02  0.00000000000E+00 0. -1.
<scales pt_clust_3="49.01075" pt_clust_4="86.70724" pt_clust_5="14000.00000" pt_clust_6="67.05359"></scales>
<clustering>
<clus scale="   49.011">  1  3  2 -1</clus>
<clus scale="   67.054">  2  6  1 -1</clus>
<clus scale="   86.707">  2  4  1 -1</clus>
<clus scale="   49.011">  1  3  2 -1</clus>
</clustering>
</event>
<event>
 6    0  0.9315069E+002  0.9899637E+02  0.7546771E-02  0.1282421E+00
         21   -1    0    0  503  501  0.00000000000E+00  0.00000000000E+00  0.48683658521E+03  0.48683658521E+03  0.00000000000E+00 0.  1.
         21   -1    0    0  505  502 -0.00000000000E+00 -0.00000000000E+00 -0.78861927107E+03  0.78861927107E+03  0.00000000000E+00 0. -1.
         21    1    1    2  503  506  0.43291429940E+02 -0.59804459479E+02 -0.59936865524E+02  0.95095473754E+02  0.00000000000E+00 0.  1.
         21    1    1    2  504  501 -0.98997054123E+02 -0.36730076226E+01  0.45187263901E+03  0.46260435536E+03  0.00000000000E+00 0.  1.
         21    1    1    2  505  504  0.91129983683E+02  0.10924563068E+02 -0.58300801959E+03  0.59018841984E+03  0.00000000000E+00 0. -1.
         21    1    1    2  506  502 -0.35424359499E+02  0.52552904033E+02 -0.11071043976E+03  0.12756760733E+03  0.00000000000E+00 0. -1.
<scales pt_clust_3="66.49537" pt_clust_4="14000.00000" pt_clust_5="98.99637" pt_clust_6="63.37739"></scales>
<clustering>
<clus scale="   63.377">  2  6  1 -1</clus>
<clus scale="   66.495">  2  3  1 -1</clus>
<clus scale="   98.996">  2  5  1 -1</clus>
<clus scale="   98.996">  1  3  2 -1</clus>
</clustering>
</event>
<event>
 6    0  0.9315069E+002  0.1336948E+03  0.7546771E-02  0.1222074E+00
         21   -1    0    0  506  501  0.00000000000E+00  0.00000000000E+00  0.61004303770E+03  0.61004303770E+03  0.00000000000E+00 0. -1.
         21   -1    0    0  505  502 -0.00000000000E+00 -0.00000000000E+00 -0.14622815703E+03  0.14622815703E+03  0.00000000000E+00 0.  1.
         21    1    1    2  503  502 -0.56874050978E+02 -0.11487017015E+02 -0.69718664353E+02  0.90704472843E+02  0.00000000000E+00 0.  1.
         21    1    1    2  504  501  0.13944664362E+03 -0.12824133959E+02  0.50095593190E+03  0.52016023544E+03  0.00000000000E+00 0. -1.
         21    1    1    2  505  504  0.15586200909E+02 -0.26566966032E+02  0.11349717970E+02  0.32826048208E+02  0.00000000000E+00 0. -1.
         21    1    1    2  506  503 -0.98158793554E+02  0.50878117006E+02  0.21227895148E+02  0.11258043824E+03  0.00000000000E+00 0.  1.
<scales pt_clust_3="54.87145" pt_clust_4="14000.00000" pt_clust_5="30.80152" pt_clust_6="133.69479"></scales>
<clustering>
<clus scale="   30.802">  2  5  1 -1</clus>
<clus scale="   54.871">  2  3  1 -1</clus>
<clus scale="  133.695">  2  6  1 -1</clus>
<clus scale="  133.695">  1  3  2 -1</clus>
</clustering>
</event>
<event>
 6    0  0.9315069E+002  0.1324817E+03  0.7546771E-02  0.1223819E+00
         21   -1    0    0  502  501  0.00000000000E+00  0.00000000000E+00  0.34407486054E+03  0.34407486054E+03  0.00000000000E+00 0. -1.
         21   -1    0    0  505  502 -0.00000000000E+00 -0.00000000000E+00 -0.19380197587E+03  0.19380197587E+03  0.00000000000E+00 0. -1.
         21    1    1    2  503  506 -0.94158569990E+02 -0.17919453941E+02  0.17605385685E+03  0.20045424327E+03  0.00000000000E+00 0. -1.
         21    1    1    2  504  503 -0.65898097371E+02  0.19952468587E+02  0.67889282435E+02  0.96693406752E+02  0.00000000000E+00 0. -1.
         21    1    1    2  505  504  0.11473458434E+03  0.22407275636E+02 -0.13215853008E+03  0.17644259100E+03  0.00000000000E+00 0. -1.
         21    1    1    2  506  501  0.45322083024E+02 -0.24440290281E+02  0.38488275460E+02  0.64286595388E+02  0.00000000000E+00 0.  1.
<scales pt_clust_3="47.69097" pt_clust_4="47.69097" pt_clust_5="119.93830" pt_clust_6="51.49193"></scales>
<clustering>
<clus scale="   47.691">  3  4 -1 -1</clus>
<clus scale="   51.492">  1  6  2 -1</clus>
<clus scale="  119.938">  2  5  1 -1</clus>
<clus scale="   51.492">  1  3  2 -1</clus>
</clustering>
</event>
<event>
 6    0  0.9315069E+002  0.2011713E+03  0.7546771E-02  0.1148755E+00
         21   -1    0    0  504  501  0.00000000000E+00  0.00000000000E+00  0.26911861333E+03  0.26911861333E+03  0.00000000000E+00 0.  1.
         21   -1    0    0  505  502 -0.00000000000E+00 -0.00000000000E+00 -0.49793315240E+03  0.49793315240E+03  0.00000000000E+00 0.  1.
         21    1    1    2  503  501 -0.86132585836E+02  0.24764281705E+01 -0.67898671569E+02  0.10970498913E+03  0.00000000000E+00 0. -1.
         21    1    1    2  504  506  0.17374138196E+03 -0.74101892680E+02  0.18672525075E+03  0.26560022133E+03  0.00000000000E+00 0.  1.
         21    1    1    2  505  503 -0.12147086097E+03  0.33659617363E+02 -0.20901722420E+03  0.24408264976E+03  0.00000000000E+00 0.  1.
         21    1    1    2  506  502  0.33862064838E+02  0.37965847147E+02 -0.13862389405E+03  0.14766390550E+03  0.00000000000E+00 0.  1.
<scales pt_clust_3="52.69100" pt_clust_4="190.76588" pt_clust_5="52.69100" pt_clust_6="50.87283"></scales>
<clustering>
<clus scale="   50.873">  2  6  1 -1</clus>
<clus scale="   52.691">  3  5 -1 -1</clus>
<clus scale="  190.766">  1  4  2 -1</clus>
<clus scale="  190.766">  1  3  2 -1</clus>
</clustering>
</event>
<event>
 6    0  0.9315069E+002  0.3572206E+03  0.7546771E-02  0.1059690E+00
         21   -1    0    0  504  501  0.00000000000E+00  0.00000000000E+00  0.50644458843E+03  0.50644458843E+03  0.00000000000E+00 0.  1.
         21   -1    0    0  501  502 -0.00000000000E+00 -0.00000000000E+00 -0.11035737221E+04  0.11035737221E+04  0.00000000000E+00 0. -1.
         21    1    1    2  503  506 -0.12413489968E+03  0.21413193328E+03 -0.93683782788E+02  0.26464808582E+03  0.00000000000E+00 0. -1.
         21    1    1    2  504  503  0.78565502500E+02  0.17191627850E+03  0.35064022257E+03  0.39834195195E+03  0.00000000000E+00 0.  1.
         21    1    1    2  505  502 -0.15890970032E+02 -0.24809238756E+03 -0.62512665761E+03  0.67274489500E+03  0.00000000000E+00 0. -1.
         21    1    1    2  506  505  0.61460367216E+02 -0.13795582423E+03 -0.22895891583E+03  0.27428337776E+03  0.00000000000E+00 0.  1.
<scales pt_clust_3="333.64045" pt_clust_4="189.01784" pt_clust_5="99.48202" pt_clust_6="99.48202"></scales>
<clustering>
<clus scale="   99.482">  5  6 -1 -1</clus>
<clus scale="  189.018">  1  4  2 -1</clus>
<clus scale="  333.640">  1  3  2 -1</clus>
<clus scale="  189.018">  1  3  2 -1</clus>
</clustering>
</event>
<event>
 6    0  0.9315069E+002  0.1297414E+03  0.7546771E-02  0.1227840E+00
         21   -1    0    0  505  501  0.00000000000E+00  0.00000000000E+00  0.52290030081E+03  0.52290030081E+03  0.00000000000E+00 0. -1.
         21   -1    0    0  506  502 -0.00000000000E+00 -0.00000000000E+00 -0.10723317956E+04  0.10723317956E+04  0.00000000000E+00 0. -1.
         21    1    1    2  503  501 -0.85523324219E+02  0.46082938329E+02  0.43027764241E+03  0.44110851924E+03  0.00000000000E+00 0. -1.
         21    1    1    2  504  503  0.13090831026E+03 -0.74663831167E+02 -0.91539943602E+02  0.17632706728E+03  0.00000000000E+00 0. -1.
         21    1    1    2  505  502 -0.19081351826E+02 -0.10156567913E+03 -0.27491010059E+02  0.10693662048E+03  0.00000000000E+00 0. -1.
         21    1    1    2  506  504 -0.26303634213E+02  0.13014657197E+03 -0.86067818355E+03  0.87085988942E+03  0.00000000000E+00 0. -1.
<scales pt_clust_3="97.14873" pt_clust_4="129.74138" pt_clust_5="99.30071" pt_clust_6="14000.00000"></scales>
<clustering>
<clus scale="   97.149">  1  3  2 -1</clus>
<clus scale="   99.301">  1  5  2 -1</clus>
<clus scale="  129.741">  1  4  2 -1</clus>
<clus scale="   97.149">  1  3  2 -1</clus>
</clustering>
</event>
<event>
 6    0  0.9315069E+002  0.1763885E+03  0.7546771E-02  0.1171345E+00
         21   -1    0    0  504  501  0.00000000000E+00  0.00000000000E+00  0.26733797080E+03  0.26733797080E+03  0.00000000000E+00 0.  1.
         21   -1    0    0  503  502 -0.00000000000E+00 -0.00000000000E+00 -0.25044454108E+03  0.25044454108E+03  0.00000000000E+00 0.  1.
         21    1    1    2  503  505  0.79544608916E+01 -0.67791125691E+02 -0.11867476830E+03  0.13690365518E+03  0.00000000000E+00 0.  1.
         21    1    1    2  504  506 -0.86647264105E+02  0.87221357275E+02  0.59180371047E+02  0.13644643586E+03  0.00000000000E+00 0.  1.
         21    1    1    2  505  501  0.11376299845E+03 -0.87151632387E+02  0.10575951238E+02  0.14369856502E+03  0.00000000000E+00 0.  1.
         21    1    1    2  506  502 -0.35070195237E+02  0.67721400803E+02  0.65811875730E+02  0.10073385582E+03  0.00000000000E+00 0.  1.
<scales pt_clust_3="68.25621" pt_clust_4="33.49861" pt_clust_5="171.18376" pt_clust_6="33.49861"></scales>
<clustering>
<clus scale="   33.499">  4  6 -1 -1</clus>
<clus scale="   68.256">  2  3  1 -1</clus>
<clus scale="  171.184">  2  5  1 -1</clus>
<clus scale="  176.389">  1  3  2 -1</clus>
</clustering>
</event>
<event>
 6    0  0.9315069E+002  0.1250975E+03  0.7546771E-02  0.1234917E+00
         21   -1    0    0  506  501  0.00000000000E+00  0.00000000000E+00  0.36265459719E+03  0.36265459719E+03  0.00000000000E+00 0. -1.
         21   -1    0    0  501  502 -0.00000000000E+00 -0.00000000000E+00 -0.59646934150E+03  0.59646934150E+03  0.00000000000E+00 0. -1.
         21    1    1    2  503  502 -0.30639310734E+00 -0.30277021892E+02 -0.38654040988E+03  0.38772449033E+03  0.00000000000E+00 0. -1.
         21    1    1    2  504  505 -0.51374680420E+02  0.16695994111E+03  0.20393255587E+03  0.26852088758E+03  0.00000000000E+00 0. -1.
         21    1    1    2  505  503  0.78459259228E+02 -0.40349776685E+02 -0.14242328421E+03  0.16753612065E+03  0.00000000000E+00 0. -1.
         21    1    1    2  506  504 -0.26778185701E+02 -0.96333142531E+02  0.91216393907E+02  0.13534244012E+03  0.00000000000E+00 0. -1.
<scales pt_clust_3="30.27857" pt_clust_4="125.09754" pt_clust_5="100.29832" pt_clust_6="14000.00000"></scales>
<clustering>
<clus scale="   30.279">  2  3  1 -1</clus>
<clus scale="  100.298">  2  5  1 -1</clus>
<clus scale="  125.098">  2  4  1 -1</clus>
<clus scale="  125.098">  1  3  2 -1</clus>
</clustering>
</event>
<event>
 6    0  0.9315069E+002  0.9904140E+02  0.7546771E-02  0.1282325E+00
         21   -1    0    0  505  501  0.00000000000E+00  0.00000000000E+00  0.60980732113E+03  0.60980732113E+03  0.00000000000E+00 0.  1.
         21   -1    0    0  506  502 -0.00000000000E+00 -0.00000000000E+00 -0.28195305021E+03  0.28195305021E+03  0.00000000000E+00 0. -1.
         21    1    1    2  503  504  0.79175417468E+02  0.27030742935E+02 -0.32188078538E+02  0.89640839994E+02  0.00000000000E+00 0. -1.
         21    1    1    2  504  501 -0.79961010438E+02  0.65092206989E+02  0.56309801983E+03  0.57245972656E+03  0.00000000000E+00 0.  1.
         21    1    1    2  505  502  0.14339309406E+02 -0.31834386103E+02 -0.12675231239E+03  0.13147316315E+03  0.00000000000E+00 0. -1.
         21    1    1    2  506  503 -0.13553716436E+02 -0.60288563822E+02 -0.76303357974E+02  0.98186641633E+02  0.00000000000E+00 0. -1.
<scales pt_clust_3="14000.00000" pt_clust_4="99.04140" pt_clust_5="34.91481" pt_clust_6="78.64386"></scales>
<clustering>
<clus scale="   34.915">  2  5  1 -1</clus>
<clus scale="   78.644">  2  6  1 -1</clus>
<clus scale="   99.041">  1  4  2 -1</clus>
<clus scale="   99.041">  1  3  2 -1</clus>
</clustering>
</event>
<event>
 6    0  0.9315069E+002  0.1155069E+03  0.7546771E-02  0.1250699E+00
         21   -1    0    0  506  501  0.00000000000E+00  0.00000000000E+00  0.89418240866E+03  0.89418240866E+03  0.00000000000E+00 0.  1.
         21   -1    0    0  501  502 -0.00000000000E+00 -0.00000000000E+00 -0.50652768844E+02  0.50652768844E+02  0.00000000000E+00 0. -1.
         21    1    1    2  503  504 -0.65184928635E+02  0.29445260829E+02  0.13262264976E+03  0.15068133771E+03  0.00000000000E+00 0.  1.
         21    1    1    2  504  502 -0.68657920680E+00 -0.70946420054E+02  0.56728521687E+01  0.71176169897E+02  0.00000000000E+00 0. -1.
         21    1    1    2  505  503 -0.41456892163E+02  0.28408002985E+02  0.19116154504E+03  0.19765734199E+03  0.00000000000E+00 0.  1.
         21    1    1    2  506  505  0.10732840000E+03  0.13093156240E+02  0.51407259284E+03  0.52532032790E+03  0.00000000000E+00 0.  1.
<scales pt_clust_3="35.40595" pt_clust_4="70.94974" pt_clust_5="35.40595" pt_clust_6="107.50670"></scales>
<clustering>
<clus scale="   35.406">  3  5 -1 -1</clus>
<clus scale="   70.950">  2  4  1 -1</clus>
<clus scale="  107.507">  1  6  2 -1</clus>
<clus scale="  107.507">  1  3  2 -1</clus>
</clustering>
</event>
<event>
 6    0  0.9315069E+002  0.1749419E+03  0.7546771E-02  0.1172790E+00
         21   -1    0    0  505  501  0.00000000000E+00  0.00000000000E+00  0.33300577311E+03  0.33300577311E+03  0.00000000000E+00 0.  1.
         21   -1    0    0  503  502 -0.00000000000E+00 -0.00000000000E+00 -0.13873032761E+03  0.13873032761E+03  0.00000000000E+00 0.  1.
         21    1    1    2  503  504  0.20579382103E+02  0.61865137164E+02  0.42066542621E+02  0.77591237728E+02  0.00000000000E+00 0.  1.
         21    1    1    2  504  506  0.70209034780E+02  0.97471438017E+02 -0.14427258401E+02  0.12098816297E+03  0.00000000000E+00 0.  1.
         21    1    1    2  505  502 -0.71845995862E+02 -0.21223208112E+02  0.76939490895E+02  0.10738694959E+03  0.00000000000E+00 0.  1.
         21    1    1    2  506  501 -0.18942421022E+02 -0.13811336707E+03  0.89696670383E+02  0.16576975042E+03  0.00000000000E+00 0.  1.
<scales pt_clust_3="52.29747" pt_clust_4="52.29747" pt_clust_5="74.91510" pt_clust_6="159.89218"></scales>
<clustering>
<clus scale="   52.297">  3  4 -1 -1</clus>
<clus scale="   74.915">  1  5  2 -1</clus>
<clus scale="  159.892">  1  6  2 -1</clus>
<clus scale="   74.915">  1  3  2 -1</clus>
</clustering>
</event>
<event>
 6    0  0.3736487E+003  0.1161881E+03  0.7546771E-02  0.1249521E+00
         21   -1    0    0  506  501  0.00000000000E+00  0.00000000000E+00  0.62533354782E+03  0.62533354782E+03  0.00000000000E+00 0. -1.
         21   -1    0    0  504  502 -0.00000000000E+00 -0.00000000000E+00 -0.92123233864E+03  0.92123233864E+03  0.00000000000E+00 0. -1.
         21    1    1    2  503  505  0.46865687882E+02  0.24650503221E+01 -0.37263403345E+00  0.46931951055E+02  0.00000000000E+00 0.  1.
         21    1    1    2  504  501 -0.61764336704E+02  0.92868272824E+02  0.50638514261E+03  0.51852219050E+03  0.00000000000E+00 0. -1.
         21    1    1    2  505  502 -0.12690395397E+02 -0.11572096910E+03 -0.88426691821E+03  0.89189706327E+03  0.00000000000E+00 0. -1.
         21    1    1    2  506  503  0.27589044219E+02  0.20387645950E+02  0.82355618824E+02  0.89214681640E+02  0.00000000000E+00 0. -1.
<scales pt_clust_3="48.17232" pt_clust_4="14000.00000" pt_clust_5="116.18808" pt_clust_6="34.30469"></scales>
<clustering>
<clus scale="   34.305">  1  6  2 -1</clus>
<clus scale="   48.172">  1  3  2 -1</clus>
<clus scale="  116.188">  2  5  1 -1</clus>
<clus scale="   34.305">  1  3  2 -1</clus>
</clustering>
</event>
<event>
 6    0  0.9315069E+002  0.1509612E+03  0.7546771E-02  0.1199297E+00
         21   -1    0    0  506  501  0.00000000000E+00  0.00000000000E+00  0.12806033956E+04  0.12806033956E+04  0.00000000000E+00 0.  1.
         21   -1    0    0  504  502 -0.00000000000E+00 -0.00000000000E+00 -0.25188941039E+03  0.25188941039E+03  0.00000000000E+00 0. -1.
         21    1    1    2  503  501 -0.13221621650E+03  0.75055799558E+02  0.10189042063E+04  0.10301845867E+04  0.00000000000E+00 0.  1.
         21    1    1    2  504  503 -0.25753802391E+00 -0.63995311339E+02 -0.20707685606E+03  0.21674014514E+03  0.00000000000E+00 0. -1.
         21    1    1    2  505  502  0.11234682171E+03 -0.58651315975E+02  0.11412695816E+03  0.17054837376E+03  0.00000000000E+00 0.  1.
         21    1    1    2  506  505  0.20126932814E+02  0.47590827756E+02  0.10275967673E+03  0.11501970037E+03  0.00000000000E+00 0.  1.
<scales pt_clust_3="14000.00000" pt_clust_4="63.79931" pt_clust_5="150.96125" pt_clust_6="51.67185"></scales>
<clustering>
<clus scale="   51.672">  1  6  2 -1</clus>
<clus scale="   63.799">  2  4  1 -1</clus>
<clus scale="  150.961">  2  5  1 -1</clus>
<clus scale="   51.672">  1  3  2 -1</clus>
</clustering>
</event>
<event>
 6    0  0.9315069E+002  0.1701324E+03  0.7546771E-02  0.1177710E+00
         21   -1    0    0  503  501  0.00000000000E+00  0.00000000000E+00  0.19493097712E+02  0.19493097712E+02  0.00000000000E+00 0.  1.
         21   -1    0    0  506  502 -0.00000000000E+00 -0.00000000000E+00 -0.30428480388E+04  0.30428480388E+04  0.00000000000E+00 0.  1.
         21    1    1    2  503  504  0.40094902996E+00 -0.14942358107E+03 -0.85905711467E+03  0.87195567181E+03  0.00000000000E+00 0.  1.
         21    1    1    2  504  505 -0.39489784329E+02 -0.16045032532E+02 -0.31219912835E+03  0.31509551231E+03  0.00000000000E+00 0. -1.
         21    1    1    2  505  502 -0.52176548868E+02 -0.15812959372E+02 -0.90734679135E+03  0.90898330112E+03  0.00000000000E+00 0.  1.
         21    1    1    2  506  501  0.91265384167E+02  0.18128157297E+03 -0.94475190667E+03  0.96630665123E+03  0.00000000000E+00 0.  1.
<scales pt_clust_3="14000.00000" pt_clust_4="36.01492" pt_clust_5="105.24586" pt_clust_6="170.13237"></scales>
<clustering>
<clus scale="   36.015">  4  5 -1 -1</clus>
<clus scale="  105.246">  2  4  1 -1</clus>
<clus scale="  170.132">  2  6  1 -1</clus>
<clus scale="  170.132">  1  3  2 -1</clus>
</clustering>
</event>
<event>
 6    0  0.9315069E+002  0.8076242E+02  0.7546771E-02  0.1326902E+00
         21   -1    0    0  503  501  0.00000000000E+00  0.00000000000E+00  0.32414736474E+03  0.32414736474E+03  0.00000000000E+00 0. -1.
         21   -1    0    0  504  502 -0.00000000000E+00 -0.00000000000E+00 -0.27784442882E+03  0.27784442882E+03  0.00000000000E+00 0. -1.
         21    1    1    2  503  505  0.27974956578E+01  0.75344023938E+02  0.21080955934E+03  0.22388661915E+03  0.00000000000E+00 0. -1.
         21    1    1    2  504  501 -0.68604350597E+01  0.55272470315E+02 -0.99915921319E+01  0.56585717785E+02  0.00000000000E+00 0. -1.
         21    1    1    2  505  506 -0.45587101838E+02 -0.12056891453E+03  0.28169659690E+02  0.13194156560E+03  0.00000000000E+00 0. -1.
         21    1    1    2  506  502  0.49650041240E+02 -0.10047579719E+02 -0.18268469097E+03  0.18957789103E+03  0.00000000000E+00 0. -1.
<scales pt_clust_3="80.76242" pt_clust_4="52.81819" pt_clust_5="14000.00000" pt_clust_6="50.65649"></scales>
<clustering>
<clus scale="   50.656">  2  6  1 -1</clus>
<clus scale="   52.818">  2  4  1 -1</clus>
<clus scale="   80.762">  1  3  2 -1</clus>
<clus scale="   80.762">  1  3  2 -1</clus>
</clustering>
</event>
<event>
 6    0  0.9315069E+002  0.7993414E+02  0.7546771E-02  0.1329238E+00
         21   -1    0    0  504  501  0.00000000000E+00  0.00000000000E+00  0.31487240414E+03  0.31487240414E+03  0.00000000000E+00 0.  1.
         21   -1    0    0  505  502 -0.00000000000E+00 -0.00000000000E+00 -0.53962486677E+03  0.53962486677E+03  0.00000000000E+00 0.  1.
         21    1    1    2  503  501  0.13111965356E+02 -0.51020539071E+02 -0.38427376088E+02  0.65204925240E+02  0.00000000000E+00 0.  1.
         21    1    1    2  504  506 -0.31412406503E+02  0.89902927605E+01  0.28032549731E+03  0.28222322563E+03  0.00000000000E+00 0.  1.
         21    1    1    2  505  503 -0.75054374417E+02 -0.24319488165E+01 -0.31288133536E+03  0.32176669112E+03  0.00000000000E+00 0.  1.
         21    1    1    2  506  502  0.93354815565E+02  0.44462195127E+02 -0.15376924848E+03  0.18530242892E+03  0.00000000000E+00 0.  1.
<scales pt_clust_3="47.44164" pt_clust_4="32.67361" pt_clust_5="79.93414" pt_clust_6="14000.00000"></scales>
<clustering>
<clus scale="   32.674">  1  4  2 -1</clus>
<clus scale="   47.442">  1  3  2 -1</clus>
<clus scale="   79.934">  2  5  1 -1</clus>
<clus scale="   32.674">  1  3  2 -1</clus>
</clustering>
</event>
<event>
 6    0  0.9315069E+002  0.5201231E+03  0.7546771E-02  0.1008656E+00
         21   -1    0    0  506  501  0.00000000000E+00  0.00000000000E+00  0.25898100295E+03  0.25898100295E+03  0.00000000000E+00 0.  1.
         21   -1    0    0  505  502 -0.00000000000E+00 -0.00000000000E+00 -0.23412192019E+04  0.23412192019E+04  0.00000000000E+00 0.  1.
         21    1    1    2  503  504 -0.35700453467E+02  0.28134602302E+02 -0.51672260659E+02  0.68819334101E+02  0.00000000000E+00 0.  1.
         21    1    1    2  504  501 -0.40495597481E+03 -0.94812824180E+01 -0.26652323971E+03  0.48488542312E+03  0.00000000000E+00 0.  1.
         21    1    1    2  505  503  0.67339352821E+03  0.17713694732E+03 -0.95277634639E+03  0.11800928388E+04  0.00000000000E+00 0.  1.
         21    1    1    2  506  502 -0.23273709993E+03 -0.19579026720E+03 -0.81126635219E+03  0.86640260885E+03  0.00000000000E+00 0.  1.
<scales pt_clust_3="34.83593" pt_clust_4="34.83593" pt_clust_5="509.62091" pt_clust_6="304.13876"></scales>
<clustering>
<clus scale="   34.836">  3  4 -1 -1</clus>
<clus scale="  304.139">  2  6  1 -1</clus>
<clus scale="  509.621">  2  5  1 -1</clus>
<clus scale="  520.123">  1  3  2 -1</clus>
</clustering>
</event>
<event>
 6    0  0.9315069E+002  0.3110634E+03  0.7546771E-02  0.1079837E+00
         21   -1    0    0  505  501  0.00000000000E+00  0.00000000000E+00  0.41107107971E+03  0.41107107971E+03  0.00000000000E+00 0.  1.
         21   -1    0    0  506  502 -0.00000000000E+00 -0.00000000000E+00 -0.12080591564E+04  0.12080591564E+04  0.00000000000E+00 0.  1.
         21    1    1    2  503  502  0.15039172284E+02  0.33300958740E+02 -0.21966202977E+02  0.42633843707E+02  0.00000000000E+00 0. -1.
         21    1    1    2  504  501 -0.30969749644E+03  0.32631001274E+02  0.30584931044E+03  0.43648725324E+03  0.00000000000E+00 0.  1.
         21    1    1    2  505  503  0.29502789216E+03 -0.11176887568E+03 -0.97070911085E+03  0.10206909016E+04  0.00000000000E+00 0.  1.
         21    1    1    2  506  504 -0.36956800538E+00  0.45836915668E+02 -0.11016207326E+03  0.11931823751E+03  0.00000000000E+00 0. -1.
<scales pt_clust_3="36.53944" pt_clust_4="14000.00000" pt_clust_5="311.06342" pt_clust_6="49.09898"></scales>
<clustering>
<clus scale="   36.539">  2  3  1 -1</clus>
<clus scale="   49.099">  2  6  1 -1</clus>
<clus scale="  311.063">  2  5  1 -1</clus>
<clus scale="  311.063">  1  3  2 -1</clus>
</clustering>
</event>
<event>
 6    0  0.9315069E+002  0.3203410E+03  0.7546771E-02  0.1075492E+00
         21   -1    0    0  506  501  0.00000000000E+00  0.00000000000E+00  0.27445145813E+03  0.27445145813E+03  0.00000000000E+00 0. -1.
         21   -1    0    0  504  502 -0.00000000000E+00 -0.00000000000E+00 -0.59878676243E+03  0.59878676243E+03  0.00000000000E+00 0. -1.
         21    1    1    2  503  502  0.24730031141E+02  0.27675819923E+03 -0.19466836090E+03  0.33926751394E+03  0.00000000000E+00 0. -1.
         21    1    1    2  504  505 -0.27414741944E+02 -0.20020477549E+03 -0.20630012529E+03  0.28877891527E+03  0.00000000000E+00 0. -1.
         21    1    1    2  505  501  0.30087819962E+02 -0.11988316649E+03 -0.29722205039E+02  0.12712458452E+03  0.00000000000E+00 0. -1.
         21    1    1    2  506  503 -0.27403109159E+02  0.43329742749E+02  0.10635538693E+03  0.11806720683E+03  0.00000000000E+00 0. -1.
<scales pt_clust_3="296.33190" pt_clust_4="91.64927" pt_clust_5="91.64927" pt_clust_6="51.26789"></scales>
<clustering>
<clus scale="   51.268">  1  6  2 -1</clus>
<clus scale="   91.649">  4  5 -1 -1</clus>
<clus scale="  296.332">  2  3  1 -1</clus>
<clus scale="   51.268">  1  3  2 -1</clus>
</clustering>
</event>
<event>
 6    0  0.9315069E+002  0.1501928E+03  0.7546771E-02  0.1200236E+00
         21   -1    0    0  506  501  0.00000000000E+00  0.00000000000E+00  0.17106603993E+04  0.17106603993E+04  0.00000000000E+00 0. -1.
         21   -1    0    0  504  502 -0.00000000000E+00 -0.00000000000E+00 -0.25410009730E+03  0.25410009730E+03  0.00000000000E+00 0. -1.
         21    1    1    2  503  502  0.11778824329E+01 -0.35694447781E+02  0.35305071385E+02  0.50218811962E+02  0.00000000000E+00 0.  1.
         21    1    1    2  504  505 -0.15669276572E+03  0.50779605943E+02 -0.19540980097E+03  0.25557030642E+03  0.00000000000E+00 0. -1.
         21    1    1    2  505  501  0.12237669665E+03 -0.49297554508E+02  0.18889733217E+03  0.23040943310E+03  0.00000000000E+00 0. -1.
         21    1    1    2  506  503  0.33138186642E+02  0.34212396346E+02  0.14277676995E+04  0.14285619451E+04  0.00000000000E+00 0. -1.
<scales pt_clust_3="35.71388" pt_clust_4="150.19280" pt_clust_5="14000.00000" pt_clust_6="47.59017"></scales>
<clustering>
<clus scale="   35.714">  2  3  1 -1</clus>
<clus scale="   47.590">  1  6  2 -1</clus>
<clus scale="  150.193">  2  4  1 -1</clus>
<clus scale="   47.590">  1  3  2 -1</clus>
</clustering>
</event>
<event>
 6    0  0.9315069E+002  0.1331522E+03  0.7546771E-02  0.1222852E+00
         21   -1    0    0  506  501  0.00000000000E+00  0.00000000000E+00  0.76254140363E+03  0.76254140363E+03  0.00000000000E+00 0. -1.
         21   -1    0    0  503  502 -0.00000000000E+00 -0.00000000000E+00 -0.36573514748E+03  0.36573514748E+03  0.00000000000E+00 0. -1.
         21    1    1    2  503  505  0.41303920637E+02 -0.82258259779E+01 -0.31684136169E+03  0.31962810664E+03  0.00000000000E+00 0. -1.
         21    1    1    2  504  502 -0.73249851719E+01 -0.30094446754E+02 -0.94580980513E+01  0.32384977257E+02  0.00000000000E+00 0. -1.
         21    1    1    2  505  501 -0.99202969254E+02  0.11452728174E+03  0.59259408237E+03  0.61165797128E+03  0.00000000000E+00 0. -1.
         21    1    1    2  506  504  0.65224033789E+02 -0.76207009011E+02  0.13051163353E+03  0.16460549594E+03  0.00000000000E+00 0. -1.
<scales pt_clust_3="49.89285" pt_clust_4="30.97307" pt_clust_5="133.15220" pt_clust_6="14000.00000"></scales>
<clustering>
<clus scale="   30.973">  2  4  1 -1</clus>
<clus scale="   49.893">  2  3  1 -1</clus>
<clus scale="  133.152">  1  5  2 -1</clus>
<clus scale="  133.152">  1  3  2 -1</clus>
</clustering>
</event>
<event>
 6    0  0.9315069E+002  0.1416436E+03  0.7546771E-02  0.1211134E+00
         21   -1    0    0  503  501  0.00000000000E+00  0.00000000000E+00  0.30068825212E+03  0.30068825212E+03  0.00000000000E+00 0.  1.
         21   -1    0    0  504  502 -0.00000000000E+00 -0.00000000000E+00 -0.56817477393E+03  0.56817477393E+03  0.00000000000E+00 0.  1.
         21    1    1    2  503  506  0.38418967059E+02  0.67507380178E+02  0.17508659824E+03  0.19154263310E+03  0.00000000000E+00 0.  1.
         21    1    1    2  504  505 -0.81324213290E+02 -0.13091650864E+03 -0.23074972176E+03  0.27748548429E+03  0.00000000000E+00 0.  1.
         21    1    1    2  505  501  0.79387215127E+02  0.40714447107E+02  0.70841533384E+02  0.11392330306E+03  0.00000000000E+00 0.  1.
         21    1    1    2  506  502 -0.36481968896E+02  0.22694681355E+02 -0.28266493167E+03  0.28591160560E+03  0.00000000000E+00 0.  1.
<scales pt_clust_3="77.73272" pt_clust_4="141.64358" pt_clust_5="14000.00000" pt_clust_6="42.96490"></scales>
<clustering>
<clus scale="   42.965">  2  6  1 -1</clus>
<clus scale="   77.733">  1  3  2 -1</clus>
<clus scale="  141.644">  2  4  1 -1</clus>
<clus scale="   77.733">  1  3  2 -1</clus>
</clustering>
</event>
<event>
 6    0  0.9315069E+002  0.1291434E+03  0.7546771E-02  0.1228732E+00
         21   -1    0    0  505  501  0.00000000000E+00  0.00000000000E+00  0.75677869107E+03  0.75677869107E+03  0.00000000000E+00 0.  1.
         21   -1    0    0  503  502 -0.00000000000E+00 -0.00000000000E+00 -0.43542927318E+02  0.43542927318E+02  0.00000000000E+00 0. -1.
         21    1    1    2  503  501  0.11616389030E+03  0.76212988988E+02  0.46836441536E+03  0.48853627774E+03  0.00000000000E+00 0.  1.
         21    1    1    2  504  502 -0.31488322721E+02 -0.53301764553E+01  0.14462918148E+02  0.35058540331E+02  0.00000000000E+00 0.  1.
         21    1    1    2  505  506 -0.64191257952E+02 -0.98996435216E+02  0.16823948862E+03  0.20548804665E+03  0.00000000000E+00 0. -1.
         21    1    1    2  506  504 -0.20484309623E+02  0.28113622683E+02  0.62168941627E+02  0.71238753668E+02  0.00000000000E+00 0.  1.
<scales pt_clust_3="129.14345" pt_clust_4="31.93627" pt_clust_5="14000.00000" pt_clust_6="36.93305"></scales>
<clustering>
<clus scale="   31.936">  2  4  1 -1</clus>
<clus scale="   36.933">  2  6  1 -1</clus>
<clus scale="  129.143">  1  3  2 -1</clus>
<clus scale="  129.143">  1  3  2 -1</clus>
</clustering>
</event>
<event>
 6    0  0.9315069E+002  0.1056562E+03  0.7546771E-02  0.1268832E+00
         21   -1    0    0  503  501  0.00000000000E+00  0.00000000000E+00  0.23690617699E+04  0.23690617699E+04  0.00000000000E+00 0. -1.
         21   -1    0    0  506  502 -0.00000000000E+00 -0.00000000000E+00 -0.20726851092E+02  0.20726851092E+02  0.00000000000E+00 0.  1.
         21    1    1    2  503  505 -0.33749106460E+02  0.38403217538E+01  0.11884605216E+04  0.11889458195E+04  0.00000000000E+00 0. -1.
         21    1    1    2  504  502 -0.39177998728E+01  0.33274989131E+02  0.19452747596E+02  0.38742527622E+02  0.00000000000E+00 0.  1.
         21    1    1    2  505  504  0.95700043253E+02 -0.95368052944E+02  0.83235676953E+03  0.84325047026E+03  0.00000000000E+00 0. -1.
         21    1    1    2  506  501 -0.58033136920E+02  0.58252742059E+02  0.30806488006E+03  0.31884980362E+03  0.00000000000E+00 0. -1.
<scales pt_clust_3="34.14198" pt_clust_4="33.50484" pt_clust_5="14000.00000" pt_clust_6="105.65624"></scales>
<clustering>
<clus scale="   33.505">  2  4  1 -1</clus>
<clus scale="   34.142">  1  3  2 -1</clus>
<clus scale="  105.656">  2  6  1 -1</clus>
<clus scale="   34.142">  1  3  2 -1</clus>
</clustering>
</event>
<event>
 6    0  0.9315069E+002  0.1018354E+03  0.7546771E-02  0.1276483E+00
         21   -1    0    0  504  501  0.00000000000E+00  0.00000000000E+00  0.71507753743E+03  0.71507753743E+03  0.00000000000E+00 0.  1.
         21   -1    0    0  505  502 -0.00000000000E+00 -0.00000000000E+00 -0.15837815108E+03  0.15837815108E+03  0.00000000000E+00 0.  1.
         21    1    1    2  503  506 -0.10016947130E+03 -0.18744056929E+02  0.89683522962E+02  0.13575123182E+03  0.00000000000E+00 0.  1.
         21    1    1    2  504  502  0.62095891877E+02  0.32644046099E+02  0.18527544102E+02  0.72558965154E+02  0.00000000000E+00 0.  1.
         21    1    1    2  505  503  0.99249326141E+02 -0.31259693892E+02 -0.80991532265E+02  0.13186062908E+03  0.00000000000E+00 0.  1.
         21    1    1    2  506  501 -0.61175746718E+02  0.17359704722E+02  0.52947985154E+03  0.53328486246E+03  0.00000000000E+00 0.  1.
<scales pt_clust_3="101.83541" pt_clust_4="59.72819" pt_clust_5="14000.00000" pt_clust_6="63.59113"></scales>
<clustering>
<clus scale="   63.591">  1  6  2 -1</clus>
<clus scale="   59.728">  1  4  2 -1</clus>
<clus scale="  101.835">  1  3  2 -1</clus>
<clus scale="   63.591">  1  3  2 -1</clus>
</clustering>
</event>
<event>
 6    0  0.9315069E+002  0.9483188E+02  0.7546771E-02  0.1291555E+00
         21   -1    0    0  504  501  0.00000000000E+00  0.00000000000E+00  0.39055423378E+03  0.39055423378E+03  0.00000000000E+00 0.  1.
         21   -1    0    0  505  502 -0.00000000000E+00 -0.00000000000E+00 -0.98245134293E+02  0.98245134293E+02  0.00000000000E+00 0. -1.
         21    1    1    2  503  506 -0.18781609827E+02  0.71685714366E+02  0.10524182499E+03  0.12871453779E+03  0.00000000000E+00 0.  1.
         21    1    1    2  504  502  0.34659701484E+02 -0.17600908367E+02 -0.19438645381E+02  0.43462027295E+02  0.00000000000E+00 0. -1.
         21    1    1    2  505  503 -0.64341512002E+02 -0.98069364261E+02  0.20023169514E+02  0.11898889734E+03  0.00000000000E+00 0. -1.
         21    1    1    2  506  501  0.48463420345E+02  0.43984558262E+02  0.18648275037E+03  0.19763390565E+03  0.00000000000E+00 0.  1.
<scales pt_clust_3="94.83188" pt_clust_4="38.87270" pt_clust_5="14000.00000" pt_clust_6="66.67123"></scales>
<clustering>
<clus scale="   38.873">  2  4  1 -1</clus>
<clus scale="   66.671">  1  6  2 -1</clus>
<clus scale="   94.832">  1  3  2 -1</clus>
<clus scale="   66.671">  1  3  2 -1</clus>
</clustering>
</event>
<event>
 6    0  0.9315069E+002  0.9979959E+02  0.7546771E-02  0.1280718E+00
         21   -1    0    0  503  501  0.00000000000E+00  0.00000000000E+00  0.30094544730E+03  0.30094544730E+03  0.00000000000E+00 0.  1.
         21   -1    0    0  506  502 -0.00000000000E+00 -0.00000000000E+00 -0.71440154233E+02  0.71440154233E+02  0.00000000000E+00 0.  1.
         21    1    1    2  503  505  0.18101390087E+02 -0.47107073985E+02  0.75804323979E+02  0.91066087411E+02  0.00000000000E+00 0.  1.
         21    1    1    2  504  502  0.18952341925E+02  0.24817460633E+02  0.17017459523E+02  0.35562501955E+02  0.00000000000E+00 0. -1.
         21    1    1    2  505  504  0.79291778101E+02 -0.16286728233E+02  0.64547782642E+02  0.10353192665E+03  0.00000000000E+00 0.  1.
         21    1    1    2  506  501 -0.11634551011E+03  0.38576341585E+02  0.72135726927E+02  0.14222508553E+03  0.00000000000E+00 0.  1.
<scales pt_clust_3="48.56590" pt_clust_4="31.22655" pt_clust_5="99.79959" pt_clust_6="14000.00000"></scales>
<clustering>
<clus scale="   31.227">  2  4  1 -1</clus>
<clus scale="   48.566">  1  3  2 -1</clus>
<clus scale="   99.800">  1  5  2 -1</clus>
<clus scale="   48.566">  1  3  2 -1</clus>
</clustering>
</event>
<event>
 6    0  0.9315069E+002  0.9051449E+02  0.7546771E-02  0.1301611E+00
         21   -1    0    0  504  501  0.00000000000E+00  0.00000000000E+00  0.16742856207E+04  0.16742856207E+04  0.00000000000E+00 0.  1.
         21   -1    0    0  503  502 -0.00000000000E+00 -0.00000000000E+00 -0.20761180983E+03  0.20761180983E+03  0.00000000000E+00 0.  1.
         21    1    1    2  503  506  0.48801840363E+02  0.33371799032E+02  0.23794646113E+03  0.24518118801E+03  0.00000000000E+00 0.  1.
         21    1    1    2  504  505 -0.39286944509E+02 -0.80434867336E+00  0.53216342078E+02  0.66152022266E+02  0.00000000000E+00 0. -1.
         21    1    1    2  505  502 -0.75042098475E+02 -0.53067923757E+02 -0.18592285329E+03  0.20740016503E+03  0.00000000000E+00 0.  1.
         21    1    1    2  506  501  0.65527202621E+02  0.20500473398E+02  0.13614338609E+04  0.13631640552E+04  0.00000000000E+00 0.  1.
<scales pt_clust_3="14000.00000" pt_clust_4="39.29518" pt_clust_5="90.51449" pt_clust_6="37.96481"></scales>
<clustering>
<clus scale="   39.295">  1  4  2 -1</clus>
<clus scale="   37.965">  1  6  2 -1</clus>
<clus scale="   90.514">  2  5  1 -1</clus>
<clus scale="   39.295">  1  3  2 -1</clus>
</clustering>
</event>
<event>
 6    0  0.9315069E+002  0.1425159E+03  0.7546771E-02  0.1209983E+00
         21   -1    0    0  505  501  0.00000000000E+00  0.00000000000E+00  0.96771239511E+02  0.96771239511E+02  0.00000000000E+00 0.  1.
         21   -1    0    0  504  502 -0.00000000000E+00 -0.00000000000E+00 -0.13099708418E+04  0.13099708418E+04  0.00000000000E+00 0.  1.
         21    1    1    2  503  502  0.43016207679E+02 -0.40538934041E+02 -0.25270697758E+03  0.25952767832E+03  0.00000000000E+00 0.  1.
         21    1    1    2  504  506 -0.28087749765E+02  0.16500085372E+03 -0.75408774396E+03  0.77243933678E+03  0.00000000000E+00 0.  1.
         21    1    1    2  505  503  0.54759525127E+01 -0.14870394495E+03 -0.26741416404E+03  0.30602807784E+03  0.00000000000E+00 0.  1.
         21    1    1    2  506  501 -0.20404410426E+02  0.24242025271E+02  0.61009283320E+02  0.68746988337E+02  0.00000000000E+00 0.  1.
<scales pt_clust_3="55.74404" pt_clust_4="142.51594" pt_clust_5="14000.00000" pt_clust_6="31.68621"></scales>
<clustering>
<clus scale="   31.686">  1  6  2 -1</clus>
<clus scale="   55.744">  2  3  1 -1</clus>
<clus scale="  142.516">  2  4  1 -1</clus>
<clus scale="   31.686">  1  3  2 -1</clus>
</clustering>
</event>
<event>
 6    0  0.9315069E+002  0.1005221E+03  0.7546771E-02  0.1279202E+00
         21   -1    0    0  504  501  0.00000000000E+00  0.00000000000E+00  0.22741938707E+03  0.22741938707E+03  0.00000000000E+00 0. -1.
         21   -1    0    0  505  502 -0.00000000000E+00 -0.00000000000E+00 -0.30440697662E+03  0.30440697662E+03  0.00000000000E+00 0. -1.
         21    1    1    2  503  506 -0.93895597516E+02  0.25793837302E+02  0.18373115447E+02  0.99092263305E+02  0.00000000000E+00 0. -1.
         21    1    1    2  504  502  0.55590067224E+02  0.52750374783E+01  0.80318384619E+02  0.97821901956E+02  0.00000000000E+00 0. -1.
         21    1    1    2  505  503  0.99707980477E+02  0.27731707798E+02 -0.21697785833E+03  0.24039575702E+03  0.00000000000E+00 0. -1.
         21    1    1    2  506  501 -0.61402450185E+02 -0.58800582578E+02  0.41298768707E+02  0.94516441411E+02  0.00000000000E+00 0. -1.
<scales pt_clust_3="14000.00000" pt_clust_4="55.83979" pt_clust_5="100.52209" pt_clust_6="65.75451"></scales>
<clustering>
<clus scale="   55.840">  1  4  2 -1</clus>
<clus scale="   65.755">  1  6  2 -1</clus>
<clus scale="  100.522">  2  5  1 -1</clus>
<clus scale="   55.840">  1  3  2 -1</clus>
</clustering>
</event>
<event>
 6    0  0.9315069E+002  0.8243365E+02  0.7546771E-02  0.1322284E+00
         21   -1    0    0  505  501  0.00000000000E+00  0.00000000000E+00  0.11128576717E+04  0.11128576717E+04  0.00000000000E+00 0.  1.
         21   -1    0    0  506  502 -0.00000000000E+00 -0.00000000000E+00 -0.65799576377E+03  0.65799576377E+03  0.00000000000E+00 0.  1.
         21    1    1    2  503  502 -0.26032786122E+02  0.24105962156E+02 -0.46861933804E+02  0.58777922766E+02  0.00000000000E+00 0. -1.
         21    1    1    2  504  501 -0.82347555490E+02  0.21185794617E+01  0.10895043107E+04  0.10926139535E+04  0.00000000000E+00 0.  1.
         21    1    1    2  505  503  0.92829107118E+02 -0.87743028187E+02 -0.32676487488E+03  0.35084379085E+03  0.00000000000E+00 0.  1.
         21    1    1    2  506  504  0.15551234495E+02  0.61518486569E+02 -0.26101559414E+03  0.26861776834E+03  0.00000000000E+00 0. -1.
<scales pt_clust_3="35.47962" pt_clust_4="82.43365" pt_clust_5="14000.00000" pt_clust_6="72.18687"></scales>
<clustering>
<clus scale="   35.480">  2  3  1 -1</clus>
<clus scale="   72.187">  2  6  1 -1</clus>
<clus scale="   82.434">  1  4  2 -1</clus>
<clus scale="   82.434">  1  3  2 -1</clus>
</clustering>
</event>
<event>
 6    0  0.9315069E+002  0.1218197E+03  0.7546771E-02  0.1240125E+00
         21   -1    0    0  503  501  0.00000000000E+00  0.00000000000E+00  0.20898328418E+03  0.20898328418E+03  0.00000000000E+00 0.  1.
         21   -1    0    0  505  502 -0.00000000000E+00 -0.00000000000E+00 -0.57204105981E+03  0.57204105981E+03  0.00000000000E+00 0.  1.
         21    1    1    2  503  502  0.85022820125E+02  0.17966212006E+01 -0.32642914623E+03  0.33732491058E+03  0.00000000000E+00 0.  1.
         21    1    1    2  504  501 -0.78782779623E+01  0.39065300420E+02  0.14382760508E+03  0.14924659106E+03  0.00000000000E+00 0.  1.
         21    1    1    2  505  506  0.41398268514E+02 -0.65206009441E+02 -0.15145065928E+03  0.17000865419E+03  0.00000000000E+00 0.  1.
         21    1    1    2  506  504 -0.11854281068E+03  0.24344087821E+02 -0.29005575191E+02  0.12444418816E+03  0.00000000000E+00 0.  1.
<scales pt_clust_3="121.81972" pt_clust_4="39.85179" pt_clust_5="71.74097" pt_clust_6="14000.00000"></scales>
<clustering>
<clus scale="   39.852">  1  4  2 -1</clus>
<clus scale="   71.741">  2  5  1 -1</clus>
<clus scale="  121.820">  2  3  1 -1</clus>
<clus scale="   39.852">  1  3  2 -1</clus>
</clustering>
</event>
<event>
 6    0  0.9315069E+002  0.2685529E+03  0.7546771E-02  0.1102111E+00
         21   -1    0    0  505  501  0.00000000000E+00  0.00000000000E+00  0.11826659855E+04  0.11826659855E+04  0.00000000000E+00 0. -1.
         21   -1    0    0  503  502 -0.00000000000E+00 -0.00000000000E+00 -0.41658149813E+03  0.41658149813E+03  0.00000000000E+00 0. -1.
         21    1    1    2  503  504  0.13686955173E+03  0.25615309938E+02  0.24388762768E+03  0.28083908779E+03  0.00000000000E+00 0. -1.
         21    1    1    2  504  501 -0.97390545518E+01 -0.46572455720E+02  0.99485779189E+02  0.11027811694E+03  0.00000000000E+00 0.  1.
         21    1    1    2  505  506  0.13521386758E+03  0.10505160269E+03  0.75632795051E+03  0.77546798640E+03  0.00000000000E+00 0. -1.
         21    1    1    2  506  502 -0.26234436476E+03 -0.84094456904E+02 -0.33361687000E+03  0.43266229250E+03  0.00000000000E+00 0. -1.
<scales pt_clust_3="135.25455" pt_clust_4="47.57986" pt_clust_5="268.55285" pt_clust_6="14000.00000"></scales>
<clustering>
<clus scale="   47.580">  1  4  2 -1</clus>
<clus scale="  135.255">  1  3  2 -1</clus>
<clus scale="  268.553">  1  5  2 -1</clus>
<clus scale="   47.580">  1  3  2 -1</clus>
</clustering>
</event>
<event>
 6    0  0.9315069E+002  0.8614166E+02  0.7546771E-02  0.1312474E+00
         21   -1    0    0  506  501  0.00000000000E+00  0.00000000000E+00  0.14591278647E+03  0.14591278647E+03  0.00000000000E+00 0.  1.
         21   -1    0    0  505  502 -0.00000000000E+00 -0.00000000000E+00 -0.28354779901E+03  0.28354779901E+03  0.00000000000E+00 0.  1.
         21    1    1    2  503  501 -0.37370281897E+02  0.57660389337E+01 -0.10725148666E+02  0.39304121768E+02  0.00000000000E+00 0. -1.
         21    1    1    2  504  503  0.18126734704E+02 -0.56053604582E+02  0.23198384847E+01  0.58957329894E+02  0.00000000000E+00 0.  1.
         21    1    1    2  505  504 -0.68329067875E+02  0.38410133157E+02  0.75113536315E+02  0.10856446557E+03  0.00000000000E+00 0.  1.
         21    1    1    2  506  502  0.87572615067E+02  0.11877432491E+02 -0.20434323868E+03  0.22263466825E+03  0.00000000000E+00 0.  1.
<scales pt_clust_3="37.81250" pt_clust_4="55.51778" pt_clust_5="86.14166" pt_clust_6="14000.00000"></scales>
<clustering>
<clus scale="   37.813">  1  3  2 -1</clus>
<clus scale="   55.518">  1  4  2 -1</clus>
<clus scale="   86.142">  1  5  2 -1</clus>
<clus scale="   37.813">  1  3  2 -1</clus>
</clustering>
</event>
<event>
 6    0  0.9315069E+002  0.9608356E+02  0.7546771E-02  0.1288754E+00
         21   -1    0    0  506  501  0.00000000000E+00  0.00000000000E+00  0.15494282564E+03  0.15494282564E+03  0.00000000000E+00 0.  1.
         21   -1    0    0  504  502 -0.00000000000E+00 -0.00000000000E+00 -0.86064948397E+03  0.86064948397E+03  0.00000000000E+00 0. -1.
         21    1    1    2  503  501 -0.39715374716E+02  0.44253983671E+01 -0.87806640321E+01  0.40914486437E+02  0.00000000000E+00 0.  1.
         21    1    1    2  504  505  0.20475729576E+02 -0.61925890907E+02 -0.69031607949E+03  0.69339048239E+03  0.00000000000E+00 0. -1.
         21    1    1    2  505  503 -0.50874942328E+02  0.12983522218E+03 -0.76143278982E+02  0.15888122485E+03  0.00000000000E+00 0.  1.
         21    1    1    2  506  502  0.70114587468E+02 -0.72334729637E+02  0.69533364167E+02  0.12240611594E+03  0.00000000000E+00 0.  1.
<scales pt_clust_3="39.96117" pt_clust_4="65.03997" pt_clust_5="14000.00000" pt_clust_6="96.08356"></scales>
<clustering>
<clus scale="   39.961">  1  3  2 -1</clus>
<clus scale="   65.040">  2  4  1 -1</clus>
<clus scale="   96.084">  1  6  2 -1</clus>
<clus scale="   39.961">  1  3  2 -1</clus>
</clustering>
</event>
<event>
 6    0  0.9315069E+002  0.7577651E+02  0.7546771E-02  0.1341483E+00
         21   -1    0    0  504  501  0.00000000000E+00  0.00000000000E+00  0.48661531841E+03  0.48661531841E+03  0.00000000000E+00 0.  1.
         21   -1    0    0  503  502 -0.00000000000E+00 -0.00000000000E+00 -0.64688285205E+03  0.64688285205E+03  0.00000000000E+00 0. -1.
         21    1    1    2  503  505 -0.78512990593E+02 -0.14899668087E+02 -0.92894963069E+02  0.12253882635E+03  0.00000000000E+00 0. -1.
         21    1    1    2  504  502  0.46150642278E+01  0.46625795102E+02 -0.47517910706E+03  0.47748345246E+03  0.00000000000E+00 0. -1.
         21    1    1    2  505  506  0.54487535657E+02 -0.80561524083E+02 -0.22619757466E+02  0.99853413223E+02  0.00000000000E+00 0.  1.
         21    1    1    2  506  501  0.19410390708E+02  0.48835397067E+02  0.43042629395E+03  0.43362247843E+03  0.00000000000E+00 0.  1.
<scales pt_clust_3="75.77651" pt_clust_4="46.85364" pt_clust_5="14000.00000" pt_clust_6="52.97360"></scales>
<clustering>
<clus scale="   46.854">  2  4  1 -1</clus>
<clus scale="   52.974">  1  6  2 -1</clus>
<clus scale="   75.777">  2  3  1 -1</clus>
<clus scale="   52.974">  1  3  2 -1</clus>
</clustering>
</event>
<event>
 6    0  0.9315069E+002  0.1466330E+03  0.7546771E-02  0.1204672E+00
         21   -1    0    0  506  501  0.00000000000E+00  0.00000000000E+00  0.17702996763E+03  0.17702996763E+03  0.00000000000E+00 0. -1.
         21   -1    0    0  505  502 -0.00000000000E+00 -0.00000000000E+00 -0.29004657140E+03  0.29004657140E+03  0.00000000000E+00 0. -1.
         21    1    1    2  503  504 -0.81861392460E+02 -0.48843322084E+02 -0.60342694538E+02  0.11281931781E+03  0.00000000000E+00 0. -1.
         21    1    1    2  504  501 -0.56886670582E+02 -0.34845105790E+02 -0.10658286876E+03  0.12573854859E+03  0.00000000000E+00 0. -1.
         21    1    1    2  505  503  0.20274597897E+02  0.23625134611E+02 -0.50664382464E+02  0.59464997736E+02  0.00000000000E+00 0. -1.
         21    1    1    2  506  502  0.11847346515E+03  0.60063293262E+02  0.10457334199E+03  0.16905367490E+03  0.00000000000E+00 0. -1.
<scales pt_clust_3="41.54600" pt_clust_4="41.54600" pt_clust_5="31.13208" pt_clust_6="136.78564"></scales>
<clustering>
<clus scale="   31.132">  2  5  1 -1</clus>
<clus scale="   41.546">  3  4 -1 -1</clus>
<clus scale="  136.786">  1  6  2 -1</clus>
<clus scale="  136.786">  1  3  2 -1</clus>
</clustering>
</event>
<event>
 6    0  0.9315069E+002  0.7022838E+02  0.7546771E-02  0.1359318E+00
         21   -1    0    0  503  501  0.00000000000E+00  0.00000000000E+00  0.11552414811E+03  0.11552414811E+03  0.00000000000E+00 0. -1.
         21   -1    0    0  504  502 -0.00000000000E+00 -0.00000000000E+00 -0.36652316150E+03  0.36652316150E+03  0.00000000000E+00 0.  1.
         21    1    1    2  503  502 -0.15417207384E+02  0.93871688241E+02  0.13983259611E+02  0.96151524617E+02  0.00000000000E+00 0. -1.
         21    1    1    2  504  505 -0.32318609400E+01 -0.37055478781E+02 -0.25218946975E+03  0.25491779476E+03  0.00000000000E+00 0.  1.
         21    1    1    2  505  506 -0.43589515394E+02 -0.43367330499E+02 -0.24583953955E+02  0.66220404702E+02  0.00000000000E+00 0. -1.
         21    1    1    2  506  501  0.62238583718E+02 -0.13448878961E+02  0.11791150710E+02  0.64757585530E+02  0.00000000000E+00 0. -1.
<scales pt_clust_3="70.22838" pt_clust_4="37.19615" pt_clust_5="14000.00000" pt_clust_6="65.34445"></scales>
<clustering>
<clus scale="   37.196">  2  4  1 -1</clus>
<clus scale="   65.344">  1  6  2 -1</clus>
<clus scale="   70.228">  1  3  2 -1</clus>
<clus scale="   65.344">  1  3  2 -1</clus>
</clustering>
</event>
<event>
 6    0  0.9315069E+002  0.1078086E+03  0.7546771E-02  0.1264683E+00
         21   -1    0    0  503  501  0.00000000000E+00  0.00000000000E+00  0.13119480831E+03  0.13119480831E+03  0.00000000000E+00 0. -1.
         21   -1    0    0  504  502 -0.00000000000E+00 -0.00000000000E+00 -0.16370278776E+04  0.16370278776E+04  0.00000000000E+00 0. -1.
         21    1    1    2  503  502  0.48302932007E+02  0.24585010174E+02  0.14225080235E+02  0.56035246706E+02  0.00000000000E+00 0. -1.
         21    1    1    2  504  506  0.17386314290E+02  0.70130251485E+02 -0.13946778889E+04  0.13965482268E+04  0.00000000000E+00 0. -1.
         21    1    1    2  505  501  0.62839684756E+02 -0.65519616054E+02  0.44110035737E+02  0.10093236013E+03  0.00000000000E+00 0. -1.
         21    1    1    2  506  505 -0.12852893105E+03 -0.29195645606E+02 -0.16949029642E+03  0.21470685229E+03  0.00000000000E+00 0. -1.
<scales pt_clust_3="54.19959" pt_clust_4="72.59982" pt_clust_5="14000.00000" pt_clust_6="107.80855"></scales>
<clustering>
<clus scale="   54.200">  1  3  2 -1</clus>
<clus scale="   72.600">  2  4  1 -1</clus>
<clus scale="  107.809">  2  6  1 -1</clus>
<clus scale="   54.200">  1  3  2 -1</clus>
</clustering>
</event>
<event>
 6    0  0.9315069E+002  0.9833345E+02  0.7546771E-02  0.1283840E+00
         21   -1    0    0  506  501  0.00000000000E+00  0.00000000000E+00  0.30798789591E+02  0.30798789591E+02  0.00000000000E+00 0. -1.
         21   -1    0    0  504  502 -0.00000000000E+00 -0.00000000000E+00 -0.15498522495E+04  0.15498522495E+04  0.00000000000E+00 0. -1.
         21    1    1    2  503  501  0.10894132501E+03 -0.37129896491E+00 -0.10154983602E+03  0.14893192859E+03  0.00000000000E+00 0. -1.
         21    1    1    2  504  503  0.24068643946E+01 -0.52788675770E+02 -0.35793346021E+03  0.36181321041E+03  0.00000000000E+00 0. -1.
         21    1    1    2  505  502 -0.43059702530E+02  0.58528186197E+02 -0.70844908641E+03  0.71216556684E+03  0.00000000000E+00 0. -1.
         21    1    1    2  506  505 -0.68288486874E+02 -0.53682114615E+01 -0.35112107725E+03  0.35774033323E+03  0.00000000000E+00 0. -1.
<scales pt_clust_3="14000.00000" pt_clust_4="52.84352" pt_clust_5="49.62319" pt_clust_6="98.33345"></scales>
<clustering>
<clus scale="   52.844">  2  4  1 -1</clus>
<clus scale="   49.623">  2  5  1 -1</clus>
<clus scale="   98.333">  2  6  1 -1</clus>
<clus scale="   98.333">  1  3  2 -1</clus>
</clustering>
</event>
<event>
 6    0  0.9315069E+002  0.8829170E+02  0.7546771E-02  0.1307042E+00
         21   -1    0    0  506  501  0.00000000000E+00  0.00000000000E+00  0.13216202407E+03  0.13216202407E+03  0.00000000000E+00 0. -1.
         21   -1    0    0  505  502 -0.00000000000E+00 -0.00000000000E+00 -0.48135159923E+03  0.48135159923E+03  0.00000000000E+00 0. -1.
         21    1    1    2  503  502 -0.65256962818E+02 -0.65461498171E+02  0.29628957737E+01  0.92479498757E+02  0.00000000000E+00 0. -1.
         21    1    1    2  504  501  0.96284672086E+01  0.11601641428E+03 -0.38385486806E+03  0.40111977700E+03  0.00000000000E+00 0. -1.
         21    1    1    2  505  504  0.12356875566E+02 -0.32944241299E+02 -0.27386894143E+02  0.44587637069E+02  0.00000000000E+00 0.  1.
         21    1    1    2  506  503  0.43271620044E+02 -0.17610674809E+02  0.59089291274E+02  0.75326710480E+02  0.00000000000E+00 0. -1.
<scales pt_clust_3="14000.00000" pt_clust_4="88.29170" pt_clust_5="35.18544" pt_clust_6="47.15535"></scales>
<clustering>
<clus scale="   35.185">  2  5  1 -1</clus>
<clus scale="   47.155">  1  6  2 -1</clus>
<clus scale="   88.292">  2  4  1 -1</clus>
<clus scale="   47.155">  1  3  2 -1</clus>
</clustering>
</event>
<event>
 6    0  0.9315069E+002  0.1561043E+03  0.7546771E-02  0.1193166E+00
         21   -1    0    0  506  501  0.00000000000E+00  0.00000000000E+00  0.10121903690E+03  0.10121903690E+03  0.00000000000E+00 0.  1.
         21   -1    0    0  504  502 -0.00000000000E+00 -0.00000000000E+00 -0.62580429131E+03  0.62580429131E+03  0.00000000000E+00 0.  1.
         21    1    1    2  503  505  0.59550924223E+02  0.37509837526E+01 -0.10762388678E+03  0.12305804915E+03  0.00000000000E+00 0.  1.
         21    1    1    2  504  501 -0.99131191622E+00 -0.33337415422E+02 -0.16035276740E+03  0.16378454133E+03  0.00000000000E+00 0.  1.
         21    1    1    2  505  502  0.81361587277E+02 -0.25800273779E+02 -0.27558867932E+03  0.28850386857E+03  0.00000000000E+00 0.  1.
         21    1    1    2  506  503 -0.13992119958E+03  0.55386705448E+02  0.18980079094E+02  0.15167686915E+03  0.00000000000E+00 0.  1.
<scales pt_clust_3="37.41910" pt_clust_4="33.35215" pt_clust_5="37.41910" pt_clust_6="148.92862"></scales>
<clustering>
<clus scale="   33.352">  2  4  1 -1</clus>
<clus scale="   37.419">  3  5 -1 -1</clus>
<clus scale="  148.929">  1  6  2 -1</clus>
<clus scale="  148.929">  1  3  2 -1</clus>
</clustering>
</event>
<event>
 6    0  0.9315069E+002  0.7037469E+02  0.7546771E-02  0.1358823E+00
         21   -1    0    0  505  501  0.00000000000E+00  0.00000000000E+00  0.11108621823E+03  0.11108621823E+03  0.00000000000E+00 0. -1.
         21   -1    0    0  504  502 -0.00000000000E+00 -0.00000000000E+00 -0.27821711454E+03  0.27821711454E+03  0.00000000000E+00 0. -1.
         21    1    1    2  503  501 -0.34298835505E+01 -0.49789448227E+02  0.92409710099E+01  0.50755776038E+02  0.00000000000E+00 0. -1.
         21    1    1    2  504  503  0.69907735082E+00 -0.36582310040E+02 -0.14641227064E+03  0.15091490023E+03  0.00000000000E+00 0. -1.
         21    1    1    2  505  506  0.23799158040E+02  0.12090287637E+03  0.18396141042E+02  0.12458861683E+03  0.00000000000E+00 0. -1.
         21    1    1    2  506  502 -0.21068351840E+02 -0.34531118104E+02 -0.48355737727E+02  0.63044039669E+02  0.00000000000E+00 0. -1.
<scales pt_clust_3="70.37469" pt_clust_4="36.58899" pt_clust_5="14000.00000" pt_clust_6="54.38097"></scales>
<clustering>
<clus scale="   36.589">  2  4  1 -1</clus>
<clus scale="   54.381">  2  6  1 -1</clus>
<clus scale="   70.375">  1  3  2 -1</clus>
<clus scale="   70.375">  1  3  2 -1</clus>
</clustering>
</event>
<event>
 6    0  0.9315069E+002  0.1087381E+03  0.7546771E-02  0.1262925E+00
         21   -1    0    0  506  501  0.00000000000E+00  0.00000000000E+00  0.68542394759E+03  0.68542394759E+03  0.00000000000E+00 0.  1.
         21   -1    0    0  504  502 -0.00000000000E+00 -0.00000000000E+00 -0.49835981489E+03  0.49835981489E+03  0.00000000000E+00 0. -1.
         21    1    1    2  503  505  0.63734241544E+02  0.15915821182E+02  0.38161459264E+03  0.38722740635E+03  0.00000000000E+00 0.  1.
         21    1    1    2  504  501  0.26480493052E+02  0.28228038568E+02  0.42729691241E+02  0.57652972059E+02  0.00000000000E+00 0. -1.
         21    1    1    2  505  502 -0.10861925564E+03  0.13882279283E+02 -0.47811480414E+03  0.49049426736E+03  0.00000000000E+00 0. -1.
         21    1    1    2  506  503  0.18404521041E+02 -0.58026139033E+02  0.24083465295E+03  0.24840911672E+03  0.00000000000E+00 0.  1.
<scales pt_clust_3="108.73806" pt_clust_4="38.70450" pt_clust_5="14000.00000" pt_clust_6="55.15195"></scales>
<clustering>
<clus scale="   38.705">  1  4  2 -1</clus>
<clus scale="   55.152">  1  6  2 -1</clus>
<clus scale="  108.738">  1  3  2 -1</clus>
<clus scale="   38.705">  1  3  2 -1</clus>
</clustering>
</event>
<event>
 6    0  0.9315069E+002  0.7388922E+02  0.7546771E-02  0.1347346E+00
         21   -1    0    0  506  501  0.00000000000E+00  0.00000000000E+00  0.20079270570E+02  0.20079270570E+02  0.00000000000E+00 0. -1.
         21   -1    0    0  504  502 -0.00000000000E+00 -0.00000000000E+00 -0.19266921228E+04  0.19266921228E+04  0.00000000000E+00 0. -1.
         21    1    1    2  503  502 -0.70747146358E+01 -0.73990429116E+02 -0.10544843053E+04  0.10571006505E+04  0.00000000000E+00 0. -1.
         21    1    1    2  504  505  0.30333510135E+02  0.67080148335E+02 -0.10713479861E+03  0.12999128129E+03  0.00000000000E+00 0. -1.
         21    1    1    2  505  501  0.60801443553E+02  0.18629089158E+02 -0.30039664178E+03  0.30705374268E+03  0.00000000000E+00 0. -1.
         21    1    1    2  506  503 -0.84060239052E+02 -0.11718808377E+02 -0.44459710658E+03  0.45262571893E+03  0.00000000000E+00 0.  1.
<scales pt_clust_3="14000.00000" pt_clust_4="73.88922" pt_clust_5="63.59134" pt_clust_6="69.86682"></scales>
<clustering>
<clus scale="   63.591">  1  5  2 -1</clus>
<clus scale="   69.867">  1  6  2 -1</clus>
<clus scale="   73.889">  1  4  2 -1</clus>
<clus scale="   63.591">  1  3  2 -1</clus>
</clustering>
</event>
<event>
 6    0  0.9315069E+002  0.8954300E+02  0.7546771E-02  0.1303962E+00
         21   -1    0    0  503  501  0.00000000000E+00  0.00000000000E+00  0.66427918936E+02  0.66427918936E+02  0.00000000000E+00 0. -1.
         21   -1    0    0  506  502 -0.00000000000E+00 -0.00000000000E+00 -0.34341286573E+03  0.34341286573E+03  0.00000000000E+00 0. -1.
         21    1    1    2  503  504  0.44204585731E+02 -0.76937136535E+01 -0.31497943595E+02  0.54821155407E+02  0.00000000000E+00 0. -1.
         21    1    1    2  504  502  0.27863351356E+02 -0.90267271574E+02 -0.46439349427E+02  0.10526708812E+03  0.00000000000E+00 0. -1.
         21    1    1    2  505  501 -0.17867279775E+02  0.81438995906E+02 -0.70190918239E+02  0.10898768162E+03  0.00000000000E+00 0. -1.
         21    1    1    2  506  505 -0.54200657313E+02  0.16521989321E+02 -0.12885673553E+03  0.14076485952E+03  0.00000000000E+00 0. -1.
<scales pt_clust_3="44.86913" pt_clust_4="89.54300" pt_clust_5="14000.00000" pt_clust_6="51.82554"></scales>
<clustering>
<clus scale="   44.869">  1  3  2 -1</clus>
<clus scale="   51.826">  2  6  1 -1</clus>
<clus scale="   89.543">  2  4  1 -1</clus>
<clus scale="   44.869">  1  3  2 -1</clus>
</clustering>
</event>
<event>
 6    0  0.9315069E+002  0.1470174E+03  0.7546771E-02  0.1204187E+00
         21   -1    0    0  506  501  0.00000000000E+00  0.00000000000E+00  0.27514882471E+03  0.27514882471E+03  0.00000000000E+00 0. -1.
         21   -1    0    0  503  502 -0.00000000000E+00 -0.00000000000E+00 -0.21396305123E+03  0.21396305123E+03  0.00000000000E+00 0. -1.
         21    1    1    2  503  501  0.88234845055E+02 -0.14011149303E+03  0.10799853914E+02  0.16593147744E+03  0.00000000000E+00 0. -1.
         21    1    1    2  504  502 -0.31770884856E+02  0.31759904278E+02 -0.54830834846E+02  0.70883715297E+02  0.00000000000E+00 0.  1.
         21    1    1    2  505  504 -0.10767583226E+03  0.86444894764E+02  0.56374683990E+01  0.13819763288E+03  0.00000000000E+00 0. -1.
         21    1    1    2  506  505  0.51211872066E+02  0.21906693991E+02  0.99579286009E+02  0.11409905032E+03  0.00000000000E+00 0. -1.
<scales pt_clust_3="14000.00000" pt_clust_4="44.92305" pt_clust_5="147.01743" pt_clust_6="54.93387"></scales>
<clustering>
<clus scale="   44.923">  2  4  1 -1</clus>
<clus scale="   54.934">  1  6  2 -1</clus>
<clus scale="  147.017">  1  5  2 -1</clus>
<clus scale="   54.934">  1  3  2 -1</clus>
</clustering>
</event>
<event>
 6    0  0.9315069E+002  0.1009589E+03  0.7546771E-02  0.1278292E+00
         21   -1    0    0  505  501  0.00000000000E+00  0.00000000000E+00  0.11862079096E+04  0.11862079096E+04  0.00000000000E+00 0.  1.
         21   -1    0    0  506  502 -0.00000000000E+00 -0.00000000000E+00 -0.10826209406E+03  0.10826209406E+03  0.00000000000E+00 0. -1.
         21    1    1    2  503  502  0.90587855101E+02 -0.11992149344E+03  0.45509808345E+03  0.47927193705E+03  0.00000000000E+00 0.  1.
         21    1    1    2  504  501 -0.54811823276E+02 -0.12544805578E+02  0.12936457244E+03  0.14105637426E+03  0.00000000000E+00 0. -1.
         21    1    1    2  505  503  0.51048818457E+02  0.85489310288E+02  0.55097644828E+03  0.55990128647E+03  0.00000000000E+00 0.  1.
         21    1    1    2  506  504 -0.86824850282E+02  0.46976988729E+02 -0.57493288632E+02  0.11424040587E+03  0.00000000000E+00 0. -1.
<scales pt_clust_3="100.95887" pt_clust_4="56.22907" pt_clust_5="81.89272" pt_clust_6="14000.00000"></scales>
<clustering>
<clus scale="   56.229">  1  4  2 -1</clus>
<clus scale="   81.893">  1  5  2 -1</clus>
<clus scale="  100.959">  1  3  2 -1</clus>
<clus scale="   56.229">  1  3  2 -1</clus>
</clustering>
</event>
<event>
 6    0  0.9315069E+002  0.1120514E+03  0.7546771E-02  0.1256817E+00
         21   -1    0    0  504  501  0.00000000000E+00  0.00000000000E+00  0.34637144302E+03  0.34637144302E+03  0.00000000000E+00 0. -1.
         21   -1    0    0  503  502 -0.00000000000E+00 -0.00000000000E+00 -0.25550660687E+03  0.25550660687E+03  0.00000000000E+00 0. -1.
         21    1    1    2  503  501  0.29381199793E+02  0.16342717220E+02  0.20634982661E+03  0.20907077809E+03  0.00000000000E+00 0. -1.
         21    1    1    2  504  506 -0.14770106239E+02 -0.70911020809E+02  0.51863090867E+02  0.89085964690E+02  0.00000000000E+00 0.  1.
         21    1    1    2  505  502  0.89406725648E+02  0.77339489797E+02 -0.15729658267E+03  0.19676680156E+03  0.00000000000E+00 0. -1.
         21    1    1    2  506  505 -0.10401781920E+03 -0.22771186209E+02 -0.10051498658E+02  0.10695450555E+03  0.00000000000E+00 0. -1.
<scales pt_clust_3="33.62052" pt_clust_4="62.60505" pt_clust_5="112.05142" pt_clust_6="14000.00000"></scales>
<clustering>
<clus scale="   33.621">  1  3  2 -1</clus>
<clus scale="   62.605">  1  4  2 -1</clus>
<clus scale="  112.051">  2  5  1 -1</clus>
<clus scale="   33.621">  1  3  2 -1</clus>
</clustering>
</event>
<event>
 6    0  0.9315069E+002  0.9447253E+02  0.7546771E-02  0.1292369E+00
         21   -1    0    0  505  501  0.00000000000E+00  0.00000000000E+00  0.28708298591E+03  0.28708298591E+03  0.00000000000E+00 0.  1.
         21   -1    0    0  506  502 -0.00000000000E+00 -0.00000000000E+00 -0.17299646420E+03  0.17299646420E+03  0.00000000000E+00 0.  1.
         21    1    1    2  503  504  0.73613423365E+02  0.45157322856E+02  0.19326025139E+03  0.21167816296E+03  0.00000000000E+00 0.  1.
         21    1    1    2  504  501  0.29260961465E+02  0.16301765525E+02  0.18076154819E+02  0.38061776077E+02  0.00000000000E+00 0.  1.
         21    1    1    2  505  502 -0.63664332854E+02  0.97923851595E+01 -0.11053516240E+03  0.12793381184E+03  0.00000000000E+00 0.  1.
         21    1    1    2  506  503 -0.39210051976E+02 -0.71251473540E+02  0.13285277899E+02  0.82405699235E+02  0.00000000000E+00 0.  1.
<scales pt_clust_3="14000.00000" pt_clust_4="33.49554" pt_clust_5="63.52867" pt_clust_6="94.47253"></scales>
<clustering>
<clus scale="   33.496">  1  4  2 -1</clus>
<clus scale="   63.529">  2  5  1 -1</clus>
<clus scale="   94.473">  2  6  1 -1</clus>
<clus scale="   33.496">  1  3  2 -1</clus>
</clustering>
</event>
<event>
 6    0  0.9315069E+002  0.1270337E+03  0.7546771E-02  0.1231925E+00
         21   -1    0    0  503  501  0.00000000000E+00  0.00000000000E+00  0.46723718219E+03  0.46723718219E+03  0.00000000000E+00 0. -1.
         21   -1    0    0  505  502 -0.00000000000E+00 -0.00000000000E+00 -0.10577312462E+03  0.10577312462E+03  0.00000000000E+00 0. -1.
         21    1    1    2  503  504  0.38047988998E+02 -0.58386990714E+02  0.30286734573E+03  0.31078178721E+03  0.00000000000E+00 0. -1.
         21    1    1    2  504  506 -0.75633911841E+01 -0.53447546743E+02  0.28501475982E+02  0.61042438288E+02  0.00000000000E+00 0. -1.
         21    1    1    2  505  501  0.16931559846E+02  0.13716183786E+03 -0.26744978750E+01  0.13822879737E+03  0.00000000000E+00 0. -1.
         21    1    1    2  506  502 -0.47416157660E+02 -0.25327300402E+02  0.32769733733E+02  0.62957283946E+02  0.00000000000E+00 0.  1.
<scales pt_clust_3="69.68996" pt_clust_4="48.82245" pt_clust_5="117.23487" pt_clust_6="48.82245"></scales>
<clustering>
<clus scale="   48.822">  4  6 -1 -1</clus>
<clus scale="   69.690">  1  3  2 -1</clus>
<clus scale="  117.235">  2  5  1 -1</clus>
<clus scale="   69.690">  1  3  2 -1</clus>
</clustering>
</event>
<event>
 6    0  0.9315069E+002  0.9995272E+02  0.7546771E-02  0.1280395E+00
         21   -1    0    0  503  501  0.00000000000E+00  0.00000000000E+00  0.70670242223E+02  0.70670242223E+02  0.00000000000E+00 0.  1.
         21   -1    0    0  505  502 -0.00000000000E+00 -0.00000000000E+00 -0.17164225299E+04  0.17164225299E+04  0.00000000000E+00 0.  1.
         21    1    1    2  503  506  0.41369436106E+01  0.35215799987E+02 -0.21080676369E+02  0.41251203466E+02  0.00000000000E+00 0.  1.
         21    1    1    2  504  501 -0.57915491232E+02  0.29627861193E+02  0.14987796892E+02  0.66758133132E+02  0.00000000000E+00 0.  1.
         21    1    1    2  505  504 -0.90667875528E+02 -0.35464737670E+02 -0.13552750955E+04  0.13587674547E+04  0.00000000000E+00 0.  1.
         21    1    1    2  506  502  0.14444642315E+03 -0.29378923510E+02 -0.28438431268E+03  0.32031598088E+03  0.00000000000E+00 0.  1.
<scales pt_clust_3="35.45796" pt_clust_4="76.73825" pt_clust_5="99.95272" pt_clust_6="14000.00000"></scales>
<clustering>
<clus scale="   35.458">  1  3  2 -1</clus>
<clus scale="   76.738">  1  4  2 -1</clus>
<clus scale="   99.953">  2  5  1 -1</clus>
<clus scale="   35.458">  1  3  2 -1</clus>
</clustering>
</event>
<event>
 6    0  0.9315069E+002  0.5951644E+02  0.7546771E-02  0.1399872E+00
         21   -1    0    0  505  501  0.00000000000E+00  0.00000000000E+00  0.33510809187E+03  0.33510809187E+03  0.00000000000E+00 0. -1.
         21   -1    0    0  506  502 -0.00000000000E+00 -0.00000000000E+00 -0.11812667159E+03  0.11812667159E+03  0.00000000000E+00 0. -1.
         21    1    1    2  503  501  0.39980106521E+02 -0.16886667082E+02  0.29789716113E+02  0.52640247232E+02  0.00000000000E+00 0. -1.
         21    1    1    2  504  503  0.26158177761E+01 -0.55076564525E+02  0.59741173718E+02  0.81297467979E+02  0.00000000000E+00 0. -1.
         21    1    1    2  505  502 -0.88567406274E+02  0.47641530568E+02  0.20359904563E+03  0.22708252304E+03  0.00000000000E+00 0. -1.
         21    1    1    2  506  504  0.45971481976E+02  0.24321701039E+02 -0.76148515173E+02  0.92214525209E+02  0.00000000000E+00 0. -1.
<scales pt_clust_3="43.40010" pt_clust_4="59.51644" pt_clust_5="14000.00000" pt_clust_6="52.76695"></scales>
<clustering>
<clus scale="   43.400">  1  3  2 -1</clus>
<clus scale="   52.767">  2  6  1 -1</clus>
<clus scale="   59.516">  2  4  1 -1</clus>
<clus scale="   43.400">  1  3  2 -1</clus>
</clustering>
</event>
<event>
 6    0  0.9315069E+002  0.2147506E+03  0.7546771E-02  0.1137858E+00
         21   -1    0    0  504  501  0.00000000000E+00  0.00000000000E+00  0.52192993493E+03  0.52192993493E+03  0.00000000000E+00 0. -1.
         21   -1    0    0  506  502 -0.00000000000E+00 -0.00000000000E+00 -0.16315405201E+03  0.16315405201E+03  0.00000000000E+00 0. -1.
         21    1    1    2  503  502  0.68451346789E+02 -0.13204636037E+03  0.12490880278E+03  0.19422676740E+03  0.00000000000E+00 0. -1.
         21    1    1    2  504  505  0.10376575360E+03  0.67579418756E+02  0.14625326253E+03  0.19163592111E+03  0.00000000000E+00 0. -1.
         21    1    1    2  505  503  0.44554784506E+02 -0.15233896999E+02  0.43462616968E+02  0.64079634158E+02  0.00000000000E+00 0. -1.
         21    1    1    2  506  501 -0.21677188489E+03  0.79700838614E+02  0.44151200647E+02  0.23514166427E+03  0.00000000000E+00 0. -1.
<scales pt_clust_3="35.18943" pt_clust_4="123.83178" pt_clust_5="35.18943" pt_clust_6="205.44196"></scales>
<clustering>
<clus scale="   35.189">  3  5 -1 -1</clus>
<clus scale="  123.832">  1  4  2 -1</clus>
<clus scale="  205.442">  2  6  1 -1</clus>
<clus scale="  123.832">  1  3  2 -1</clus>
</clustering>
</event>
<event>
 6    0  0.9315069E+002  0.7914922E+02  0.7546771E-02  0.1331483E+00
         21   -1    0    0  506  501  0.00000000000E+00  0.00000000000E+00  0.11013003861E+04  0.11013003861E+04  0.00000000000E+00 0. -1.
         21   -1    0    0  505  502 -0.00000000000E+00 -0.00000000000E+00 -0.47060209505E+03  0.47060209505E+03  0.00000000000E+00 0. -1.
         21    1    1    2  503  501  0.21593864542E+02  0.99956097328E+02  0.10402234047E+04  0.10452378907E+04  0.00000000000E+00 0. -1.
         21    1    1    2  504  503 -0.59451455910E+02 -0.94886885199E+02 -0.72232577567E+02  0.13324992253E+03  0.00000000000E+00 0. -1.
         21    1    1    2  505  504  0.30761353416E+02  0.25427228495E+02 -0.35513909201E+03  0.35737456469E+03  0.00000000000E+00 0. -1.
         21    1    1    2  506  502  0.70962379522E+01 -0.30496440624E+02  0.17846555884E+02  0.36040103229E+02  0.00000000000E+00 0. -1.
<scales pt_clust_3="79.14922" pt_clust_4="14000.00000" pt_clust_5="39.89545" pt_clust_6="31.31117"></scales>
<clustering>
<clus scale="   31.311">  1  6  2 -1</clus>
<clus scale="   39.895">  2  5  1 -1</clus>
<clus scale="   79.149">  1  3  2 -1</clus>
<clus scale="   31.311">  1  3  2 -1</clus>
</clustering>
</event>
<event>
 6    0  0.9315069E+002  0.1113000E+03  0.7546771E-02  0.1258181E+00
         21   -1    0    0  504  501  0.00000000000E+00  0.00000000000E+00  0.11480360484E+03  0.11480360484E+03  0.00000000000E+00 0. -1.
         21   -1    0    0  505  502 -0.00000000000E+00 -0.00000000000E+00 -0.58796274726E+03  0.58796274726E+03  0.00000000000E+00 0. -1.
         21    1    1    2  503  502 -0.14446709066E+03  0.42497515338E+02 -0.36917129090E+03  0.39870317420E+03  0.00000000000E+00 0. -1.
         21    1    1    2  504  503  0.54269285806E+02  0.27110810353E+01 -0.10438980595E+02  0.55330621343E+02  0.00000000000E+00 0. -1.
         21    1    1    2  505  506  0.83372319970E+02  0.23618112335E+02 -0.14054592478E+03  0.16511182859E+03  0.00000000000E+00 0. -1.
         21    1    1    2  506  501  0.68254848804E+01 -0.68826708708E+02  0.46997053859E+02  0.83620727974E+02  0.00000000000E+00 0. -1.
<scales pt_clust_3="111.30002" pt_clust_4="54.33696" pt_clust_5="14000.00000" pt_clust_6="80.74663"></scales>
<clustering>
<clus scale="   54.337">  1  4  2 -1</clus>
<clus scale="   80.747">  1  6  2 -1</clus>
<clus scale="  111.300">  1  3  2 -1</clus>
<clus scale="   54.337">  1  3  2 -1</clus>
</clustering>
</event>
<event>
 6    0  0.9315069E+002  0.1041489E+03  0.7546771E-02  0.1271806E+00
         21   -1    0    0  505  501  0.00000000000E+00  0.00000000000E+00  0.12529432414E+04  0.12529432414E+04  0.00000000000E+00 0.  1.
         21   -1    0    0  503  502 -0.00000000000E+00 -0.00000000000E+00 -0.41933764500E+02  0.41933764500E+02  0.00000000000E+00 0.  1.
         21    1    1    2  503  501 -0.33593611101E+02  0.12694224216E+02  0.31251470969E+00  0.35913391663E+02  0.00000000000E+00 0. -1.
         21    1    1    2  504  502 -0.71285309005E+02 -0.29781119868E+02  0.16560306519E+03  0.18273720360E+03  0.00000000000E+00 0.  1.
         21    1    1    2  505  506 -0.21052383580E+02 -0.48375774749E+02  0.71460932860E+03  0.71655419262E+03  0.00000000000E+00 0.  1.
         21    1    1    2  506  504  0.12593130369E+03  0.65462670401E+02  0.33048456844E+03  0.35967221806E+03  0.00000000000E+00 0.  1.
<scales pt_clust_3="35.91203" pt_clust_4="104.14891" pt_clust_5="52.84901" pt_clust_6="14000.00000"></scales>
<clustering>
<clus scale="   35.912">  2  3  1 -1</clus>
<clus scale="   52.849">  1  5  2 -1</clus>
<clus scale="  104.149">  2  4  1 -1</clus>
<clus scale="   52.849">  1  3  2 -1</clus>
</clustering>
</event>
<event>
 6    0  0.9315069E+002  0.1210673E+03  0.7546771E-02  0.1241347E+00
         21   -1    0    0  505  501  0.00000000000E+00  0.00000000000E+00  0.15746435830E+03  0.15746435830E+03  0.00000000000E+00 0. -1.
         21   -1    0    0  503  502 -0.00000000000E+00 -0.00000000000E+00 -0.73370045171E+03  0.73370045171E+03  0.00000000000E+00 0. -1.
         21    1    1    2  503  504  0.90350842939E+02  0.55143308421E+02 -0.11838032155E+03  0.15880163669E+03  0.00000000000E+00 0. -1.
         21    1    1    2  504  501 -0.12594971518E+03 -0.12432289803E+02  0.95220369629E+02  0.15838185305E+03  0.00000000000E+00 0. -1.
         21    1    1    2  505  506  0.23497254070E+01 -0.42432168869E+02 -0.35599864024E+02  0.55437897534E+02  0.00000000000E+00 0. -1.
         21    1    1    2  506  502  0.33249146830E+02 -0.27884974851E+00 -0.51747627747E+03  0.51854342274E+03  0.00000000000E+00 0. -1.
<scales pt_clust_3="14000.00000" pt_clust_4="121.06725" pt_clust_5="43.51113" pt_clust_6="33.25032"></scales>
<clustering>
<clus scale="   33.250">  2  6  1 -1</clus>
<clus scale="   43.511">  2  5  1 -1</clus>
<clus scale="  121.067">  1  4  2 -1</clus>
<clus scale="  121.067">  1  3  2 -1</clus>
</clustering>
</event>
<event>
 6    0  0.9315069E+002  0.1239736E+03  0.7546771E-02  0.1236682E+00
         21   -1    0    0  505  501  0.00000000000E+00  0.00000000000E+00  0.85920876419E+03  0.85920876419E+03  0.00000000000E+00 0. -1.
         21   -1    0    0  504  502 -0.00000000000E+00 -0.00000000000E+00 -0.13942868386E+03  0.13942868386E+03  0.00000000000E+00 0.  1.
         21    1    1    2  503  501 -0.40065910226E+02  0.81776945357E+02 -0.56295451056E+02  0.10706037439E+03  0.00000000000E+00 0.  1.
         21    1    1    2  504  503 -0.54418888851E+02  0.18377095658E+00  0.24720327263E+02  0.59770760540E+02  0.00000000000E+00 0.  1.
         21    1    1    2  505  506  0.13549790100E+03  0.17879687947E+02  0.69827490342E+03  0.71152456400E+03  0.00000000000E+00 0. -1.
         21    1    1    2  506  502 -0.41013101920E+02 -0.99840404260E+02  0.53080300693E+02  0.12028174913E+03  0.00000000000E+00 0. -1.
<scales pt_clust_3="112.08976" pt_clust_4="54.41920" pt_clust_5="123.97363" pt_clust_6="14000.00000"></scales>
<clustering>
<clus scale="   54.419">  2  4  1 -1</clus>
<clus scale="  112.090">  2  3  1 -1</clus>
<clus scale="  123.974">  1  5  2 -1</clus>
<clus scale="  123.974">  1  3  2 -1</clus>
</clustering>
</event>
<event>
 6    0  0.9315069E+002  0.1878986E+03  0.7546771E-02  0.1160370E+00
         21   -1    0    0  505  501  0.00000000000E+00  0.00000000000E+00  0.12997498294E+03  0.12997498294E+03  0.00000000000E+00 0.  1.
         21   -1    0    0  503  502 -0.00000000000E+00 -0.00000000000E+00 -0.41232666307E+03  0.41232666307E+03  0.00000000000E+00 0.  1.
         21    1    1    2  503  506  0.18772334677E+02 -0.30052044936E+02 -0.15804996239E+03  0.16197319706E+03  0.00000000000E+00 0.  1.
         21    1    1    2  504  502 -0.10089889160E+03  0.60276517034E+02 -0.24531666992E+02  0.12006518029E+03  0.00000000000E+00 0.  1.
         21    1    1    2  505  504 -0.20118818746E+02  0.84409406636E+02 -0.36089808415E+02  0.93979726898E+02  0.00000000000E+00 0. -1.
         21    1    1    2  506  501  0.10224537567E+03 -0.11463387873E+03 -0.63680242323E+02  0.16628354176E+03  0.00000000000E+00 0.  1.
<scales pt_clust_3="35.43340" pt_clust_4="68.72237" pt_clust_5="68.72237" pt_clust_6="169.54333"></scales>
<clustering>
<clus scale="   35.433">  2  3  1 -1</clus>
<clus scale="   68.722">  4  5 -1 -1</clus>
<clus scale="  169.543">  1  6  2 -1</clus>
<clus scale="  169.543">  1  3  2 -1</clus>
</clustering>
</event>
<event>
 6    0  0.9315069E+002  0.1548797E+03  0.7546771E-02  0.1194602E+00
         21   -1    0    0  505  501  0.00000000000E+00  0.00000000000E+00  0.62721137309E+03  0.62721137309E+03  0.00000000000E+00 0. -1.
         21   -1    0    0  506  502 -0.00000000000E+00 -0.00000000000E+00 -0.95069761557E+03  0.95069761557E+03  0.00000000000E+00 0. -1.
         21    1    1    2  503  502 -0.54214247943E+02  0.78247044443E+02 -0.86654856517E+03  0.87176155022E+03  0.00000000000E+00 0. -1.
         21    1    1    2  504  501  0.10853699344E+03 -0.40126153080E+02  0.43040182286E+03  0.44568611851E+03  0.00000000000E+00 0. -1.
         21    1    1    2  505  503  0.55959815786E+02 -0.66026031195E+02  0.11828005408E+03  0.14656435096E+03  0.00000000000E+00 0. -1.
         21    1    1    2  506  504 -0.11028256128E+03  0.27905139832E+02 -0.56195542568E+01  0.11389696898E+03  0.00000000000E+00 0. -1.
<scales pt_clust_3="94.73963" pt_clust_4="14000.00000" pt_clust_5="86.55020" pt_clust_6="154.87969"></scales>
<clustering>
<clus scale="   86.550">  1  5  2 -1</clus>
<clus scale="   94.740">  2  3  1 -1</clus>
<clus scale="  154.880">  2  6  1 -1</clus>
<clus scale="   86.550">  1  3  2 -1</clus>
</clustering>
</event>
<event>
 6    0  0.9315069E+002  0.1295643E+03  0.7546771E-02  0.1228104E+00
         21   -1    0    0  505  501  0.00000000000E+00  0.00000000000E+00  0.51284896891E+03  0.51284896891E+03  0.00000000000E+00 0. -1.
         21   -1    0    0  504  502 -0.00000000000E+00 -0.00000000000E+00 -0.12697612814E+03  0.12697612814E+03  0.00000000000E+00 0. -1.
         21    1    1    2  503  506 -0.47860137585E+02  0.20491264978E+02 -0.23536907130E+02  0.57135546793E+02  0.00000000000E+00 0. -1.
         21    1    1    2  504  503 -0.47457112507E+01  0.85251843786E+02 -0.11171729621E+02  0.86111591478E+02  0.00000000000E+00 0. -1.
         21    1    1    2  505  502  0.95869950389E+02 -0.89807691195E+02  0.42991529107E+03  0.44953712448E+03  0.00000000000E+00 0. -1.
         21    1    1    2  506  501 -0.43264101553E+02 -0.15935417570E+02 -0.93338135587E+01  0.47040834303E+02  0.00000000000E+00 0. -1.
<scales pt_clust_3="35.80773" pt_clust_4="85.38383" pt_clust_5="123.85095" pt_clust_6="35.80773"></scales>
<clustering>
<clus scale="   35.808">  3  6 -1 -1</clus>
<clus scale="   85.384">  2  4  1 -1</clus>
<clus scale="  123.851">  1  5  2 -1</clus>
<clus scale="  123.851">  1  3  2 -1</clus>
</clustering>
</event>
<event>
 6    0  0.9315069E+002  0.1672879E+03  0.7546771E-02  0.1180706E+00
         21   -1    0    0  504  501  0.00000000000E+00  0.00000000000E+00  0.13151172906E+03  0.13151172906E+03  0.00000000000E+00 0.  1.
         21   -1    0    0  503  502 -0.00000000000E+00 -0.00000000000E+00 -0.65574491082E+03  0.65574491082E+03  0.00000000000E+00 0. -1.
         21    1    1    2  503  506  0.39646739725E+02  0.20004780672E+01 -0.33931861772E+03  0.34163282953E+03  0.00000000000E+00 0. -1.
         21    1    1    2  504  505 -0.88225743538E+02 -0.70215433470E+02  0.32719666435E+02  0.11740768924E+03  0.00000000000E+00 0.  1.
         21    1    1    2  505  502 -0.14312522861E+02 -0.57752447255E+02  0.10220728126E+02  0.60370992688E+02  0.00000000000E+00 0.  1.
         21    1    1    2  506  501  0.62891526674E+02  0.12596740266E+03 -0.22785495861E+03  0.26784512843E+03  0.00000000000E+00 0. -1.
<scales pt_clust_3="39.69718" pt_clust_4="38.92613" pt_clust_5="38.92613" pt_clust_6="158.47318"></scales>
<clustering>
<clus scale="   38.926">  4  5 -1 -1</clus>
<clus scale="   39.697">  2  3  1 -1</clus>
<clus scale="  158.473">  2  6  1 -1</clus>
<clus scale="  167.288">  1  3  2 -1</clus>
</clustering>
</event>
<event>
 6    0  0.9315069E+002  0.1021267E+03  0.7546771E-02  0.1275886E+00
         21   -1    0    0  503  501  0.00000000000E+00  0.00000000000E+00  0.85014644674E+03  0.85014644674E+03  0.00000000000E+00 0.  1.
         21   -1    0    0  505  502 -0.00000000000E+00 -0.00000000000E+00 -0.18621570859E+03  0.18621570859E+03  0.00000000000E+00 0. -1.
         21    1    1    2  503  504 -0.16590360072E+02 -0.64935844442E+02  0.32181999599E+03  0.32872482985E+03  0.00000000000E+00 0.  1.
         21    1    1    2  504  506  0.77511367340E+02  0.35472159365E+02  0.41236308669E+03  0.42108146649E+03  0.00000000000E+00 0.  1.
         21    1    1    2  505  501  0.29452220555E+02 -0.22086013365E+02  0.89009375557E+02  0.96321826286E+02  0.00000000000E+00 0.  1.
         21    1    1    2  506  502 -0.90373227822E+02  0.51549698442E+02 -0.15926172008E+03  0.19023403270E+03  0.00000000000E+00 0. -1.
<scales pt_clust_3="74.52427" pt_clust_4="102.12671" pt_clust_5="36.81338" pt_clust_6="14000.00000"></scales>
<clustering>
<clus scale="   36.813">  1  5  2 -1</clus>
<clus scale="   74.524">  1  3  2 -1</clus>
<clus scale="  102.127">  1  4  2 -1</clus>
<clus scale="   36.813">  1  3  2 -1</clus>
</clustering>
</event>
<event>
 6    0  0.9315069E+002  0.8358854E+02  0.7546771E-02  0.1319165E+00
         21   -1    0    0  504  501  0.00000000000E+00  0.00000000000E+00  0.13145872971E+03  0.13145872971E+03  0.00000000000E+00 0. -1.
         21   -1    0    0  506  502 -0.00000000000E+00 -0.00000000000E+00 -0.80333007530E+03  0.80333007530E+03  0.00000000000E+00 0. -1.
         21    1    1    2  503  501 -0.70781603888E+02 -0.60739068280E+02 -0.13453917756E+03  0.16370723919E+03  0.00000000000E+00 0. -1.
         21    1    1    2  504  505 -0.29720789643E+02  0.53817635303E+02  0.10084281353E+03  0.11810561480E+03  0.00000000000E+00 0. -1.
         21    1    1    2  505  502  0.65092643450E+02  0.32772136128E+02 -0.20463127064E+03  0.21722113631E+03  0.00000000000E+00 0. -1.
         21    1    1    2  506  503  0.35409750080E+02 -0.25850703151E+02 -0.43354371093E+03  0.43575481470E+03  0.00000000000E+00 0. -1.
<scales pt_clust_3="83.58854" pt_clust_4="60.54997" pt_clust_5="14000.00000" pt_clust_6="43.84187"></scales>
<clustering>
<clus scale="   43.842">  2  6  1 -1</clus>
<clus scale="   60.550">  1  4  2 -1</clus>
<clus scale="   83.589">  1  3  2 -1</clus>
<clus scale="   60.550">  1  3  2 -1</clus>
</clustering>
</event>
<event>
 6    0  0.9315069E+002  0.8913251E+02  0.7546771E-02  0.1304966E+00
         21   -1    0    0  503  501  0.00000000000E+00  0.00000000000E+00  0.11897829395E+03  0.11897829395E+03  0.00000000000E+00 0.  1.
         21   -1    0    0  505  502 -0.00000000000E+00 -0.00000000000E+00 -0.60916608956E+03  0.60916608956E+03  0.00000000000E+00 0.  1.
         21    1    1    2  503  502 -0.25903034146E+02  0.65142268629E+02 -0.45103196468E+02  0.83359346637E+02  0.00000000000E+00 0.  1.
         21    1    1    2  504  506 -0.11313942675E+03 -0.12043886408E+02 -0.71655744762E+02  0.13446237705E+03  0.00000000000E+00 0.  1.
         21    1    1    2  505  504  0.76298213396E+02 -0.44414893034E+02 -0.42160004364E+03  0.43074435213E+03  0.00000000000E+00 0.  1.
         21    1    1    2  506  501  0.62744247500E+02 -0.86834891869E+01  0.48171189264E+02  0.79578307685E+02  0.00000000000E+00 0.  1.
<scales pt_clust_3="62.26461" pt_clust_4="14000.00000" pt_clust_5="89.13251" pt_clust_6="63.34227"></scales>
<clustering>
<clus scale="   63.342">  1  6  2 -1</clus>
<clus scale="   62.265">  1  3  2 -1</clus>
<clus scale="   89.133">  2  5  1 -1</clus>
<clus scale="   63.342">  1  3  2 -1</clus>
</clustering>
</event>
<event>
 6    0  0.9315069E+002  0.9263896E+02  0.7546771E-02  0.1296584E+00
         21   -1    0    0  504  501  0.00000000000E+00  0.00000000000E+00  0.74139396564E+02  0.74139396564E+02  0.00000000000E+00 0.  1.
         21   -1    0    0  505  502 -0.00000000000E+00 -0.00000000000E+00 -0.66826368667E+03  0.66826368667E+03  0.00000000000E+00 0. -1.
         21    1    1    2  503  502 -0.16950491663E+02 -0.41519804940E+02 -0.90989355785E+02  0.10144099879E+03  0.00000000000E+00 0. -1.
         21    1    1    2  504  503 -0.34008021365E+02 -0.14980970862E+02 -0.31238753150E+02  0.48547241976E+02  0.00000000000E+00 0.  1.
         21    1    1    2  505  506 -0.58866846839E+02 -0.14734058500E+02 -0.45660553509E+03  0.46062024794E+03  0.00000000000E+00 0. -1.
         21    1    1    2  506  501  0.10982535987E+03  0.71234834302E+02 -0.15290646077E+02  0.13179459452E+03  0.00000000000E+00 0.  1.
<scales pt_clust_3="47.02431" pt_clust_4="37.16147" pt_clust_5="92.63896" pt_clust_6="14000.00000"></scales>
<clustering>
<clus scale="   37.161">  1  4  2 -1</clus>
<clus scale="   47.024">  2  3  1 -1</clus>
<clus scale="   92.639">  2  5  1 -1</clus>
<clus scale="   37.161">  1  3  2 -1</clus>
</clustering>
</event>
<event>
 6    0  0.9315069E+002  0.1277260E+03  0.7546771E-02  0.1230869E+00
         21   -1    0    0  505  501  0.00000000000E+00  0.00000000000E+00  0.45812962490E+03  0.45812962490E+03  0.00000000000E+00 0.  1.
         21   -1    0    0  503  502 -0.00000000000E+00 -0.00000000000E+00 -0.29352246658E+03  0.29352246658E+03  0.00000000000E+00 0. -1.
         21    1    1    2  503  504 -0.39383319192E+02 -0.11819754512E+02 -0.82991573163E+02  0.92619402089E+02  0.00000000000E+00 0. -1.
         21    1    1    2  504  501 -0.74880989981E+01  0.11847766501E+03  0.42509228898E+03  0.44135754540E+03  0.00000000000E+00 0.  1.
         21    1    1    2  505  506  0.75569521236E+01 -0.38831241937E+02 -0.26721518570E+02  0.47739003241E+02  0.00000000000E+00 0. -1.
         21    1    1    2  506  502  0.39314466067E+02 -0.67826668564E+02 -0.15077203893E+03  0.16993614075E+03  0.00000000000E+00 0. -1.
<scales pt_clust_3="41.11876" pt_clust_4="118.35652" pt_clust_5="34.10949" pt_clust_6="34.10949"></scales>
<clustering>
<clus scale="   34.109">  5  6 -1 -1</clus>
<clus scale="   41.119">  2  3  1 -1</clus>
<clus scale="  118.357">  1  4  2 -1</clus>
<clus scale="  118.357">  1  3  2 -1</clus>
</clustering>
</event>
<event>
 6    0  0.9315069E+002  0.8888341E+02  0.7546771E-02  0.1305578E+00
         21   -1    0    0  505  501  0.00000000000E+00  0.00000000000E+00  0.30568234172E+03  0.30568234172E+03  0.00000000000E+00 0.  1.
         21   -1    0    0  503  502 -0.00000000000E+00 -0.00000000000E+00 -0.16062728633E+04  0.16062728633E+04  0.00000000000E+00 0. -1.
         21    1    1    2  503  504  0.93324955147E+02  0.54863500064E+02  0.15413406929E+02  0.10934863513E+03  0.00000000000E+00 0.  1.
         21    1    1    2  504  501 -0.10363276412E+02 -0.29955437175E+02  0.23479294265E+03  0.23692288120E+03  0.00000000000E+00 0.  1.
         21    1    1    2  505  506 -0.98311466707E+02  0.15232981437E+02 -0.34334988857E+03  0.35747214464E+03  0.00000000000E+00 0.  1.
         21    1    1    2  506  502  0.15349787971E+02 -0.40141044326E+02 -0.12074469826E+04  0.12082115440E+04  0.00000000000E+00 0. -1.
<scales pt_clust_3="88.88341" pt_clust_4="31.69741" pt_clust_5="14000.00000" pt_clust_6="43.10886"></scales>
<clustering>
<clus scale="   31.697">  1  4  2 -1</clus>
<clus scale="   43.109">  2  6  1 -1</clus>
<clus scale="   88.883">  1  3  2 -1</clus>
<clus scale="   31.697">  1  3  2 -1</clus>
</clustering>
</event>
<event>
 6    0  0.9315069E+002  0.1382746E+03  0.7546771E-02  0.1215670E+00
         21   -1    0    0  506  501  0.00000000000E+00  0.00000000000E+00  0.29386738681E+03  0.29386738681E+03  0.00000000000E+00 0.  1.
         21   -1    0    0  505  502 -0.00000000000E+00 -0.00000000000E+00 -0.31915907527E+03  0.31915907527E+03  0.00000000000E+00 0.  1.
         21    1    1    2  503  504  0.50736131087E+02  0.10896208762E+03 -0.25909441399E+02  0.12295605187E+03  0.00000000000E+00 0.  1.
         21    1    1    2  504  502  0.56127660256E+02 -0.13938717589E+02 -0.60267590529E+01  0.58145712813E+02  0.00000000000E+00 0.  1.
         21    1    1    2  505  501  0.23217356479E+02 -0.19234965756E+02 -0.18543861196E+03  0.18787364998E+03  0.00000000000E+00 0.  1.
         21    1    1    2  506  503 -0.13008114782E+03 -0.75788404277E+02  0.19208312395E+03  0.24405104742E+03  0.00000000000E+00 0.  1.
<scales pt_clust_3="14000.00000" pt_clust_4="64.48935" pt_clust_5="30.15012" pt_clust_6="138.27457"></scales>
<clustering>
<clus scale="   30.150">  2  5  1 -1</clus>
<clus scale="   64.489">  2  4  1 -1</clus>
<clus scale="  138.275">  1  6  2 -1</clus>
<clus scale="  138.275">  1  3  2 -1</clus>
</clustering>
</event>
<event>
 6    0  0.3675178E+003  0.1060989E+03  0.7546771E-02  0.1267970E+00
         21   -1    0    0  504  501  0.00000000000E+00  0.00000000000E+00  0.80046763625E+03  0.80046763625E+03  0.00000000000E+00 0.  1.
         21   -1    0    0  503  502 -0.00000000000E+00 -0.00000000000E+00 -0.40118182063E+03  0.40118182063E+03  0.00000000000E+00 0.  1.
         21    1    1    2  503  501 -0.16237206186E+02 -0.28344875648E+02  0.24301147348E+02  0.40713936221E+02  0.00000000000E+00 0. -1.
         21    1    1    2  504  506 -0.99253694797E+02  0.58724041624E+02  0.72688311448E+03  0.73597477613E+03  0.00000000000E+00 0.  1.
         21    1    1    2  505  502  0.44365004852E+02 -0.41217276190E+02 -0.34765406946E+03  0.35288874950E+03  0.00000000000E+00 0.  1.
         21    1    1    2  506  505  0.71125896131E+02  0.10838110213E+02 -0.42443767374E+01  0.72071995028E+02  0.00000000000E+00 0.  1.
<scales pt_clust_3="32.66617" pt_clust_4="14000.00000" pt_clust_5="60.58204" pt_clust_6="106.09886"></scales>
<clustering>
<clus scale="   32.666">  1  3  2 -1</clus>
<clus scale="   60.582">  2  5  1 -1</clus>
<clus scale="  106.099">  2  6  1 -1</clus>
<clus scale="   32.666">  1  3  2 -1</clus>
</clustering>
</event>
<event>
 6    0  0.9315069E+002  0.9885971E+02  0.7546771E-02  0.1282712E+00
         21   -1    0    0  504  501  0.00000000000E+00  0.00000000000E+00  0.14053805683E+04  0.14053805683E+04  0.00000000000E+00 0. -1.
         21   -1    0    0  506  502 -0.00000000000E+00 -0.00000000000E+00 -0.35705383365E+03  0.35705383365E+03  0.00000000000E+00 0.  1.
         21    1    1    2  503  502 -0.24862527644E+02 -0.60026210471E+02 -0.18016898975E+02  0.67423288803E+02  0.00000000000E+00 0.  1.
         21    1    1    2  504  503  0.53036661478E+02  0.21373710105E+02  0.13460499760E+04  0.13472639908E+04  0.00000000000E+00 0. -1.
         21    1    1    2  505  501  0.35507026386E+02 -0.61188509859E+02 -0.42251039920E+02  0.82401049969E+02  0.00000000000E+00 0.  1.
         21    1    1    2  506  505 -0.63681160221E+02  0.99841010224E+02 -0.23745530244E+03  0.26534607241E+03  0.00000000000E+00 0.  1.
<scales pt_clust_3="51.09870" pt_clust_4="57.18149" pt_clust_5="14000.00000" pt_clust_6="98.85971"></scales>
<clustering>
<clus scale="   57.181">  1  4  2 -1</clus>
<clus scale="   51.099">  1  3  2 -1</clus>
<clus scale="   98.860">  2  6  1 -1</clus>
<clus scale="   57.181">  1  3  2 -1</clus>
</clustering>
</event>
<event>
 6    0  0.9315069E+002  0.1341739E+03  0.7546771E-02  0.1221391E+00
         21   -1    0    0  504  501  0.00000000000E+00  0.00000000000E+00  0.29235966699E+03  0.29235966699E+03  0.00000000000E+00 0.  1.
         21   -1    0    0  503  502 -0.00000000000E+00 -0.00000000000E+00 -0.60627948243E+03  0.60627948243E+03  0.00000000000E+00 0. -1.
         21    1    1    2  503  505  0.43017488794E+02 -0.43664111652E+02 -0.10276026621E+03  0.11965254406E+03  0.00000000000E+00 0. -1.
         21    1    1    2  504  502 -0.18419406164E+03  0.58797344340E+02 -0.30935025547E+03  0.36480427712E+03  0.00000000000E+00 0. -1.
         21    1    1    2  505  506  0.97767240538E+02  0.52336366333E+02 -0.13083629081E+03  0.17150995177E+03  0.00000000000E+00 0.  1.
         21    1    1    2  506  501  0.43409332309E+02 -0.67469599022E+02  0.22902699705E+03  0.24267237647E+03  0.00000000000E+00 0.  1.
<scales pt_clust_3="61.29485" pt_clust_4="134.17385" pt_clust_5="14000.00000" pt_clust_6="81.05491"></scales>
<clustering>
<clus scale="   61.295">  2  3  1 -1</clus>
<clus scale="   81.055">  1  6  2 -1</clus>
<clus scale="  134.174">  2  4  1 -1</clus>
<clus scale="   81.055">  1  3  2 -1</clus>
</clustering>
</event>
<event>
 6    0  0.9315069E+002  0.1507409E+03  0.7546771E-02  0.1199566E+00
         21   -1    0    0  504  501  0.00000000000E+00  0.00000000000E+00  0.27539623860E+04  0.27539623860E+04  0.00000000000E+00 0. -1.
         21   -1    0    0  505  502 -0.00000000000E+00 -0.00000000000E+00 -0.37484042196E+02  0.37484042196E+02  0.00000000000E+00 0.  1.
         21    1    1    2  503  501 -0.13720008034E+03 -0.68943404227E+02  0.21264701650E+04  0.21320066646E+04  0.00000000000E+00 0. -1.
         21    1    1    2  504  502  0.61807456955E+02  0.15843084153E+03  0.37197722008E+03  0.40900800181E+03  0.00000000000E+00 0.  1.
         21    1    1    2  505  506  0.20493642163E+02 -0.54004338572E+02  0.10654541958E+03  0.12119564509E+03  0.00000000000E+00 0. -1.
         21    1    1    2  506  503  0.54898981221E+02 -0.35483098731E+02  0.11148553907E+03  0.12923611668E+03  0.00000000000E+00 0. -1.
<scales pt_clust_3="14000.00000" pt_clust_4="150.74091" pt_clust_5="36.24305" pt_clust_6="123.20133"></scales>
<clustering>
<clus scale="   36.243">  5  6 -1 -1</clus>
<clus scale="  123.201">  2  5  1 -1</clus>
<clus scale="  150.741">  2  4  1 -1</clus>
<clus scale="  150.741">  1  3  2 -1</clus>
</clustering>
</event>
<event>
 6    0  0.9315069E+002  0.1208812E+03  0.7546771E-02  0.1241650E+00
         21   -1    0    0  506  501  0.00000000000E+00  0.00000000000E+00  0.89060035828E+03  0.89060035828E+03  0.00000000000E+00 0. -1.
         21   -1    0    0  505  502 -0.00000000000E+00 -0.00000000000E+00 -0.99089542264E+02  0.99089542264E+02  0.00000000000E+00 0.  1.
         21    1    1    2  503  501 -0.31626845981E+02  0.21499777828E+02  0.46739981742E+03  0.46896171183E+03  0.00000000000E+00 0. -1.
         21    1    1    2  504  502  0.57835068288E+02  0.76081964870E+01  0.11467655637E+03  0.12866037602E+03  0.00000000000E+00 0. -1.
         21    1    1    2  505  503 -0.11110954751E+03 -0.17147623517E+01 -0.46928841240E+02  0.12062581854E+03  0.00000000000E+00 0.  1.
         21    1    1    2  506  504  0.84901325203E+02 -0.27393211963E+02  0.25636328347E+03  0.27144199416E+03  0.00000000000E+00 0. -1.
<scales pt_clust_3="38.24262" pt_clust_4="32.80898" pt_clust_5="113.86853" pt_clust_6="32.80898"></scales>
<clustering>
<clus scale="   32.809">  4  6 -1 -1</clus>
<clus scale="   38.243">  1  3  2 -1</clus>
<clus scale="  113.869">  2  5  1 -1</clus>
<clus scale="   38.243">  1  3  2 -1</clus>
</clustering>
</event>
<event>
 6    0  0.9315069E+002  0.1221856E+03  0.7546771E-02  0.1239534E+00
         21   -1    0    0  506  501  0.00000000000E+00  0.00000000000E+00  0.67094106045E+03  0.67094106045E+03  0.00000000000E+00 0.  1.
         21   -1    0    0  505  502 -0.00000000000E+00 -0.00000000000E+00 -0.38362141913E+02  0.38362141913E+02  0.00000000000E+00 0.  1.
         21    1    1    2  503  502 -0.56367101062E+02 -0.20976296392E+02  0.11160136377E+03  0.12677586319E+03  0.00000000000E+00 0.  1.
         21    1    1    2  504  503 -0.49993430415E+02 -0.10934948295E+02  0.33559599097E+02  0.61197735828E+02  0.00000000000E+00 0.  1.
         21    1    1    2  505  501 -0.10414182645E+02  0.46111659952E+02  0.51889957546E+02  0.70194786685E+02  0.00000000000E+00 0.  1.
         21    1    1    2  506  504  0.11677471412E+03 -0.14200415264E+02  0.43552799813E+03  0.45113481666E+03  0.00000000000E+00 0.  1.
<scales pt_clust_3="40.53970" pt_clust_4="40.53970" pt_clust_5="47.27304" pt_clust_6="114.00808"></scales>
<clustering>
<clus scale="   40.540">  3  4 -1 -1</clus>
<clus scale="   47.273">  2  5  1 -1</clus>
<clus scale="  114.008">  1  6  2 -1</clus>
<clus scale="  114.008">  1  3  2 -1</clus>
</clustering>
</event>
<event>
 6    0  0.9315069E+002  0.1358886E+03  0.7546771E-02  0.1218971E+00
         21   -1    0    0  504  501  0.00000000000E+00  0.00000000000E+00  0.21309209486E+03  0.21309209486E+03  0.00000000000E+00 0. -1.
         21   -1    0    0  505  502 -0.00000000000E+00 -0.00000000000E+00 -0.60413829010E+03  0.60413829010E+03  0.00000000000E+00 0. -1.
         21    1    1    2  503  501 -0.37580117213E+02  0.13810511276E+02  0.28006889501E+02  0.48860835963E+02  0.00000000000E+00 0. -1.
         21    1    1    2  504  506 -0.27605595985E+02  0.55577381994E+02  0.13538023970E+03  0.14892522829E+03  0.00000000000E+00 0. -1.
         21    1    1    2  505  503  0.20477259233E+01  0.56150172468E+02 -0.98762426693E+01  0.57048884466E+02  0.00000000000E+00 0.  1.
         21    1    1    2  506  502  0.63137987275E+02 -0.12553806574E+03 -0.54455708177E+03  0.56239543623E+03  0.00000000000E+00 0. -1.
<scales pt_clust_3="40.03743" pt_clust_4="135.88862" pt_clust_5="58.09411" pt_clust_6="14000.00000"></scales>
<clustering>
<clus scale="   40.037">  1  3  2 -1</clus>
<clus scale="   58.094">  1  5  2 -1</clus>
<clus scale="  135.889">  1  4  2 -1</clus>
<clus scale="   40.037">  1  3  2 -1</clus>
</clustering>
</event>
<event>
 6    0  0.9315069E+002  0.1454763E+03  0.7546771E-02  0.1206145E+00
         21   -1    0    0  505  501  0.00000000000E+00  0.00000000000E+00  0.19177510684E+03  0.19177510684E+03  0.00000000000E+00 0.  1.
         21   -1    0    0  504  502 -0.00000000000E+00 -0.00000000000E+00 -0.21404756091E+03  0.21404756091E+03  0.00000000000E+00 0.  1.
         21    1    1    2  503  502  0.11613051728E+03 -0.89387424017E+02 -0.80568263173E+02  0.16723532416E+03  0.00000000000E+00 0.  1.
         21    1    1    2  504  501 -0.44779560496E+02 -0.28914279882E+02 -0.36956881202E+02  0.64861819952E+02  0.00000000000E+00 0.  1.
         21    1    1    2  505  506 -0.22910641890E+02  0.78617392135E+02  0.62795985501E+02  0.10319364153E+03  0.00000000000E+00 0.  1.
         21    1    1    2  506  503 -0.48440314892E+02  0.39684311764E+02  0.32456704802E+02  0.70531882108E+02  0.00000000000E+00 0.  1.
<scales pt_clust_3="138.35503" pt_clust_4="53.30333" pt_clust_5="39.31483" pt_clust_6="39.31483"></scales>
<clustering>
<clus scale="   39.315">  5  6 -1 -1</clus>
<clus scale="   53.303">  2  4  1 -1</clus>
<clus scale="  138.355">  2  3  1 -1</clus>
<clus scale="  145.476">  1  3  2 -1</clus>
</clustering>
</event>
<event>
 6    0  0.9315069E+002  0.1326713E+03  0.7546771E-02  0.1223545E+00
         21   -1    0    0  503  501  0.00000000000E+00  0.00000000000E+00  0.33238196252E+03  0.33238196252E+03  0.00000000000E+00 0. -1.
         21   -1    0    0  506  502 -0.00000000000E+00 -0.00000000000E+00 -0.32405827627E+04  0.32405827627E+04  0.00000000000E+00 0. -1.
         21    1    1    2  503  504 -0.11710730017E+03  0.63443323029E+02  0.30769728239E+03  0.33528613538E+03  0.00000000000E+00 0. -1.
         21    1    1    2  504  505  0.10049218100E+02 -0.64696371621E+02 -0.24789624931E+04  0.24798269394E+04  0.00000000000E+00 0. -1.
         21    1    1    2  505  502  0.22529730003E+02 -0.21301391881E+02 -0.55611819975E+03  0.55698185798E+03  0.00000000000E+00 0. -1.
         21    1    1    2  506  501  0.84528352063E+02  0.22554440473E+02 -0.18081738977E+03  0.20086979248E+03  0.00000000000E+00 0. -1.
<scales pt_clust_3="14000.00000" pt_clust_4="132.67129" pt_clust_5="31.00545" pt_clust_6="88.66285"></scales>
<clustering>
<clus scale="   31.005">  2  5  1 -1</clus>
<clus scale="   88.663">  2  6  1 -1</clus>
<clus scale="  132.671">  2  4  1 -1</clus>
<clus scale="  132.671">  1  3  2 -1</clus>
</clustering>
</event>
<event>
 6    0  0.9315069E+002  0.7772638E+02  0.7546771E-02  0.1335630E+00
         21   -1    0    0  504  501  0.00000000000E+00  0.00000000000E+00  0.26730887401E+03  0.26730887401E+03  0.00000000000E+00 0.  1.
         21   -1    0    0  503  502 -0.00000000000E+00 -0.00000000000E+00 -0.11076232528E+03  0.11076232528E+03  0.00000000000E+00 0.  1.
         21    1    1    2  503  506  0.46615319226E+02 -0.19956695552E+01 -0.42579847210E+02  0.63166558177E+02  0.00000000000E+00 0.  1.
         21    1    1    2  504  505 -0.72265159430E+02  0.89886445887E+02  0.51067195118E+02  0.12613359917E+03  0.00000000000E+00 0.  1.
         21    1    1    2  505  502 -0.71292197830E+00 -0.58932000018E+02  0.33696617054E+02  0.67889254560E+02  0.00000000000E+00 0.  1.
         21    1    1    2  506  501  0.26362762182E+02 -0.28958776313E+02  0.11436258377E+03  0.12088178738E+03  0.00000000000E+00 0. -1.
<scales pt_clust_3="48.59203" pt_clust_4="77.72638" pt_clust_5="14000.00000" pt_clust_6="39.16128"></scales>
<clustering>
<clus scale="   39.161">  1  6  2 -1</clus>
<clus scale="   48.592">  2  3  1 -1</clus>
<clus scale="   77.726">  1  4  2 -1</clus>
<clus scale="   39.161">  1  3  2 -1</clus>
</clustering>
</event>
<event>
 6    0  0.9315069E+002  0.9646527E+02  0.7546771E-02  0.1287910E+00
         21   -1    0    0  504  501  0.00000000000E+00  0.00000000000E+00  0.26101920240E+03  0.26101920240E+03  0.00000000000E+00 0.  1.
         21   -1    0    0  506  502 -0.00000000000E+00 -0.00000000000E+00 -0.52446708952E+03  0.52446708952E+03  0.00000000000E+00 0. -1.
         21    1    1    2  503  502  0.58225266771E+02  0.10218869310E+02 -0.29973987543E+03  0.30551366566E+03  0.00000000000E+00 0. -1.
         21    1    1    2  504  503  0.78992277789E+02  0.10203520919E+03  0.18186970028E+03  0.22299675276E+03  0.00000000000E+00 0.  1.
         21    1    1    2  505  501 -0.11964268868E+02 -0.54498810152E+02  0.86790179119E+00  0.55803380642E+02  0.00000000000E+00 0.  1.
         21    1    1    2  506  505 -0.12525327569E+03 -0.57755268351E+02 -0.14644561375E+03  0.20117249285E+03  0.00000000000E+00 0. -1.
<scales pt_clust_3="58.85559" pt_clust_4="96.46527" pt_clust_5="55.79663" pt_clust_6="14000.00000"></scales>
<clustering>
<clus scale="   55.797">  1  5  2 -1</clus>
<clus scale="   58.856">  2  3  1 -1</clus>
<clus scale="   96.465">  1  4  2 -1</clus>
<clus scale="   55.797">  1  3  2 -1</clus>
</clustering>
</event>
<event>
 6    0  0.9315069E+002  0.7473192E+02  0.7546771E-02  0.1344703E+00
         21   -1    0    0  503  501  0.00000000000E+00  0.00000000000E+00  0.54493885097E+03  0.54493885097E+03  0.00000000000E+00 0. -1.
         21   -1    0    0  504  502 -0.00000000000E+00 -0.00000000000E+00 -0.70680846863E+02  0.70680846863E+02  0.00000000000E+00 0. -1.
         21    1    1    2  503  505 -0.54967328607E+02 -0.50019760746E+02  0.26654469423E+03  0.27671186765E+03  0.00000000000E+00 0. -1.
         21    1    1    2  504  501  0.84287636157E+02  0.15436278188E+02  0.97744987398E+02  0.12998756423E+03  0.00000000000E+00 0. -1.
         21    1    1    2  505  506 -0.73294362285E+02 -0.79703074394E+01  0.12571054701E+03  0.14573513980E+03  0.00000000000E+00 0.  1.
         21    1    1    2  506  502  0.43974054735E+02  0.42553789998E+02 -0.15742224530E+02  0.63185126147E+02  0.00000000000E+00 0. -1.
<scales pt_clust_3="14000.00000" pt_clust_4="74.73192" pt_clust_5="59.46226" pt_clust_6="61.19267"></scales>
<clustering>
<clus scale="   61.193">  2  6  1 -1</clus>
<clus scale="   59.462">  2  5  1 -1</clus>
<clus scale="   74.732">  2  4  1 -1</clus>
<clus scale="   74.732">  1  3  2 -1</clus>
</clustering>
</event>
<event>
 6    0  0.9315069E+002  0.1334836E+03  0.7546771E-02  0.1222376E+00
         21   -1    0    0  504  501  0.00000000000E+00  0.00000000000E+00  0.13333537292E+03  0.13333537292E+03  0.00000000000E+00 0. -1.
         21   -1    0    0  506  502 -0.00000000000E+00 -0.00000000000E+00 -0.11700855764E+04  0.11700855764E+04  0.00000000000E+00 0.  1.
         21    1    1    2  503  501  0.71460481500E+02 -0.11572335143E+03  0.62190888346E+02  0.14955333856E+03  0.00000000000E+00 0. -1.
         21    1    1    2  504  505 -0.21659890551E+02 -0.23843141495E+02  0.47338133148E+00  0.32215995172E+02  0.00000000000E+00 0. -1.
         21    1    1    2  505  502 -0.39594860878E+02  0.83591576479E+02 -0.19904622123E+03  0.21948736377E+03  0.00000000000E+00 0.  1.
         21    1    1    2  506  503 -0.10205730070E+02  0.55974916443E+02 -0.90036825195E+03  0.90216425185E+03  0.00000000000E+00 0.  1.
<scales pt_clust_3="133.48360" pt_clust_4="32.21252" pt_clust_5="14000.00000" pt_clust_6="56.74781"></scales>
<clustering>
<clus scale="   32.213">  1  4  2 -1</clus>
<clus scale="   56.748">  2  6  1 -1</clus>
<clus scale="  133.484">  1  3  2 -1</clus>
<clus scale="   32.213">  1  3  2 -1</clus>
</clustering>
</event>
<event>
 6    0  0.9315069E+002  0.1154841E+03  0.7546771E-02  0.1250738E+00
         21   -1    0    0  505  501  0.00000000000E+00  0.00000000000E+00  0.12546523919E+04  0.12546523919E+04  0.00000000000E+00 0. -1.
         21   -1    0    0  506  502 -0.00000000000E+00 -0.00000000000E+00 -0.53979842298E+02  0.53979842298E+02  0.00000000000E+00 0. -1.
         21    1    1    2  503  502  0.19981487710E+02  0.25696121464E+02  0.47164253022E+02  0.57306345831E+02  0.00000000000E+00 0. -1.
         21    1    1    2  504  503  0.38716116177E+02 -0.30861780019E+02  0.35569118965E+02  0.60963508279E+02  0.00000000000E+00 0. -1.
         21    1    1    2  505  504 -0.10556543907E+03 -0.56754696239E+02  0.11051841329E+04  0.11116641242E+04  0.00000000000E+00 0. -1.
         21    1    1    2  506  501  0.46867835183E+02  0.61920354794E+02  0.12755044732E+02  0.78698255880E+02  0.00000000000E+00 0. -1.
<scales pt_clust_3="32.55074" pt_clust_4="50.12697" pt_clust_5="115.48410" pt_clust_6="14000.00000"></scales>
<clustering>
<clus scale="   32.551">  2  3  1 -1</clus>
<clus scale="   50.127">  2  4  1 -1</clus>
<clus scale="  115.484">  1  5  2 -1</clus>
<clus scale="  115.484">  1  3  2 -1</clus>
</clustering>
</event>
<event>
 6    0  0.9315069E+002  0.1279105E+03  0.7546771E-02  0.1230590E+00
         21   -1    0    0  505  501  0.00000000000E+00  0.00000000000E+00  0.57090932920E+03  0.57090932920E+03  0.00000000000E+00 0.  1.
         21   -1    0    0  503  502 -0.00000000000E+00 -0.00000000000E+00 -0.14957629410E+03  0.14957629410E+03  0.00000000000E+00 0.  1.
         21    1    1    2  503  506 -0.23771443948E+02 -0.54769257242E+02 -0.23212729677E+02  0.64059221860E+02  0.00000000000E+00 0.  1.
         21    1    1    2  504  501  0.41903173297E+02  0.39684928715E+02  0.45904185072E+02  0.73742550177E+02  0.00000000000E+00 0. -1.
         21    1    1    2  505  502 -0.36994768741E+02  0.76561525006E+02  0.47517366739E+03  0.48272175651E+03  0.00000000000E+00 0.  1.
         21    1    1    2  506  504  0.18863039393E+02 -0.61477196479E+02 -0.76532087681E+02  0.99962094751E+02  0.00000000000E+00 0.  1.
<scales pt_clust_3="56.32236" pt_clust_4="57.71282" pt_clust_5="113.77369" pt_clust_6="56.32236"></scales>
<clustering>
<clus scale="   56.322">  3  6 -1 -1</clus>
<clus scale="   57.713">  1  4  2 -1</clus>
<clus scale="  113.774">  1  5  2 -1</clus>
<clus scale="   57.713">  1  3  2 -1</clus>
</clustering>
</event>
<event>
 6    0  0.9315069E+002  0.8837983E+02  0.7546771E-02  0.1306823E+00
         21   -1    0    0  503  501  0.00000000000E+00  0.00000000000E+00  0.28346800718E+04  0.28346800718E+04  0.00000000000E+00 0.  1.
         21   -1    0    0  505  502 -0.00000000000E+00 -0.00000000000E+00 -0.36062433681E+02  0.36062433681E+02  0.00000000000E+00 0. -1.
         21    1    1    2  503  506  0.55427375767E+02  0.65241301992E+02  0.13154239051E+03  0.15694592053E+03  0.00000000000E+00 0. -1.
         21    1    1    2  504  501 -0.16824937234E+02 -0.30716392589E+02  0.24374321703E+04  0.24376837695E+04  0.00000000000E+00 0.  1.
         21    1    1    2  505  504 -0.57201299169E+02 -0.70593073767E+02  0.21423351262E+03  0.23270446627E+03  0.00000000000E+00 0. -1.
         21    1    1    2  506  502  0.18598860635E+02  0.36068164364E+02  0.15409564738E+02  0.43408349231E+02  0.00000000000E+00 0. -1.
<scales pt_clust_3="14000.00000" pt_clust_4="35.02250" pt_clust_5="88.37983" pt_clust_6="37.98842"></scales>
<clustering>
<clus scale="   35.022">  1  4  2 -1</clus>
<clus scale="   37.988">  2  6  1 -1</clus>
<clus scale="   88.380">  2  5  1 -1</clus>
<clus scale="   35.022">  1  3  2 -1</clus>
</clustering>
</event>
<event>
 6    0  0.9315069E+002  0.1005023E+03  0.7546771E-02  0.1279243E+00
         21   -1    0    0  502  501  0.00000000000E+00  0.00000000000E+00  0.31519360408E+03  0.31519360408E+03  0.00000000000E+00 0.  1.
         21   -1    0    0  505  502 -0.00000000000E+00 -0.00000000000E+00 -0.61211998438E+02  0.61211998438E+02  0.00000000000E+00 0.  1.
         21    1    1    2  503  504  0.70638115149E+02  0.37976249059E+02  0.92527178315E+02  0.12244679470E+03  0.00000000000E+00 0.  1.
         21    1    1    2  504  501  0.32232656459E+02 -0.55233005615E+02  0.11267700568E+03  0.12955978026E+03  0.00000000000E+00 0.  1.
         21    1    1    2  505  506 -0.71123276864E+02 -0.48977086150E+01  0.14629456970E+02  0.72777256563E+02  0.00000000000E+00 0.  1.
         21    1    1    2  506  503 -0.31747494744E+02  0.22154465171E+02  0.34147964675E+02  0.51621770998E+02  0.00000000000E+00 0.  1.
<scales pt_clust_3="88.79761" pt_clust_4="63.95021" pt_clust_5="34.68689" pt_clust_6="34.68689"></scales>
<clustering>
<clus scale="   34.687">  5  6 -1 -1</clus>
<clus scale="   63.950">  1  4  2 -1</clus>
<clus scale="   88.798">  1  3  2 -1</clus>
<clus scale="   63.950">  1  3  2 -1</clus>
</clustering>
</event>
<event>
 6    0  0.9315069E+002  0.1744649E+03  0.7546771E-02  0.1173270E+00
         21   -1    0    0  506  501  0.00000000000E+00  0.00000000000E+00  0.50994454256E+03  0.50994454256E+03  0.00000000000E+00 0.  1.
         21   -1    0    0  505  502 -0.00000000000E+00 -0.00000000000E+00 -0.95497760825E+02  0.95497760825E+02  0.00000000000E+00 0.  1.
         21    1    1    2  503  502 -0.81352617690E+02  0.12231303743E+03  0.33356241318E+03  0.36447580306E+03  0.00000000000E+00 0.  1.
         21    1    1    2  504  501  0.55891837081E+02 -0.80305340255E+02  0.47869294879E+02  0.10892343420E+03  0.00000000000E+00 0.  1.
         21    1    1    2  505  504  0.69572094189E+01 -0.69381894046E+02 -0.17304699328E+02  0.71844990105E+02  0.00000000000E+00 0.  1.
         21    1    1    2  506  503  0.18503571191E+02  0.27374196875E+02  0.50319772998E+02  0.60198076016E+02  0.00000000000E+00 0. -1.
<scales pt_clust_3="158.27585" pt_clust_4="61.89035" pt_clust_5="61.89035" pt_clust_6="33.04132"></scales>
<clustering>
<clus scale="   33.041">  1  6  2 -1</clus>
<clus scale="   61.890">  4  5 -1 -1</clus>
<clus scale="  158.276">  1  3  2 -1</clus>
<clus scale="   33.041">  1  3  2 -1</clus>
</clustering>
</event>
<event>
 6    0  0.9315069E+002  0.1233848E+03  0.7546771E-02  0.1237615E+00
         21   -1    0    0  503  501  0.00000000000E+00  0.00000000000E+00  0.13927416180E+03  0.13927416180E+03  0.00000000000E+00 0.  1.
         21   -1    0    0  506  502 -0.00000000000E+00 -0.00000000000E+00 -0.42447842187E+03  0.42447842187E+03  0.00000000000E+00 0.  1.
         21    1    1    2  503  504  0.41133464618E+02  0.55933336106E+02  0.66593906119E+00  0.69433014296E+02  0.00000000000E+00 0.  1.
         21    1    1    2  504  505 -0.67436097501E+02 -0.82472542815E+02  0.18807311177E+01  0.10654991654E+03  0.00000000000E+00 0.  1.
         21    1    1    2  505  502 -0.62706951843E+00 -0.72706540933E+02  0.94126416371E+01  0.73315974611E+02  0.00000000000E+00 0.  1.
         21    1    1    2  506  501  0.26929702401E+02  0.99245747642E+02 -0.29716357188E+03  0.31445367823E+03  0.00000000000E+00 0.  1.
<scales pt_clust_3="69.42982" pt_clust_4="48.95206" pt_clust_5="48.95206" pt_clust_6="108.22545"></scales>
<clustering>
<clus scale="   48.952">  4  5 -1 -1</clus>
<clus scale="   69.430">  1  3  2 -1</clus>
<clus scale="  108.225">  2  6  1 -1</clus>
<clus scale="   69.430">  1  3  2 -1</clus>
</clustering>
</event>
<event>
 6    0  0.9315069E+002  0.7083719E+02  0.7546771E-02  0.1357269E+00
         21   -1    0    0  506  501  0.00000000000E+00  0.00000000000E+00  0.18920990244E+04  0.18920990244E+04  0.00000000000E+00 0. -1.
         21   -1    0    0  505  502 -0.00000000000E+00 -0.00000000000E+00 -0.74986499733E+02  0.74986499733E+02  0.00000000000E+00 0.  1.
         21    1    1    2  503  504 -0.60944412877E+02 -0.68285682470E+02  0.24642279875E+03  0.26287135948E+03  0.00000000000E+00 0. -1.
         21    1    1    2  504  502 -0.34376476754E+02  0.44885087739E+02 -0.47466729758E+02  0.73820753784E+02  0.00000000000E+00 0.  1.
         21    1    1    2  505  501  0.26360427524E+02  0.53213981995E+02  0.16613627892E+03  0.17643090203E+03  0.00000000000E+00 0. -1.
         21    1    1    2  506  503  0.68960462108E+02 -0.29813387263E+02  0.14520201767E+04  0.14539625088E+04  0.00000000000E+00 0. -1.
<scales pt_clust_3="70.83719" pt_clust_4="56.53683" pt_clust_5="70.72649" pt_clust_6="14000.00000"></scales>
<clustering>
<clus scale="   56.537">  2  4  1 -1</clus>
<clus scale="   70.726">  2  5  1 -1</clus>
<clus scale="   70.837">  2  3  1 -1</clus>
<clus scale="   70.837">  1  3  2 -1</clus>
</clustering>
</event>
<event>
 6    0  0.9315069E+002  0.1512128E+03  0.7546771E-02  0.1198991E+00
         21   -1    0    0  506  501  0.00000000000E+00  0.00000000000E+00  0.12286679654E+04  0.12286679654E+04  0.00000000000E+00 0. -1.
         21   -1    0    0  504  502 -0.00000000000E+00 -0.00000000000E+00 -0.74651454513E+02  0.74651454513E+02  0.00000000000E+00 0. -1.
         21    1    1    2  503  501 -0.82354362859E+02  0.20542714081E+02  0.20193262842E+03  0.21904572720E+03  0.00000000000E+00 0. -1.
         21    1    1    2  504  503  0.12224257818E+03  0.74589380059E+02  0.41852974836E+03  0.44235051012E+03  0.00000000000E+00 0. -1.
         21    1    1    2  505  502  0.19605329082E+02  0.12272210600E+03  0.13253547799E+03  0.18168857188E+03  0.00000000000E+00 0. -1.
         21    1    1    2  506  505 -0.59493544402E+02 -0.21785420014E+03  0.40101865613E+03  0.46023461072E+03  0.00000000000E+00 0. -1.
<scales pt_clust_3="84.87782" pt_clust_4="120.73939" pt_clust_5="14000.00000" pt_clust_6="151.21278"></scales>
<clustering>
<clus scale="   84.878">  1  3  2 -1</clus>
<clus scale="  120.739">  1  4  2 -1</clus>
<clus scale="  151.213">  1  6  2 -1</clus>
<clus scale="   84.878">  1  3  2 -1</clus>
</clustering>
</event>
<event>
 6    0  0.9315069E+002  0.1189541E+03  0.7546771E-02  0.1244833E+00
         21   -1    0    0  505  501  0.00000000000E+00  0.00000000000E+00  0.54655566641E+03  0.54655566641E+03  0.00000000000E+00 0. -1.
         21   -1    0    0  501  502 -0.00000000000E+00 -0.00000000000E+00 -0.56787244219E+03  0.56787244219E+03  0.00000000000E+00 0. -1.
         21    1    1    2  503  504  0.99874066224E+02  0.10234698354E+02  0.31310771731E+03  0.32881000713E+03  0.00000000000E+00 0. -1.
         21    1    1    2  504  502 -0.10280836716E+03  0.25347560276E+02 -0.54483636567E+03  0.55503038162E+03  0.00000000000E+00 0. -1.
         21    1    1    2  505  506 -0.39309397444E+02 -0.20440002640E+02  0.14216238285E+03  0.14890656645E+03  0.00000000000E+00 0. -1.
         21    1    1    2  506  503  0.42243698379E+02 -0.15142255990E+02  0.68249489741E+02  0.81681153390E+02  0.00000000000E+00 0.  1.
<scales pt_clust_3="35.67996" pt_clust_4="106.31057" pt_clust_5="44.30601" pt_clust_6="35.67996"></scales>
<clustering>
<clus scale="   35.680">  3  6 -1 -1</clus>
<clus scale="   44.306">  1  5  2 -1</clus>
<clus scale="  106.311">  2  4  1 -1</clus>
<clus scale="   44.306">  1  3  2 -1</clus>
</clustering>
</event>
<event>
 6    0  0.9315069E+002  0.9529995E+02  0.7546771E-02  0.1290502E+00
         21   -1    0    0  503  501  0.00000000000E+00  0.00000000000E+00  0.44677434600E+04  0.44677434600E+04  0.00000000000E+00 0. -1.
         21   -1    0    0  506  502 -0.00000000000E+00 -0.00000000000E+00 -0.99429202175E+02  0.99429202175E+02  0.00000000000E+00 0. -1.
         21    1    1    2  503  504 -0.12370409489E+02  0.96782336730E+02  0.40898851088E+04  0.40910487715E+04  0.00000000000E+00 0. -1.
         21    1    1    2  504  502 -0.17888310935E+02  0.31899645175E+02  0.69649685653E+02  0.78668022359E+02  0.00000000000E+00 0.  1.
         21    1    1    2  505  501 -0.54648653288E+02 -0.72078360675E+02  0.26565424497E+03  0.28063132978E+03  0.00000000000E+00 0.  1.
         21    1    1    2  506  505  0.84907373712E+02 -0.56603621230E+02 -0.56874781517E+02  0.11682453860E+03  0.00000000000E+00 0. -1.
<scales pt_clust_3="14000.00000" pt_clust_4="36.57293" pt_clust_5="95.29995" pt_clust_6="73.81988"></scales>
<clustering>
<clus scale="   36.573">  2  4  1 -1</clus>
<clus scale="   73.820">  2  6  1 -1</clus>
<clus scale="   95.300">  2  5  1 -1</clus>
<clus scale="   95.300">  1  3  2 -1</clus>
</clustering>
</event>
<event>
 6    0  0.9315069E+002  0.2355508E+03  0.7546771E-02  0.1122793E+00
         21   -1    0    0  503  501  0.00000000000E+00  0.00000000000E+00  0.31978311410E+03  0.31978311410E+03  0.00000000000E+00 0.  1.
         21   -1    0    0  506  502 -0.00000000000E+00 -0.00000000000E+00 -0.53105034494E+03  0.53105034494E+03  0.00000000000E+00 0. -1.
         21    1    1    2  503  504  0.19691231400E+03  0.79199366583E+02  0.48530234938E+02  0.21772042342E+03  0.00000000000E+00 0.  1.
         21    1    1    2  504  505 -0.13392329551E+03 -0.11201353901E+02 -0.21743736658E+03  0.25561675962E+03  0.00000000000E+00 0. -1.
         21    1    1    2  505  502 -0.99841483073E+02 -0.37434471092E+02 -0.19241715849E+03  0.21998641833E+03  0.00000000000E+00 0. -1.
         21    1    1    2  506  501  0.36852464590E+02 -0.30563541589E+02  0.15005705930E+03  0.15750985768E+03  0.00000000000E+00 0.  1.
<scales pt_clust_3="232.97628" pt_clust_4="30.93628" pt_clust_5="30.93628" pt_clust_6="47.87728"></scales>
<clustering>
<clus scale="   30.936">  4  5 -1 -1</clus>
<clus scale="   47.877">  1  6  2 -1</clus>
<clus scale="  232.976">  1  3  2 -1</clus>
<clus scale="   47.877">  1  3  2 -1</clus>
</clustering>
</event>
<event>
 6    0  0.9315069E+002  0.1017164E+03  0.7546771E-02  0.1276728E+00
         21   -1    0    0  506  501  0.00000000000E+00  0.00000000000E+00  0.15512547373E+04  0.15512547373E+04  0.00000000000E+00 0.  1.
         21   -1    0    0  504  502 -0.00000000000E+00 -0.00000000000E+00 -0.46739744556E+02  0.46739744556E+02  0.00000000000E+00 0.  1.
         21    1    1    2  503  501  0.33748621519E+02  0.45220900942E+02  0.23849335968E+03  0.24507750192E+03  0.00000000000E+00 0.  1.
         21    1    1    2  504  503 -0.27316720597E+02  0.81668346052E+02  0.78908605239E+03  0.79377120132E+03  0.00000000000E+00 0.  1.
         21    1    1    2  505  502  0.17350094471E+02 -0.10161977770E+03  0.25260885319E+02  0.10614008350E+03  0.00000000000E+00 0.  1.
         21    1    1    2  506  505 -0.23781995393E+02 -0.25269469296E+02  0.45167469535E+03  0.45300569511E+03  0.00000000000E+00 0.  1.
<scales pt_clust_3="48.84839" pt_clust_4="101.71637" pt_clust_5="14000.00000" pt_clust_6="34.70057"></scales>
<clustering>
<clus scale="   34.701">  1  6  2 -1</clus>
<clus scale="   48.848">  1  3  2 -1</clus>
<clus scale="  101.716">  1  4  2 -1</clus>
<clus scale="   34.701">  1  3  2 -1</clus>
</clustering>
</event>
<event>
 6    0  0.9315069E+002  0.9952878E+02  0.7546771E-02  0.1281290E+00
         21   -1    0    0  503  501  0.00000000000E+00  0.00000000000E+00  0.20409438019E+03  0.20409438019E+03  0.00000000000E+00 0.  1.
         21   -1    0    0  505  502 -0.00000000000E+00 -0.00000000000E+00 -0.17099159220E+04  0.17099159220E+04  0.00000000000E+00 0. -1.
         21    1    1    2  503  506 -0.98550656882E+02  0.13513891337E+02  0.18636714664E+03  0.21125238597E+03  0.00000000000E+00 0.  1.
         21    1    1    2  504  502 -0.36121590298E+02 -0.20180582155E+02 -0.32821055388E+03  0.33080839297E+03  0.00000000000E+00 0. -1.
         21    1    1    2  505  501  0.29918223453E+02  0.15070501551E+02 -0.16449049723E+03  0.16786704201E+03  0.00000000000E+00 0. -1.
         21    1    1    2  506  504  0.10475402373E+03 -0.84038107333E+01 -0.11994876373E+04  0.12040824812E+04  0.00000000000E+00 0. -1.
<scales pt_clust_3="99.52878" pt_clust_4="34.23411" pt_clust_5="33.49955" pt_clust_6="14000.00000"></scales>
<clustering>
<clus scale="   33.500">  2  5  1 -1</clus>
<clus scale="   34.234">  2  4  1 -1</clus>
<clus scale="   99.529">  1  3  2 -1</clus>
<clus scale="   99.529">  1  3  2 -1</clus>
</clustering>
</event>
<event>
 6    0  0.9315069E+002  0.1277136E+03  0.7546771E-02  0.1230888E+00
         21   -1    0    0  505  501  0.00000000000E+00  0.00000000000E+00  0.12107137371E+04  0.12107137371E+04  0.00000000000E+00 0.  1.
         21   -1    0    0  503  502 -0.00000000000E+00 -0.00000000000E+00 -0.30166522577E+02  0.30166522577E+02  0.00000000000E+00 0.  1.
         21    1    1    2  503  506 -0.64460697067E+02  0.96301041642E+02  0.13449330114E+03  0.17753174403E+03  0.00000000000E+00 0.  1.
         21    1    1    2  504  502  0.25960072081E+02 -0.72768260494E+02  0.28295870067E+03  0.29331684466E+03  0.00000000000E+00 0.  1.
         21    1    1    2  505  504  0.14404867476E+02 -0.58699150443E+02  0.43523240587E+03  0.43940907772E+03  0.00000000000E+00 0.  1.
         21    1    1    2  506  501  0.24095757510E+02  0.35166369295E+02  0.32786280679E+03  0.33062259321E+03  0.00000000000E+00 0.  1.
<scales pt_clust_3="118.89056" pt_clust_4="41.25693" pt_clust_5="41.25693" pt_clust_6="42.62956"></scales>
<clustering>
<clus scale="   41.257">  4  5 -1 -1</clus>
<clus scale="   42.630">  1  6  2 -1</clus>
<clus scale="  118.891">  2  3  1 -1</clus>
<clus scale="   42.630">  1  3  2 -1</clus>
</clustering>
</event>
<event>
 6    0  0.9315069E+002  0.7788802E+02  0.7546771E-02  0.1335154E+00
         21   -1    0    0  505  501  0.00000000000E+00  0.00000000000E+00  0.38249743873E+03  0.38249743873E+03  0.00000000000E+00 0.  1.
         21   -1    0    0  504  502 -0.00000000000E+00 -0.00000000000E+00 -0.23448939142E+04  0.23448939142E+04  0.00000000000E+00 0. -1.
         21    1    1    2  503  501  0.21978205028E+02  0.21200925205E+02  0.36666907804E+03  0.36793849149E+03  0.00000000000E+00 0.  1.
         21    1    1    2  504  503  0.66660135973E+00  0.45868630434E+02 -0.15899826133E+04  0.15906442362E+04  0.00000000000E+00 0. -1.
         21    1    1    2  505  506 -0.15736210230E+02  0.56016030889E+02 -0.83730506402E+02  0.10196186410E+03  0.00000000000E+00 0. -1.
         21    1    1    2  506  502 -0.69085961576E+01 -0.12308558653E+03 -0.65535243375E+03  0.66684676106E+03  0.00000000000E+00 0. -1.
<scales pt_clust_3="30.53720" pt_clust_4="46.34439" pt_clust_5="77.88802" pt_clust_6="14000.00000"></scales>
<clustering>
<clus scale="   30.537">  1  3  2 -1</clus>
<clus scale="   46.344">  2  4  1 -1</clus>
<clus scale="   77.888">  1  5  2 -1</clus>
<clus scale="   30.537">  1  3  2 -1</clus>
</clustering>
</event>
<event>
 6    0  0.9315069E+002  0.1808821E+03  0.7546771E-02  0.1166952E+00
         21   -1    0    0  504  501  0.00000000000E+00  0.00000000000E+00  0.90996414708E+03  0.90996414708E+03  0.00000000000E+00 0. -1.
         21   -1    0    0  506  502 -0.00000000000E+00 -0.00000000000E+00 -0.12506874655E+03  0.12506874655E+03  0.00000000000E+00 0. -1.
         21    1    1    2  503  505  0.13700217190E+03 -0.22108164950E+03  0.10237658614E+03  0.27951324878E+03  0.00000000000E+00 0. -1.
         21    1    1    2  504  503  0.15777344337E+02  0.75862999889E+02  0.14243760581E+03  0.16214990254E+03  0.00000000000E+00 0. -1.
         21    1    1    2  505  502 -0.48570477438E+02  0.60454615194E+02  0.69990336105E+02  0.10446290693E+03  0.00000000000E+00 0. -1.
         21    1    1    2  506  501 -0.10420903880E+03  0.84764034421E+02  0.47009087247E+03  0.48890683538E+03  0.00000000000E+00 0. -1.
<scales pt_clust_3="180.88210" pt_clust_4="77.48625" pt_clust_5="83.50432" pt_clust_6="14000.00000"></scales>
<clustering>
<clus scale="   77.486">  1  4  2 -1</clus>
<clus scale="   83.504">  2  5  1 -1</clus>
<clus scale="  180.882">  2  3  1 -1</clus>
<clus scale="   77.486">  1  3  2 -1</clus>
</clustering>
</event>
<event>
 6    0  0.9315069E+002  0.1380493E+03  0.7546771E-02  0.1215978E+00
         21   -1    0    0  503  501  0.00000000000E+00  0.00000000000E+00  0.85265815446E+02  0.85265815446E+02  0.00000000000E+00 0.  1.
         21   -1    0    0  504  502 -0.00000000000E+00 -0.00000000000E+00 -0.34522191721E+03  0.34522191721E+03  0.00000000000E+00 0. -1.
         21    1    1    2  503  505 -0.54310472344E+02 -0.90211589782E+02 -0.29725229605E+02  0.10941365368E+03  0.00000000000E+00 0.  1.
         21    1    1    2  504  506  0.58529263337E+01  0.51322476248E+02 -0.10652776335E+03  0.11839095269E+03  0.00000000000E+00 0. -1.
         21    1    1    2  505  502 -0.40823266557E+02 -0.27201504560E+02 -0.44762926603E+02  0.66409190183E+02  0.00000000000E+00 0.  1.
         21    1    1    2  506  501  0.89280812568E+02  0.66090618093E+02 -0.78940182203E+02  0.13627393610E+03  0.00000000000E+00 0. -1.
<scales pt_clust_3="34.32430" pt_clust_4="51.65514" pt_clust_5="34.32430" pt_clust_6="128.56389"></scales>
<clustering>
<clus scale="   34.324">  3  5 -1 -1</clus>
<clus scale="   51.655">  2  4  1 -1</clus>
<clus scale="  128.564">  1  6  2 -1</clus>
<clus scale="  128.564">  1  3  2 -1</clus>
</clustering>
</event>
<event>
 6    0  0.9315069E+002  0.2527686E+03  0.7546771E-02  0.1111568E+00
         21   -1    0    0  506  501  0.00000000000E+00  0.00000000000E+00  0.41403105762E+02  0.41403105762E+02  0.00000000000E+00 0.  1.
         21   -1    0    0  505  502 -0.00000000000E+00 -0.00000000000E+00 -0.21482655497E+04  0.21482655497E+04  0.00000000000E+00 0. -1.
         21    1    1    2  503  502 -0.23653203524E+02  0.42636473266E+02 -0.62115271404E+03  0.62306342939E+03  0.00000000000E+00 0.  1.
         21    1    1    2  504  501  0.10584301526E+03 -0.36121907575E+02 -0.23909806469E+03  0.26396102104E+03  0.00000000000E+00 0. -1.
         21    1    1    2  505  504  0.13191583908E+03 -0.64954945168E+02 -0.64093680081E+03  0.65758719280E+03  0.00000000000E+00 0. -1.
         21    1    1    2  506  503 -0.21410565082E+03  0.58440379478E+02 -0.60567486441E+03  0.64505701224E+03  0.00000000000E+00 0.  1.
<scales pt_clust_3="48.75800" pt_clust_4="80.82604" pt_clust_5="80.82604" pt_clust_6="236.32188"></scales>
<clustering>
<clus scale="   48.758">  2  3  1 -1</clus>
<clus scale="   80.826">  4  5 -1 -1</clus>
<clus scale="  236.322">  1  6  2 -1</clus>
<clus scale="  236.322">  1  3  2 -1</clus>
</clustering>
</event>
<event>
 6    0  0.9315069E+002  0.1563615E+03  0.7546771E-02  0.1192867E+00
         21   -1    0    0  505  501  0.00000000000E+00  0.00000000000E+00  0.22676802421E+03  0.22676802421E+03  0.00000000000E+00 0.  1.
         21   -1    0    0  506  502 -0.00000000000E+00 -0.00000000000E+00 -0.42714355370E+03  0.42714355370E+03  0.00000000000E+00 0.  1.
         21    1    1    2  503  504 -0.54569157872E+02 -0.37107508887E+02  0.39670055822E+02  0.76996581324E+02  0.00000000000E+00 0.  1.
         21    1    1    2  504  501 -0.74312406492E+02 -0.79526988533E+01  0.90667922595E+02  0.11750000581E+03  0.00000000000E+00 0.  1.
         21    1    1    2  505  502  0.13994726599E+02 -0.53120888530E+02  0.34018545154E+02  0.64613795626E+02  0.00000000000E+00 0.  1.
         21    1    1    2  506  503  0.11488683777E+03  0.98181096270E+02 -0.36473205306E+03  0.39480119514E+03  0.00000000000E+00 0.  1.
<scales pt_clust_3="44.07483" pt_clust_4="44.07483" pt_clust_5="54.93342" pt_clust_6="149.16051"></scales>
<clustering>
<clus scale="   44.075">  3  4 -1 -1</clus>
<clus scale="   54.933">  1  5  2 -1</clus>
<clus scale="  149.161">  2  6  1 -1</clus>
<clus scale="   54.933">  1  3  2 -1</clus>
</clustering>
</event>
<event>
 6    0  0.9315069E+002  0.8803845E+02  0.7546771E-02  0.1307673E+00
         21   -1    0    0  503  501  0.00000000000E+00  0.00000000000E+00  0.31508794256E+04  0.31508794256E+04  0.00000000000E+00 0.  1.
         21   -1    0    0  504  502 -0.00000000000E+00 -0.00000000000E+00 -0.32790425877E+03  0.32790425877E+03  0.00000000000E+00 0.  1.
         21    1    1    2  503  506 -0.82348201332E+02  0.31308306399E+02  0.31014994894E+04  0.31027504764E+04  0.00000000000E+00 0.  1.
         21    1    1    2  504  505  0.69726456766E+02  0.41375136600E+02 -0.17920529498E+03  0.19669320896E+03  0.00000000000E+00 0.  1.
         21    1    1    2  505  501  0.60457060849E+02 -0.57601942368E+02 -0.98558927928E+02  0.12917779316E+03  0.00000000000E+00 0.  1.
         21    1    1    2  506  502 -0.47835316282E+02 -0.15081500630E+02 -0.76009960560E+00  0.50162205858E+02  0.00000000000E+00 0. -1.
<scales pt_clust_3="14000.00000" pt_clust_4="51.22670" pt_clust_5="88.03845" pt_clust_6="50.15645"></scales>
<clustering>
<clus scale="   50.156">  2  6  1 -1</clus>
<clus scale="   51.227">  2  4  1 -1</clus>
<clus scale="   88.038">  2  5  1 -1</clus>
<clus scale="   88.038">  1  3  2 -1</clus>
</clustering>
</event>
<event>
 6    0  0.9315069E+002  0.1937444E+03  0.7546771E-02  0.1155127E+00
         21   -1    0    0  504  501  0.00000000000E+00  0.00000000000E+00  0.26085319537E+03  0.26085319537E+03  0.00000000000E+00 0.  1.
         21   -1    0    0  503  502 -0.00000000000E+00 -0.00000000000E+00 -0.23675819900E+03  0.23675819900E+03  0.00000000000E+00 0.  1.
         21    1    1    2  503  505 -0.45902232654E+02 -0.15433637160E+03 -0.10361434647E+03  0.19147496796E+03  0.00000000000E+00 0.  1.
         21    1    1    2  504  506  0.19517332793E+02  0.35135503307E+02  0.80098069319E+02  0.89616575367E+02  0.00000000000E+00 0.  1.
         21    1    1    2  505  501  0.14716221128E+02 -0.40734980662E+02 -0.12790031334E+02  0.45160720935E+02  0.00000000000E+00 0.  1.
         21    1    1    2  506  502  0.11668678733E+02  0.15993584896E+03  0.60401304855E+02  0.17135913011E+03  0.00000000000E+00 0.  1.
<scales pt_clust_3="30.33520" pt_clust_4="40.19241" pt_clust_5="30.33520" pt_clust_6="184.70467"></scales>
<clustering>
<clus scale="   30.335">  3  5 -1 -1</clus>
<clus scale="   40.192">  1  4  2 -1</clus>
<clus scale="  184.705">  1  6  2 -1</clus>
<clus scale="   40.192">  1  3  2 -1</clus>
</clustering>
</event>
<event>
 6    0  0.2278064E+003  0.9378792E+02  0.7546771E-02  0.1293930E+00
         21   -1    0    0  504  501  0.00000000000E+00  0.00000000000E+00  0.43780443860E+03  0.43780443860E+03  0.00000000000E+00 0. -1.
         21   -1    0    0  503  502 -0.00000000000E+00 -0.00000000000E+00 -0.37837777281E+03  0.37837777281E+03  0.00000000000E+00 0.  1.
         21    1    1    2  503  505  0.68964004288E+02  0.64156997110E+02 -0.34470650757E+03  0.35734399467E+03  0.00000000000E+00 0.  1.
         21    1    1    2  504  506 -0.27779737054E+02 -0.19547538667E+02  0.13335338392E+02  0.36491797829E+02  0.00000000000E+00 0.  1.
         21    1    1    2  505  501 -0.78578304320E+02 -0.19112161364E+02  0.35650584478E+03  0.36556291112E+03  0.00000000000E+00 0. -1.
         21    1    1    2  506  502  0.37394037086E+02 -0.25497297079E+02  0.34291990179E+02  0.56783507803E+02  0.00000000000E+00 0.  1.
<scales pt_clust_3="14000.00000" pt_clust_4="33.96793" pt_clust_5="93.78792" pt_clust_6="44.08245"></scales>
<clustering>
<clus scale="   33.968">  1  4  2 -1</clus>
<clus scale="   44.082">  1  6  2 -1</clus>
<clus scale="   93.788">  1  5  2 -1</clus>
<clus scale="   33.968">  1  3  2 -1</clus>
</clustering>
</event>
<event>
 6    0  0.9315069E+002  0.2013290E+03  0.7546771E-02  0.1148623E+00
         21   -1    0    0  503  501  0.00000000000E+00  0.00000000000E+00  0.91020699271E+03  0.91020699271E+03  0.00000000000E+00 0. -1.
         21   -1    0    0  501  502 -0.00000000000E+00 -0.00000000000E+00 -0.17277812293E+03  0.17277812293E+03  0.00000000000E+00 0. -1.
         21    1    1    2  503  504 -0.87556256670E+02  0.33357053182E+02  0.39018935981E+03  0.40128110794E+03  0.00000000000E+00 0. -1.
         21    1    1    2  504  505  0.31403609897E+02 -0.41743948416E+02  0.17878785114E+03  0.18626282414E+03  0.00000000000E+00 0. -1.
         21    1    1    2  505  506  0.32592525957E+01 -0.16305349756E+03  0.24989775720E+03  0.29840568836E+03  0.00000000000E+00 0. -1.
         21    1    1    2  506  502  0.52893394177E+02  0.17144039279E+03 -0.81446098365E+02  0.19703549520E+03  0.00000000000E+00 0. -1.
<scales pt_clust_3="93.69520" pt_clust_4="50.58486" pt_clust_5="50.58486" pt_clust_6="180.40140"></scales>
<clustering>
<clus scale="   50.585">  4  5 -1 -1</clus>
<clus scale="   93.695">  1  3  2 -1</clus>
<clus scale="  180.401">  2  6  1 -1</clus>
<clus scale="   93.695">  1  3  2 -1</clus>
</clustering>
</event>
<event>
 6    0  0.9315069E+002  0.8435984E+02  0.7546771E-02  0.1317115E+00
         21   -1    0    0  503  501  0.00000000000E+00  0.00000000000E+00  0.59221731581E+02  0.59221731581E+02  0.00000000000E+00 0.  1.
         21   -1    0    0  505  502 -0.00000000000E+00 -0.00000000000E+00 -0.10205736466E+04  0.10205736466E+04  0.00000000000E+00 0.  1.
         21    1    1    2  503  506 -0.44330441319E+02  0.46263983928E+02 -0.18719933576E+03  0.19786140489E+03  0.00000000000E+00 0.  1.
         21    1    1    2  504  502 -0.19265334441E+02 -0.10460039519E+03 -0.69086223162E+03  0.69900144411E+03  0.00000000000E+00 0.  1.
         21    1    1    2  505  501  0.25001944109E+02  0.16582569082E+02  0.38331483829E+02  0.48676292578E+02  0.00000000000E+00 0.  1.
         21    1    1    2  506  504  0.38593831651E+02  0.41753842183E+02 -0.12162183152E+03  0.13425623665E+03  0.00000000000E+00 0.  1.
<scales pt_clust_3="63.06866" pt_clust_4="14000.00000" pt_clust_5="30.00131" pt_clust_6="84.35984"></scales>
<clustering>
<clus scale="   30.001">  1  5  2 -1</clus>
<clus scale="   63.069">  1  3  2 -1</clus>
<clus scale="   84.360">  1  6  2 -1</clus>
<clus scale="   30.001">  1  3  2 -1</clus>
</clustering>
</event>
<event>
 6    0  0.9315069E+002  0.1313313E+03  0.7546771E-02  0.1225494E+00
         21   -1    0    0  504  501  0.00000000000E+00  0.00000000000E+00  0.21445200137E+03  0.21445200137E+03  0.00000000000E+00 0. -1.
         21   -1    0    0  506  502 -0.00000000000E+00 -0.00000000000E+00 -0.37814458931E+03  0.37814458931E+03  0.00000000000E+00 0. -1.
         21    1    1    2  503  501 -0.23557369999E+02 -0.51012019114E+02  0.40186354048E+01  0.56332274993E+02  0.00000000000E+00 0. -1.
         21    1    1    2  504  505 -0.54810467566E+02  0.62472018992E+02  0.10599730059E+03  0.13469360877E+03  0.00000000000E+00 0. -1.
         21    1    1    2  505  502 -0.93649269057E+01  0.10730504072E+03 -0.22282464209E+02  0.10999355358E+03  0.00000000000E+00 0. -1.
         21    1    1    2  506  503  0.87732764471E+02 -0.11876504059E+03 -0.25142605974E+03  0.29157715333E+03  0.00000000000E+00 0. -1.
<scales pt_clust_3="56.18875" pt_clust_4="76.00996" pt_clust_5="131.33131" pt_clust_6="14000.00000"></scales>
<clustering>
<clus scale="   56.189">  1  3  2 -1</clus>
<clus scale="   76.010">  1  4  2 -1</clus>
<clus scale="  131.331">  1  5  2 -1</clus>
<clus scale="   56.189">  1  3  2 -1</clus>
</clustering>
</event>
<event>
 6    0  0.9315069E+002  0.2175920E+03  0.7546771E-02  0.1135691E+00
         21   -1    0    0  504  501  0.00000000000E+00  0.00000000000E+00  0.27507523073E+03  0.27507523073E+03  0.00000000000E+00 0. -1.
         21   -1    0    0  506  502 -0.00000000000E+00 -0.00000000000E+00 -0.90337530112E+03  0.90337530112E+03  0.00000000000E+00 0.  1.
         21    1    1    2  503  501  0.71028105701E+02 -0.65334010909E+02  0.52707554074E+02  0.10996186174E+03  0.00000000000E+00 0. -1.
         21    1    1    2  504  505 -0.10676167967E+03  0.21080314571E+03  0.93593947419E+01  0.23648175566E+03  0.00000000000E+00 0. -1.
         21    1    1    2  505  502 -0.33244453505E+01 -0.47226963080E+02 -0.72051658207E+03  0.72207034493E+03  0.00000000000E+00 0.  1.
         21    1    1    2  506  503  0.39058019324E+02 -0.98242171725E+02  0.30149562862E+02  0.10993656953E+03  0.00000000000E+00 0. -1.
<scales pt_clust_3="47.95569" pt_clust_4="211.50027" pt_clust_5="47.34383" pt_clust_6="47.95569"></scales>
<clustering>
<clus scale="   47.344">  2  5  1 -1</clus>
<clus scale="   47.956">  3  6 -1 -1</clus>
<clus scale="  211.500">  2  4  1 -1</clus>
<clus scale="  217.592">  1  3  2 -1</clus>
</clustering>
</event>
<event>
 6    0  0.9315069E+002  0.9782660E+02  0.7546771E-02  0.1284934E+00
         21   -1    0    0  503  501  0.00000000000E+00  0.00000000000E+00  0.23623697619E+03  0.23623697619E+03  0.00000000000E+00 0.  1.
         21   -1    0    0  505  502 -0.00000000000E+00 -0.00000000000E+00 -0.14531219054E+04  0.14531219054E+04  0.00000000000E+00 0. -1.
         21    1    1    2  503  504 -0.55727725442E+00 -0.34627901981E+02  0.15483743856E+03  0.15866327406E+03  0.00000000000E+00 0.  1.
         21    1    1    2  504  502 -0.20417975903E+02  0.15881633848E+03 -0.53758060055E+02  0.16890663732E+03  0.00000000000E+00 0.  1.
         21    1    1    2  505  506  0.12422390644E+02 -0.95144441768E+02 -0.13267873994E+04  0.13302524512E+04  0.00000000000E+00 0. -1.
         21    1    1    2  506  501  0.85528625134E+01 -0.29043994736E+02  0.88230916906E+01  0.31536519059E+02  0.00000000000E+00 0.  1.
<scales pt_clust_3="55.98505" pt_clust_4="14000.00000" pt_clust_5="97.82660" pt_clust_6="30.27714"></scales>
<clustering>
<clus scale="   30.277">  1  6  2 -1</clus>
<clus scale="   55.985">  1  3  2 -1</clus>
<clus scale="   97.827">  2  5  1 -1</clus>
<clus scale="   30.277">  1  3  2 -1</clus>
</clustering>
</event>
<event>
 6    0  0.9315069E+002  0.1041737E+03  0.7546771E-02  0.1271756E+00
         21   -1    0    0  504  501  0.00000000000E+00  0.00000000000E+00  0.10327752001E+04  0.10327752001E+04  0.00000000000E+00 0.  1.
         21   -1    0    0  505  502 -0.00000000000E+00 -0.00000000000E+00 -0.70287876105E+02  0.70287876105E+02  0.00000000000E+00 0. -1.
         21    1    1    2  503  506  0.39538646728E+02 -0.66165257130E+02  0.17389719850E+03  0.19021404123E+03  0.00000000000E+00 0.  1.
         21    1    1    2  504  503 -0.34918571214E+02 -0.14016087824E+02  0.16123922094E+03  0.16557126473E+03  0.00000000000E+00 0.  1.
         21    1    1    2  505  501  0.26202004725E+02 -0.28316195315E+02  0.63316327674E+03  0.63433751819E+03  0.00000000000E+00 0.  1.
         21    1    1    2  506  502 -0.30822080239E+02  0.10849754027E+03 -0.58123721419E+01  0.11294025210E+03  0.00000000000E+00 0. -1.
<scales pt_clust_3="104.17368" pt_clust_4="37.62655" pt_clust_5="38.54084" pt_clust_6="14000.00000"></scales>
<clustering>
<clus scale="   37.627">  1  4  2 -1</clus>
<clus scale="   38.541">  1  5  2 -1</clus>
<clus scale="  104.174">  1  3  2 -1</clus>
<clus scale="   37.627">  1  3  2 -1</clus>
</clustering>
</event>
<event>
 6    0  0.9315069E+002  0.1382950E+03  0.7546771E-02  0.1215642E+00
         21   -1    0    0  503  501  0.00000000000E+00  0.00000000000E+00  0.31098766993E+03  0.31098766993E+03  0.00000000000E+00 0. -1.
         21   -1    0    0  504  502 -0.00000000000E+00 -0.00000000000E+00 -0.23558938311E+03  0.23558938311E+03  0.00000000000E+00 0. -1.
         21    1    1    2  503  505 -0.79414045366E+01 -0.32088732124E+02  0.22650281609E+02  0.40072283343E+02  0.00000000000E+00 0.  1.
         21    1    1    2  504  506 -0.21217633972E+02  0.84231675194E+02  0.13930013529E+03  0.16416360982E+03  0.00000000000E+00 0. -1.
         21    1    1    2  505  502  0.77354132936E+02 -0.10532685766E+03 -0.18129347612E+03  0.22348318351E+03  0.00000000000E+00 0. -1.
         21    1    1    2  506  501 -0.48195094428E+02  0.53183914591E+02  0.94741346040E+02  0.11885797637E+03  0.00000000000E+00 0. -1.
<scales pt_clust_3="33.05681" pt_clust_4="38.59114" pt_clust_5="132.29091" pt_clust_6="38.59114"></scales>
<clustering>
<clus scale="   33.057">  1  3  2 -1</clus>
<clus scale="   38.591">  4  6 -1 -1</clus>
<clus scale="  132.291">  2  5  1 -1</clus>
<clus scale="   33.057">  1  3  2 -1</clus>
</clustering>
</event>
<event>
 6    0  0.9315069E+002  0.1302350E+03  0.7546771E-02  0.1227107E+00
         21   -1    0    0  506  501  0.00000000000E+00  0.00000000000E+00  0.19956413023E+04  0.19956413023E+04  0.00000000000E+00 0. -1.
         21   -1    0    0  504  502 -0.00000000000E+00 -0.00000000000E+00 -0.22122226582E+02  0.22122226582E+02  0.00000000000E+00 0.  1.
         21    1    1    2  503  505 -0.21311642614E+02  0.62600550389E+02  0.20746698307E+03  0.21775115174E+03  0.00000000000E+00 0. -1.
         21    1    1    2  504  503 -0.11903200956E+02 -0.31125606694E+02  0.35310544108E+02  0.48552282235E+02  0.00000000000E+00 0.  1.
         21    1    1    2  505  501  0.71135439513E+02  0.10105425273E+03  0.61990038513E+03  0.63209864755E+03  0.00000000000E+00 0. -1.
         21    1    1    2  506  502 -0.37920595944E+02 -0.13252919643E+03  0.11108411634E+04  0.11193614474E+04  0.00000000000E+00 0. -1.
<scales pt_clust_3="58.05872" pt_clust_4="33.32401" pt_clust_5="130.23503" pt_clust_6="14000.00000"></scales>
<clustering>
<clus scale="   33.324">  2  4  1 -1</clus>
<clus scale="   58.059">  2  3  1 -1</clus>
<clus scale="  130.235">  2  5  1 -1</clus>
<clus scale="  130.235">  1  3  2 -1</clus>
</clustering>
</event>
<event>
 6    0  0.9315069E+002  0.7095958E+02  0.7546771E-02  0.1356860E+00
         21   -1    0    0  503  501  0.00000000000E+00  0.00000000000E+00  0.16386085620E+04  0.16386085620E+04  0.00000000000E+00 0. -1.
         21   -1    0    0  504  502 -0.00000000000E+00 -0.00000000000E+00 -0.48823152533E+02  0.48823152533E+02  0.00000000000E+00 0. -1.
         21    1    1    2  503  505 -0.13245004210E+02 -0.54211940495E+02  0.86585313610E+03  0.86764970923E+03  0.00000000000E+00 0. -1.
         21    1    1    2  504  506 -0.34249178158E+01  0.50675320146E+02 -0.23845451457E+02  0.56109925050E+02  0.00000000000E+00 0. -1.
         21    1    1    2  505  502  0.64184928784E+02 -0.51035852996E+02  0.36262209804E+03  0.37177836054E+03  0.00000000000E+00 0. -1.
         21    1    1    2  506  501 -0.47515006758E+02  0.54572473344E+02  0.38515562681E+03  0.39189371975E+03  0.00000000000E+00 0. -1.
<scales pt_clust_3="50.91372" pt_clust_4="50.79093" pt_clust_5="14000.00000" pt_clust_6="70.95958"></scales>
<clustering>
<clus scale="   50.791">  2  4  1 -1</clus>
<clus scale="   50.914">  1  3  2 -1</clus>
<clus scale="   70.960">  1  6  2 -1</clus>
<clus scale="   50.914">  1  3  2 -1</clus>
</clustering>
</event>
<event>
 6    0  0.9315069E+002  0.8371993E+02  0.7546771E-02  0.1318814E+00
         21   -1    0    0  505  501  0.00000000000E+00  0.00000000000E+00  0.37742715460E+03  0.37742715460E+03  0.00000000000E+00 0. -1.
         21   -1    0    0  506  502 -0.00000000000E+00 -0.00000000000E+00 -0.88185292023E+03  0.88185292023E+03  0.00000000000E+00 0.  1.
         21    1    1    2  503  502 -0.11245513254E+02  0.51756503405E+02 -0.77366825126E+03  0.77547905208E+03  0.00000000000E+00 0.  1.
         21    1    1    2  504  501 -0.58073285125E+02 -0.62882615218E+02  0.27741698259E+03  0.29032208316E+03  0.00000000000E+00 0. -1.
         21    1    1    2  505  503  0.32994460457E+02  0.73752034034E+02  0.54715772083E+02  0.97579775874E+02  0.00000000000E+00 0. -1.
         21    1    1    2  506  504  0.36324337922E+02 -0.62625922221E+02 -0.62890269044E+02  0.95899163708E+02  0.00000000000E+00 0. -1.
<scales pt_clust_3="52.96411" pt_clust_4="14000.00000" pt_clust_5="83.71993" pt_clust_6="37.09005"></scales>
<clustering>
<clus scale="   52.964">  2  3  1 -1</clus>
<clus scale="   37.090">  2  6  1 -1</clus>
<clus scale="   83.720">  2  5  1 -1</clus>
<clus scale="   83.720">  1  3  2 -1</clus>
</clustering>
</event>
<event>
 6    0  0.9315069E+002  0.8521883E+02  0.7546771E-02  0.1314861E+00
         21   -1    0    0  505  501  0.00000000000E+00  0.00000000000E+00  0.43473830251E+03  0.43473830251E+03  0.00000000000E+00 0. -1.
         21   -1    0    0  506  502 -0.00000000000E+00 -0.00000000000E+00 -0.88993917712E+02  0.88993917712E+02  0.00000000000E+00 0. -1.
         21    1    1    2  503  502 -0.48576566428E+02  0.56378388570E+02  0.44058086206E+02  0.86483064607E+02  0.00000000000E+00 0. -1.
         21    1    1    2  504  503  0.79232094105E+02  0.65175760662E+02  0.21162829679E+03  0.23518533227E+03  0.00000000000E+00 0. -1.
         21    1    1    2  505  504 -0.41295480017E+02 -0.34009135097E+01  0.70580288597E+02  0.81844120259E+02  0.00000000000E+00 0. -1.
         21    1    1    2  506  501  0.10639952340E+02 -0.11815323572E+03  0.19477713202E+02  0.12021970308E+03  0.00000000000E+00 0. -1.
<scales pt_clust_3="79.09290" pt_clust_4="14000.00000" pt_clust_5="41.43529" pt_clust_6="85.21883"></scales>
<clustering>
<clus scale="   41.435">  1  5  2 -1</clus>
<clus scale="   79.093">  2  3  1 -1</clus>
<clus scale="   85.219">  2  6  1 -1</clus>
<clus scale="   41.435">  1  3  2 -1</clus>
</clustering>
</event>
<event>
 6    0  0.9315069E+002  0.8805527E+02  0.7546771E-02  0.1307631E+00
         21   -1    0    0  503  501  0.00000000000E+00  0.00000000000E+00  0.92714858804E+03  0.92714858804E+03  0.00000000000E+00 0. -1.
         21   -1    0    0  504  502 -0.00000000000E+00 -0.00000000000E+00 -0.65948478967E+02  0.65948478967E+02  0.00000000000E+00 0. -1.
         21    1    1    2  503  505  0.14982446822E+02  0.27789201837E+02  0.31007217549E+03  0.31167525963E+03  0.00000000000E+00 0. -1.
         21    1    1    2  504  501  0.68735796583E+02  0.18547278446E+02  0.37668866372E+03  0.38335748413E+03  0.00000000000E+00 0. -1.
         21    1    1    2  505  506 -0.52161258480E+02 -0.11372888549E+03  0.18454984856E+03  0.22296569890E+03  0.00000000000E+00 0. -1.
         21    1    1    2  506  502 -0.31556984926E+02  0.67392405205E+02 -0.10110578697E+02  0.75098624345E+02  0.00000000000E+00 0. -1.
<scales pt_clust_3="31.57077" pt_clust_4="14000.00000" pt_clust_5="88.05527" pt_clust_6="75.41872"></scales>
<clustering>
<clus scale="   31.571">  1  3  2 -1</clus>
<clus scale="   75.419">  2  6  1 -1</clus>
<clus scale="   88.055">  2  5  1 -1</clus>
<clus scale="   31.571">  1  3  2 -1</clus>
</clustering>
</event>
<event>
 6    0  0.9315069E+002  0.1015279E+03  0.7546771E-02  0.1277115E+00
         21   -1    0    0  505  501  0.00000000000E+00  0.00000000000E+00  0.17198090100E+03  0.17198090100E+03  0.00000000000E+00 0.  1.
         21   -1    0    0  504  502 -0.00000000000E+00 -0.00000000000E+00 -0.38477932128E+03  0.38477932128E+03  0.00000000000E+00 0.  1.
         21    1    1    2  503  501  0.49392793790E+01 -0.43161261037E+02  0.81900732721E+01  0.44208237188E+02  0.00000000000E+00 0.  1.
         21    1    1    2  504  506  0.36361021076E+02 -0.12803448900E+02 -0.26293822021E+03  0.26574905420E+03  0.00000000000E+00 0.  1.
         21    1    1    2  505  502  0.76880675886E+02  0.75295306665E+02  0.63760151939E+02  0.12508148746E+03  0.00000000000E+00 0.  1.
         21    1    1    2  506  503 -0.11818097634E+03 -0.19330596728E+02 -0.21810425275E+02  0.12172144342E+03  0.00000000000E+00 0.  1.
<scales pt_clust_3="46.25471" pt_clust_4="38.54935" pt_clust_5="101.52788" pt_clust_6="14000.00000"></scales>
<clustering>
<clus scale="   38.549">  2  4  1 -1</clus>
<clus scale="   46.255">  1  3  2 -1</clus>
<clus scale="  101.528">  1  5  2 -1</clus>
<clus scale="   46.255">  1  3  2 -1</clus>
</clustering>
</event>
<event>
 6    0  0.9315069E+002  0.1383908E+03  0.7546771E-02  0.1215511E+00
         21   -1    0    0  504  501  0.00000000000E+00  0.00000000000E+00  0.55710279571E+03  0.55710279571E+03  0.00000000000E+00 0. -1.
         21   -1    0    0  501  502 -0.00000000000E+00 -0.00000000000E+00 -0.12883664174E+04  0.12883664174E+04  0.00000000000E+00 0. -1.
         21    1    1    2  503  506 -0.42785012745E+02 -0.41320609113E+02 -0.19433508275E+03  0.20323403859E+03  0.00000000000E+00 0. -1.
         21    1    1    2  504  505  0.10740388025E+03  0.75444808626E+02  0.53831917327E+03  0.55408938354E+03  0.00000000000E+00 0. -1.
         21    1    1    2  505  503 -0.37157110581E+02 -0.54346606586E+01 -0.52075696558E+02  0.64203306575E+02  0.00000000000E+00 0. -1.
         21    1    1    2  506  502 -0.27461756927E+02 -0.28689538854E+02 -0.10231720157E+04  0.10239424844E+04  0.00000000000E+00 0. -1.
<scales pt_clust_3="37.50213" pt_clust_4="130.09365" pt_clust_5="37.50213" pt_clust_6="39.71445"></scales>
<clustering>
<clus scale="   37.502">  3  5 -1 -1</clus>
<clus scale="   39.714">  2  6  1 -1</clus>
<clus scale="  130.094">  1  4  2 -1</clus>
<clus scale="  130.094">  1  3  2 -1</clus>
</clustering>
</event>
<event>
 6    0  0.9315069E+002  0.8171703E+02  0.7546771E-02  0.1324248E+00
         21   -1    0    0  505  501  0.00000000000E+00  0.00000000000E+00  0.30493480259E+03  0.30493480259E+03  0.00000000000E+00 0. -1.
         21   -1    0    0  503  502 -0.00000000000E+00 -0.00000000000E+00 -0.10118454133E+03  0.10118454133E+03  0.00000000000E+00 0. -1.
         21    1    1    2  503  506 -0.28245245307E+02  0.72907152663E+02  0.51436095859E+02  0.93589095247E+02  0.00000000000E+00 0. -1.
         21    1    1    2  504  502  0.22006874324E+02 -0.80192861092E+02 -0.36079976631E+02  0.90647461086E+02  0.00000000000E+00 0. -1.
         21    1    1    2  505  504 -0.26140401439E+02 -0.30728590158E+02  0.15878429112E+03  0.16382923410E+03  0.00000000000E+00 0. -1.
         21    1    1    2  506  501  0.32378772422E+02  0.38014298588E+02  0.29609850923E+02  0.58053553486E+02  0.00000000000E+00 0. -1.
<scales pt_clust_3="81.71703" pt_clust_4="14000.00000" pt_clust_5="40.34311" pt_clust_6="37.62296"></scales>
<clustering>
<clus scale="   40.343">  1  5  2 -1</clus>
<clus scale="   37.623">  1  6  2 -1</clus>
<clus scale="   81.717">  1  3  2 -1</clus>
<clus scale="   40.343">  1  3  2 -1</clus>
</clustering>
</event>
<event>
 6    0  0.9315069E+002  0.1157973E+03  0.7546771E-02  0.1250196E+00
         21   -1    0    0  504  501  0.00000000000E+00  0.00000000000E+00  0.33210332616E+03  0.33210332616E+03  0.00000000000E+00 0.  1.
         21   -1    0    0  505  502 -0.00000000000E+00 -0.00000000000E+00 -0.96901273311E+03  0.96901273311E+03  0.00000000000E+00 0.  1.
         21    1    1    2  503  502 -0.71757625351E+02 -0.27196825354E+01 -0.57116972748E+03  0.57566605863E+03  0.00000000000E+00 0.  1.
         21    1    1    2  504  503 -0.86720234090E+02 -0.20165911572E+02 -0.28477684285E+03  0.29837042953E+03  0.00000000000E+00 0.  1.
         21    1    1    2  505  506  0.44259122915E+02 -0.14509478800E+01 -0.88037829928E+02  0.98547626605E+02  0.00000000000E+00 0. -1.
         21    1    1    2  506  501  0.11421873653E+03  0.24336541988E+02  0.30707499331E+03  0.32853194451E+03  0.00000000000E+00 0.  1.
<scales pt_clust_3="42.93405" pt_clust_4="14000.00000" pt_clust_5="44.28290" pt_clust_6="115.79734"></scales>
<clustering>
<clus scale="   44.283">  2  5  1 -1</clus>
<clus scale="   42.934">  2  3  1 -1</clus>
<clus scale="  115.797">  1  6  2 -1</clus>
<clus scale="  115.797">  1  3  2 -1</clus>
</clustering>
</event>
<event>
 6    0  0.9315069E+002  0.1376653E+03  0.7546771E-02  0.1216505E+00
         21   -1    0    0  505  501  0.00000000000E+00  0.00000000000E+00  0.73927262019E+03  0.73927262019E+03  0.00000000000E+00 0. -1.
         21   -1    0    0  506  502 -0.00000000000E+00 -0.00000000000E+00 -0.23958349987E+03  0.23958349987E+03  0.00000000000E+00 0. -1.
         21    1    1    2  503  502  0.59797309702E+02  0.27083301234E+02 -0.78754996228E+02  0.10252596200E+03  0.00000000000E+00 0. -1.
         21    1    1    2  504  503  0.83597928448E+02 -0.62718211595E+02 -0.96223879379E+02  0.14206063026E+03  0.00000000000E+00 0. -1.
         21    1    1    2  505  504 -0.92065862123E+02  0.10548987571E+03  0.61067846674E+03  0.62652408300E+03  0.00000000000E+00 0. -1.
         21    1    1    2  506  501 -0.51329376028E+02 -0.69854965348E+02  0.63989529189E+02  0.10774544479E+03  0.00000000000E+00 0. -1.
<scales pt_clust_3="65.64468" pt_clust_4="14000.00000" pt_clust_5="137.66533" pt_clust_6="78.42128"></scales>
<clustering>
<clus scale="   65.645">  2  3  1 -1</clus>
<clus scale="   78.421">  2  6  1 -1</clus>
<clus scale="  137.665">  1  5  2 -1</clus>
<clus scale="  137.665">  1  3  2 -1</clus>
</clustering>
</event>
<event>
 6    0  0.9315069E+002  0.1614340E+03  0.7546771E-02  0.1187087E+00
         21   -1    0    0  504  501  0.00000000000E+00  0.00000000000E+00  0.13595890591E+04  0.13595890591E+04  0.00000000000E+00 0. -1.
         21   -1    0    0  506  502 -0.00000000000E+00 -0.00000000000E+00 -0.38964754886E+03  0.38964754886E+03  0.00000000000E+00 0. -1.
         21    1    1    2  503  501 -0.40611528112E+02 -0.66447757315E+01  0.17533706619E+03  0.18010146041E+03  0.00000000000E+00 0.  1.
         21    1    1    2  504  505  0.10176089635E+03 -0.49804491386E+01  0.56879251937E+03  0.57784514793E+03  0.00000000000E+00 0. -1.
         21    1    1    2  505  502  0.87359513098E+02 -0.38221553975E+02  0.58852225748E+03  0.59619713121E+03  0.00000000000E+00 0. -1.
         21    1    1    2  506  503 -0.14850888134E+03  0.49846778845E+02 -0.36271033277E+03  0.39509286845E+03  0.00000000000E+00 0. -1.
<scales pt_clust_3="41.15154" pt_clust_4="35.74062" pt_clust_5="35.74062" pt_clust_6="157.14987"></scales>
<clustering>
<clus scale="   35.741">  4  5 -1 -1</clus>
<clus scale="   41.152">  1  3  2 -1</clus>
<clus scale="  157.150">  2  6  1 -1</clus>
<clus scale="   41.152">  1  3  2 -1</clus>
</clustering>
</event>
<event>
 6    0  0.9315069E+002  0.8627337E+02  0.7546771E-02  0.1312136E+00
         21   -1    0    0  505  501  0.00000000000E+00  0.00000000000E+00  0.16103970020E+04  0.16103970020E+04  0.00000000000E+00 0. -1.
         21   -1    0    0  504  502 -0.00000000000E+00 -0.00000000000E+00 -0.15062832830E+02  0.15062832830E+02  0.00000000000E+00 0. -1.
         21    1    1    2  503  501 -0.53227912970E+02  0.31694456491E+02  0.26959287557E+03  0.27661899402E+03  0.00000000000E+00 0. -1.
         21    1    1    2  504  503  0.29265941917E+02  0.96915210511E+02  0.57636422171E+03  0.58518780699E+03  0.00000000000E+00 0. -1.
         21    1    1    2  505  506  0.25700101610E+02 -0.48681573697E+02  0.46515573613E+03  0.46840180369E+03  0.00000000000E+00 0. -1.
         21    1    1    2  506  502 -0.17381305580E+01 -0.79928093305E+02  0.28422133572E+03  0.29525123010E+03  0.00000000000E+00 0. -1.
<scales pt_clust_3="51.18863" pt_clust_4="86.27337" pt_clust_5="55.04899" pt_clust_6="14000.00000"></scales>
<clustering>
<clus scale="   55.049">  1  5  2 -1</clus>
<clus scale="   51.189">  1  3  2 -1</clus>
<clus scale="   86.273">  1  4  2 -1</clus>
<clus scale="   55.049">  1  3  2 -1</clus>
</clustering>
</event>
<event>
 6    0  0.9315069E+002  0.1232210E+03  0.7546771E-02  0.1237876E+00
         21   -1    0    0  503  501  0.00000000000E+00  0.00000000000E+00  0.76824479282E+03  0.76824479282E+03  0.00000000000E+00 0.  1.
         21   -1    0    0  506  502 -0.00000000000E+00 -0.00000000000E+00 -0.28852825635E+02  0.28852825635E+02  0.00000000000E+00 0.  1.
         21    1    1    2  503  502  0.13476057372E+02 -0.13120002971E+03  0.42947619553E+03  0.44927147077E+03  0.00000000000E+00 0.  1.
         21    1    1    2  504  505  0.18825829769E+02  0.67448547945E+02  0.19533660982E+03  0.20750930009E+03  0.00000000000E+00 0.  1.
         21    1    1    2  505  501 -0.24259977319E+02  0.26662587898E+02  0.84579250052E+02  0.91940685402E+02  0.00000000000E+00 0.  1.
         21    1    1    2  506  504 -0.80419098223E+01  0.37088893871E+02  0.29999911786E+02  0.48376162201E+02  0.00000000000E+00 0.  1.
<scales pt_clust_3="112.92673" pt_clust_4="35.37508" pt_clust_5="35.37508" pt_clust_6="37.95074"></scales>
<clustering>
<clus scale="   35.375">  4  5 -1 -1</clus>
<clus scale="   37.951">  2  6  1 -1</clus>
<clus scale="  112.927">  2  3  1 -1</clus>
<clus scale="  123.221">  1  3  2 -1</clus>
</clustering>
</event>
<event>
 6    0  0.9315069E+002  0.1485566E+03  0.7546771E-02  0.1202258E+00
         21   -1    0    0  506  501  0.00000000000E+00  0.00000000000E+00  0.26217218763E+03  0.26217218763E+03  0.00000000000E+00 0.  1.
         21   -1    0    0  503  502 -0.00000000000E+00 -0.00000000000E+00 -0.35005644161E+03  0.35005644161E+03  0.00000000000E+00 0.  1.
         21    1    1    2  503  501 -0.29406147345E+02 -0.24202100370E+02 -0.39177592778E+02  0.54638328487E+02  0.00000000000E+00 0.  1.
         21    1    1    2  504  505 -0.93894571358E+01 -0.11026351228E+03  0.43220904976E+02  0.11880341187E+03  0.00000000000E+00 0.  1.
         21    1    1    2  505  502  0.87216368195E+01  0.18176474646E+03 -0.22794492860E+03  0.29167341408E+03  0.00000000000E+00 0.  1.
         21    1    1    2  506  504  0.30073967661E+02 -0.47299133810E+02  0.13601736241E+03  0.14711347480E+03  0.00000000000E+00 0.  1.
<scales pt_clust_3="38.08495" pt_clust_4="148.55660" pt_clust_5="14000.00000" pt_clust_6="56.13972"></scales>
<clustering>
<clus scale="   38.085">  2  3  1 -1</clus>
<clus scale="   56.140">  1  6  2 -1</clus>
<clus scale="  148.557">  1  4  2 -1</clus>
<clus scale="   56.140">  1  3  2 -1</clus>
</clustering>
</event>
<event>
 6    0  0.9315069E+002  0.1281543E+03  0.7546771E-02  0.1230220E+00
         21   -1    0    0  503  501  0.00000000000E+00  0.00000000000E+00  0.86293850743E+02  0.86293850743E+02  0.00000000000E+00 0.  1.
         21   -1    0    0  505  502 -0.00000000000E+00 -0.00000000000E+00 -0.19496748673E+04  0.19496748673E+04  0.00000000000E+00 0.  1.
         21    1    1    2  503  504  0.16422936965E+01 -0.48214609357E+02  0.43191266158E+02  0.64752074534E+02  0.00000000000E+00 0.  1.
         21    1    1    2  504  506 -0.61492669955E+02 -0.76931583922E+02 -0.56353537709E+02  0.11347042908E+03  0.00000000000E+00 0.  1.
         21    1    1    2  505  501 -0.13381286550E+02  0.62564211500E+02 -0.49663963114E+03  0.50074370950E+03  0.00000000000E+00 0.  1.
         21    1    1    2  506  502  0.73231662809E+02  0.62581981778E+02 -0.13535791139E+04  0.13570025049E+04  0.00000000000E+00 0.  1.
<scales pt_clust_3="48.24257" pt_clust_4="128.15431" pt_clust_5="60.96648" pt_clust_6="14000.00000"></scales>
<clustering>
<clus scale="   48.243">  1  3  2 -1</clus>
<clus scale="   60.966">  2  5  1 -1</clus>
<clus scale="  128.154">  1  4  2 -1</clus>
<clus scale="   48.243">  1  3  2 -1</clus>
</clustering>
</event>
<event>
 6    0  0.9315069E+002  0.7518332E+02  0.7546771E-02  0.1343304E+00
         21   -1    0    0  503  501  0.00000000000E+00  0.00000000000E+00  0.13770354142E+04  0.13770354142E+04  0.00000000000E+00 0.  1.
         21   -1    0    0  506  502 -0.00000000000E+00 -0.00000000000E+00 -0.73172955002E+02  0.73172955002E+02  0.00000000000E+00 0. -1.
         21    1    1    2  503  502  0.10863131813E+03  0.40927660258E+02  0.23026820071E+03  0.25787454491E+03  0.00000000000E+00 0. -1.
         21    1    1    2  504  501 -0.30753034041E+02 -0.26384104156E+02  0.88786807061E+03  0.88879220342E+03  0.00000000000E+00 0.  1.
         21    1    1    2  505  504 -0.30964659372E+02 -0.36744019241E+02  0.23021866956E+03  0.23517986499E+03  0.00000000000E+00 0. -1.
         21    1    1    2  506  505 -0.46913624719E+02  0.22200463139E+02 -0.44492481656E+02  0.68361755915E+02  0.00000000000E+00 0. -1.
<scales pt_clust_3="14000.00000" pt_clust_4="40.52000" pt_clust_5="75.18332" pt_clust_6="52.31238"></scales>
<clustering>
<clus scale="   40.520">  1  4  2 -1</clus>
<clus scale="   52.312">  2  6  1 -1</clus>
<clus scale="   75.183">  1  5  2 -1</clus>
<clus scale="   40.520">  1  3  2 -1</clus>
</clustering>
</event>
<event>
 6    0  0.9315069E+002  0.7235896E+02  0.7546771E-02  0.1352250E+00
         21   -1    0    0  505  501  0.00000000000E+00  0.00000000000E+00  0.79743838961E+03  0.79743838961E+03  0.00000000000E+00 0.  1.
         21   -1    0    0  506  502 -0.00000000000E+00 -0.00000000000E+00 -0.86378726672E+02  0.86378726672E+02  0.00000000000E+00 0.  1.
         21    1    1    2  503  501  0.56358451324E+02 -0.40353924467E+02  0.43996232358E+03  0.44538922352E+03  0.00000000000E+00 0.  1.
         21    1    1    2  504  503 -0.24051911672E+02 -0.58758870247E+02  0.10692231863E+03  0.12435224770E+03  0.00000000000E+00 0. -1.
         21    1    1    2  505  502 -0.52275376328E+02  0.63871270488E+02  0.22575407760E+03  0.24036879523E+03  0.00000000000E+00 0. -1.
         21    1    1    2  506  504  0.19968836676E+02  0.35241524226E+02 -0.61579056871E+02  0.73706849838E+02  0.00000000000E+00 0.  1.
<scales pt_clust_3="72.35896" pt_clust_4="44.86486" pt_clust_5="14000.00000" pt_clust_6="40.50580"></scales>
<clustering>
<clus scale="   40.506">  2  6  1 -1</clus>
<clus scale="   44.865">  2  4  1 -1</clus>
<clus scale="   72.359">  1  3  2 -1</clus>
<clus scale="   72.359">  1  3  2 -1</clus>
</clustering>
</event>
<event>
 6    0  0.9315069E+002  0.1055146E+03  0.7546771E-02  0.1269109E+00
         21   -1    0    0  506  501  0.00000000000E+00  0.00000000000E+00  0.15190814488E+04  0.15190814488E+04  0.00000000000E+00 0.  1.
         21   -1    0    0  505  502 -0.00000000000E+00 -0.00000000000E+00 -0.11249388643E+03  0.11249388643E+03  0.00000000000E+00 0. -1.
         21    1    1    2  503  501  0.51802307245E+02  0.19976186332E+01  0.54053366029E+03  0.54301391089E+03  0.00000000000E+00 0.  1.
         21    1    1    2  504  502 -0.16090323481E+02 -0.48931000765E+02  0.27861774619E+03  0.28333900162E+03  0.00000000000E+00 0.  1.
         21    1    1    2  505  503 -0.92836351181E+01  0.94689443980E+02 -0.86795201537E+02  0.12878541723E+03  0.00000000000E+00 0. -1.
         21    1    1    2  506  504 -0.26428348645E+02 -0.47756061849E+02  0.67423135743E+03  0.67643700549E+03  0.00000000000E+00 0.  1.
<scales pt_clust_3="51.84081" pt_clust_4="44.43605" pt_clust_5="95.08408" pt_clust_6="44.43605"></scales>
<clustering>
<clus scale="   44.436">  4  6 -1 -1</clus>
<clus scale="   51.841">  1  3  2 -1</clus>
<clus scale="   95.084">  2  5  1 -1</clus>
<clus scale="   51.841">  1  3  2 -1</clus>
</clustering>
</event>
<event>
 6    0  0.9315069E+002  0.3479525E+03  0.7546771E-02  0.1063459E+00
         21   -1    0    0  506  501  0.00000000000E+00  0.00000000000E+00  0.81366070768E+03  0.81366070768E+03  0.00000000000E+00 0.  1.
         21   -1    0    0  504  502 -0.00000000000E+00 -0.00000000000E+00 -0.91198216906E+03  0.91198216906E+03  0.00000000000E+00 0. -1.
         21    1    1    2  503  505 -0.10611764896E+02  0.20130182970E+03 -0.27224787863E+03  0.33875351454E+03  0.00000000000E+00 0. -1.
         21    1    1    2  504  501 -0.69900220873E+01 -0.33883172352E+03  0.70104058939E+03  0.77866148309E+03  0.00000000000E+00 0.  1.
         21    1    1    2  505  502  0.60194096727E+01 -0.33760720695E+02 -0.38170511818E+03  0.38324250390E+03  0.00000000000E+00 0. -1.
         21    1    1    2  506  503  0.11582377310E+02  0.17129061452E+03 -0.14540905396E+03  0.22498537522E+03  0.00000000000E+00 0. -1.
<scales pt_clust_3="63.18308" pt_clust_4="341.36905" pt_clust_5="34.29314" pt_clust_6="63.18308"></scales>
<clustering>
<clus scale="   34.293">  2  5  1 -1</clus>
<clus scale="   63.183">  3  6 -1 -1</clus>
<clus scale="  341.369">  1  4  2 -1</clus>
<clus scale="  341.369">  1  3  2 -1</clus>
</clustering>
</event>
<event>
 6    0  0.9315069E+002  0.1446663E+03  0.7546771E-02  0.1207185E+00
         21   -1    0    0  504  501  0.00000000000E+00  0.00000000000E+00  0.45804134600E+03  0.45804134600E+03  0.00000000000E+00 0.  1.
         21   -1    0    0  506  502 -0.00000000000E+00 -0.00000000000E+00 -0.30590027891E+03  0.30590027891E+03  0.00000000000E+00 0. -1.
         21    1    1    2  503  502 -0.54113031588E+02  0.31568473689E+02 -0.18416080752E+03  0.19452504144E+03  0.00000000000E+00 0. -1.
         21    1    1    2  504  505 -0.44368160363E+02 -0.23900113978E+02  0.27407119085E+02  0.57366360166E+02  0.00000000000E+00 0.  1.
         21    1    1    2  505  503 -0.49604221978E+02  0.47024131509E+02 -0.72279659976E+02  0.99479631224E+02  0.00000000000E+00 0. -1.
         21    1    1    2  506  501  0.14808541393E+03 -0.54692491220E+02  0.38117441551E+03  0.41257059208E+03  0.00000000000E+00 0.  1.
<scales pt_clust_3="58.49822" pt_clust_4="50.39592" pt_clust_5="58.49822" pt_clust_6="131.09299"></scales>
<clustering>
<clus scale="   50.396">  1  4  2 -1</clus>
<clus scale="   58.498">  3  5 -1 -1</clus>
<clus scale="  131.093">  1  6  2 -1</clus>
<clus scale="   50.396">  1  3  2 -1</clus>
</clustering>
</event>
<event>
 6    0  0.9315069E+002  0.7797385E+02  0.7546771E-02  0.1334902E+00
         21   -1    0    0  504  501  0.00000000000E+00  0.00000000000E+00  0.72412894009E+02  0.72412894009E+02  0.00000000000E+00 0.  1.
         21   -1    0    0  505  502 -0.00000000000E+00 -0.00000000000E+00 -0.33379567782E+03  0.33379567782E+03  0.00000000000E+00 0.  1.
         21    1    1    2  503  502  0.85967188979E+02 -0.43155137529E+01 -0.93562867615E+02  0.12713375412E+03  0.00000000000E+00 0.  1.
         21    1    1    2  504  503 -0.67419466929E+02  0.38221268308E+02  0.21521446564E+01  0.77529875524E+02  0.00000000000E+00 0.  1.
         21    1    1    2  505  506 -0.43407670250E+02  0.40142046502E+01 -0.14136174191E+03  0.14793066536E+03  0.00000000000E+00 0.  1.
         21    1    1    2  506  501  0.24859948200E+02 -0.37919959205E+02 -0.28610318941E+02  0.53614276835E+02  0.00000000000E+00 0.  1.
<scales pt_clust_3="14000.00000" pt_clust_4="77.97385" pt_clust_5="43.59289" pt_clust_6="40.13040"></scales>
<clustering>
<clus scale="   43.593">  2  5  1 -1</clus>
<clus scale="   40.130">  2  6  1 -1</clus>
<clus scale="   77.974">  1  4  2 -1</clus>
<clus scale="   77.974">  1  3  2 -1</clus>
</clustering>
</event>
<event>
 6    0  0.9315069E+002  0.9749773E+02  0.7546771E-02  0.1285648E+00
         21   -1    0    0  503  501  0.00000000000E+00  0.00000000000E+00  0.32279028908E+03  0.32279028908E+03  0.00000000000E+00 0.  1.
         21   -1    0    0  506  502 -0.00000000000E+00 -0.00000000000E+00 -0.14178213545E+03  0.14178213545E+03  0.00000000000E+00 0.  1.
         21    1    1    2  503  502  0.89366275416E+02 -0.63020561834E+02  0.29968190738E+02  0.11338436776E+03  0.00000000000E+00 0.  1.
         21    1    1    2  504  501 -0.48236175527E+02 -0.17325820455E+00  0.16334850580E+03  0.17032173377E+03  0.00000000000E+00 0.  1.
         21    1    1    2  505  504 -0.71678017375E+02  0.44929144581E+02  0.57652158961E+02  0.10237254339E+03  0.00000000000E+00 0.  1.
         21    1    1    2  506  505  0.30547917485E+02  0.18264675457E+02 -0.69960701864E+02  0.78493779611E+02  0.00000000000E+00 0.  1.
<scales pt_clust_3="97.49773" pt_clust_4="46.66589" pt_clust_5="14000.00000" pt_clust_6="35.59176"></scales>
<clustering>
<clus scale="   35.592">  2  6  1 -1</clus>
<clus scale="   46.666">  1  4  2 -1</clus>
<clus scale="   97.498">  1  3  2 -1</clus>
<clus scale="   46.666">  1  3  2 -1</clus>
</clustering>
</event>
<event>
 6    0  0.9315069E+002  0.8631692E+02  0.7546771E-02  0.1312024E+00
         21   -1    0    0  506  501  0.00000000000E+00  0.00000000000E+00  0.20629539440E+02  0.20629539440E+02  0.00000000000E+00 0.  1.
         21   -1    0    0  504  502 -0.00000000000E+00 -0.00000000000E+00 -0.24242813971E+04  0.24242813971E+04  0.00000000000E+00 0. -1.
         21    1    1    2  503  501 -0.43903961516E+02  0.27415098408E+01 -0.21848579060E+03  0.22287017388E+03  0.00000000000E+00 0.  1.
         21    1    1    2  504  503  0.64364703805E+01 -0.13778637629E+03 -0.14463702333E+04  0.14529326775E+04  0.00000000000E+00 0. -1.
         21    1    1    2  505  502  0.33514356745E+02  0.64949610208E+02 -0.65810207217E+03  0.66214802074E+03  0.00000000000E+00 0. -1.
         21    1    1    2  506  505  0.39531343900E+01  0.70095256238E+02 -0.80693761655E+02  0.10696006446E+03  0.00000000000E+00 0.  1.
<scales pt_clust_3="43.98947" pt_clust_4="86.31692" pt_clust_5="71.28213" pt_clust_6="14000.00000"></scales>
<clustering>
<clus scale="   43.989">  1  3  2 -1</clus>
<clus scale="   71.282">  2  5  1 -1</clus>
<clus scale="   86.317">  2  4  1 -1</clus>
<clus scale="   43.989">  1  3  2 -1</clus>
</clustering>
</event>
<event>
 6    0  0.9315069E+002  0.1078032E+03  0.7546771E-02  0.1264693E+00
         21   -1    0    0  506  501  0.00000000000E+00  0.00000000000E+00  0.51576960442E+03  0.51576960442E+03  0.00000000000E+00 0.  1.
         21   -1    0    0  503  502 -0.00000000000E+00 -0.00000000000E+00 -0.92513674762E+02  0.92513674762E+02  0.00000000000E+00 0.  1.
         21    1    1    2  503  504  0.79704370769E+01 -0.11369735509E+03 -0.30982307651E+02  0.11811231862E+03  0.00000000000E+00 0.  1.
         21    1    1    2  504  505 -0.47267655667E+02  0.30531086583E+02  0.12839838092E+03  0.14018745573E+03  0.00000000000E+00 0.  1.
         21    1    1    2  505  501  0.40077597800E+02  0.14957550737E+02  0.49847734807E+02  0.65686671668E+02  0.00000000000E+00 0.  1.
         21    1    1    2  506  502 -0.78037920955E+00  0.68208717775E+02  0.27599212158E+03  0.28429683316E+03  0.00000000000E+00 0.  1.
<scales pt_clust_3="14000.00000" pt_clust_4="49.80558" pt_clust_5="42.77782" pt_clust_6="107.80316"></scales>
<clustering>
<clus scale="   42.778">  1  5  2 -1</clus>
<clus scale="   49.806">  1  4  2 -1</clus>
<clus scale="  107.803">  1  6  2 -1</clus>
<clus scale="   42.778">  1  3  2 -1</clus>
</clustering>
</event>
<event>
 6    0  0.9315069E+002  0.9007492E+02  0.7546771E-02  0.1302670E+00
         21   -1    0    0  504  501  0.00000000000E+00  0.00000000000E+00  0.43714972578E+03  0.43714972578E+03  0.00000000000E+00 0.  1.
         21   -1    0    0  503  502 -0.00000000000E+00 -0.00000000000E+00 -0.15858204423E+03  0.15858204423E+03  0.00000000000E+00 0.  1.
         21    1    1    2  503  501  0.26149262337E+02 -0.34152156319E+02  0.36391208437E+02  0.56342468472E+02  0.00000000000E+00 0.  1.
         21    1    1    2  504  505 -0.37281279658E+02  0.52287947533E+02  0.27243527837E+03  0.27990159730E+03  0.00000000000E+00 0.  1.
         21    1    1    2  505  506 -0.40428572176E+02  0.59417677262E+02  0.84997781892E+02  0.11130836782E+03  0.00000000000E+00 0.  1.
         21    1    1    2  506  502  0.51560589496E+02 -0.77553468476E+02 -0.11525658715E+03  0.14817933643E+03  0.00000000000E+00 0.  1.
<scales pt_clust_3="43.01341" pt_clust_4="33.85342" pt_clust_5="14000.00000" pt_clust_6="90.07492"></scales>
<clustering>
<clus scale="   43.013">  1  3  2 -1</clus>
<clus scale="   33.853">  1  4  2 -1</clus>
<clus scale="   90.075">  2  6  1 -1</clus>
<clus scale="   43.013">  1  3  2 -1</clus>
</clustering>
</event>
<event>
 6    0  0.9315069E+002  0.1073865E+03  0.7546771E-02  0.1265488E+00
         21   -1    0    0  506  501  0.00000000000E+00  0.00000000000E+00  0.75321043076E+03  0.75321043076E+03  0.00000000000E+00 0.  1.
         21   -1    0    0  505  502 -0.00000000000E+00 -0.00000000000E+00 -0.89933971773E+03  0.89933971773E+03  0.00000000000E+00 0.  1.
         21    1    1    2  503  502 -0.20467633883E+02  0.24113382305E+02 -0.52031220577E+03  0.52127264528E+03  0.00000000000E+00 0.  1.
         21    1    1    2  504  503 -0.46586497799E+02 -0.12460839546E+02 -0.13218569190E+03  0.14070760975E+03  0.00000000000E+00 0.  1.
         21    1    1    2  505  501  0.19068020839E+02  0.10568149946E+03  0.72765965885E+03  0.73554112588E+03  0.00000000000E+00 0.  1.
         21    1    1    2  506  504  0.47986110843E+02 -0.11733404222E+03 -0.22129104815E+03  0.25502876757E+03  0.00000000000E+00 0.  1.
<scales pt_clust_3="31.62877" pt_clust_4="54.09549" pt_clust_5="14000.00000" pt_clust_6="107.38651"></scales>
<clustering>
<clus scale="   31.629">  2  3  1 -1</clus>
<clus scale="   54.095">  2  4  1 -1</clus>
<clus scale="  107.387">  2  6  1 -1</clus>
<clus scale="  107.387">  1  3  2 -1</clus>
</clustering>
</event>
<event>
 6    0  0.9315069E+002  0.1126560E+03  0.7546771E-02  0.1255729E+00
         21   -1    0    0  505  501  0.00000000000E+00  0.00000000000E+00  0.86129499278E+02  0.86129499278E+02  0.00000000000E+00 0. -1.
         21   -1    0    0  506  502 -0.00000000000E+00 -0.00000000000E+00 -0.97435377900E+03  0.97435377900E+03  0.00000000000E+00 0. -1.
         21    1    1    2  503  501  0.53298968049E+02  0.57075363537E+01 -0.57432518627E+02  0.78561123733E+02  0.00000000000E+00 0. -1.
         21    1    1    2  504  502 -0.10469478249E+03  0.18635390572E+02 -0.78296887358E+03  0.79015728324E+03  0.00000000000E+00 0. -1.
         21    1    1    2  505  504  0.76570583129E+01 -0.73031187974E+02  0.38913991903E+02  0.83105256902E+02  0.00000000000E+00 0. -1.
         21    1    1    2  506  503  0.43738756127E+02  0.48688261048E+02 -0.86736879424E+02  0.10865961441E+03  0.00000000000E+00 0. -1.
<scales pt_clust_3="39.36002" pt_clust_4="103.92210" pt_clust_5="73.43150" pt_clust_6="39.36002"></scales>
<clustering>
<clus scale="   39.360">  3  6 -1 -1</clus>
<clus scale="   73.431">  1  5  2 -1</clus>
<clus scale="  103.922">  2  4  1 -1</clus>
<clus scale="   73.431">  1  3  2 -1</clus>
</clustering>
</event>
<event>
 6    0  0.9315069E+002  0.1243531E+03  0.7546771E-02  0.1236084E+00
         21   -1    0    0  505  501  0.00000000000E+00  0.00000000000E+00  0.52682884278E+03  0.52682884278E+03  0.00000000000E+00 0.  1.
         21   -1    0    0  503  502 -0.00000000000E+00 -0.00000000000E+00 -0.40788695115E+03  0.40788695115E+03  0.00000000000E+00 0.  1.
         21    1    1    2  503  504  0.11747064527E+03 -0.31229446636E+02 -0.34546129101E+03  0.36622142813E+03  0.00000000000E+00 0.  1.
         21    1    1    2  504  501 -0.19924931463E+02 -0.32755288940E+02  0.76788179067E+02  0.85827363305E+02  0.00000000000E+00 0.  1.
         21    1    1    2  505  506  0.58106043068E+02 -0.78160416078E+01  0.26627244123E+03  0.27265072108E+03  0.00000000000E+00 0.  1.
         21    1    1    2  506  502 -0.15565175687E+03  0.71800777184E+02  0.12134256235E+03  0.21001628141E+03  0.00000000000E+00 0.  1.
<scales pt_clust_3="14000.00000" pt_clust_4="38.33943" pt_clust_5="53.70590" pt_clust_6="124.35309"></scales>
<clustering>
<clus scale="   38.339">  1  4  2 -1</clus>
<clus scale="   53.706">  1  5  2 -1</clus>
<clus scale="  124.353">  1  6  2 -1</clus>
<clus scale="   38.339">  1  3  2 -1</clus>
</clustering>
</event>
<event>
 6    0  0.9315069E+002  0.2167129E+03  0.7546771E-02  0.1136358E+00
         21   -1    0    0  503  501  0.00000000000E+00  0.00000000000E+00  0.13071038464E+03  0.13071038464E+03  0.00000000000E+00 0. -1.
         21   -1    0    0  505  502 -0.00000000000E+00 -0.00000000000E+00 -0.98265700383E+03  0.98265700383E+03  0.00000000000E+00 0. -1.
         21    1    1    2  503  504 -0.41119058908E+02  0.20555815289E+03 -0.18882379195E+01  0.20963896744E+03  0.00000000000E+00 0. -1.
         21    1    1    2  504  502  0.12521983226E+02 -0.28469846560E+02 -0.51578344269E+03  0.51672032279E+03  0.00000000000E+00 0. -1.
         21    1    1    2  505  506  0.66970735899E+01 -0.13827815946E+03 -0.30126375823E+03  0.33155022576E+03  0.00000000000E+00 0. -1.
         21    1    1    2  506  501  0.21900002092E+02 -0.38810146875E+02 -0.33011180353E+02  0.55457872483E+02  0.00000000000E+00 0.  1.
<scales pt_clust_3="202.74867" pt_clust_4="31.10197" pt_clust_5="41.92039" pt_clust_6="41.92039"></scales>
<clustering>
<clus scale="   31.102">  2  4  1 -1</clus>
<clus scale="   41.920">  5  6 -1 -1</clus>
<clus scale="  202.749">  1  3  2 -1</clus>
<clus scale="  202.749">  1  3  2 -1</clus>
</clustering>
</event>
<event>
 6    0  0.9315069E+002  0.8249968E+02  0.7546771E-02  0.1322104E+00
         21   -1    0    0  504  501  0.00000000000E+00  0.00000000000E+00  0.19023040185E+04  0.19023040185E+04  0.00000000000E+00 0. -1.
         21   -1    0    0  503  502 -0.00000000000E+00 -0.00000000000E+00 -0.20788464052E+03  0.20788464052E+03  0.00000000000E+00 0. -1.
         21    1    1    2  503  501 -0.10700022530E+03 -0.20903739168E+02  0.88212166666E+03  0.88883330795E+03  0.00000000000E+00 0. -1.
         21    1    1    2  504  505  0.39855334389E+02  0.21900692967E+02  0.65361974889E+03  0.65519986582E+03  0.00000000000E+00 0. -1.
         21    1    1    2  505  506  0.81073448300E+02 -0.69898789261E+02  0.34805946191E+03  0.36414850513E+03  0.00000000000E+00 0. -1.
         21    1    1    2  506  502 -0.13928557393E+02  0.68901835462E+02 -0.18938149953E+03  0.20200698009E+03  0.00000000000E+00 0. -1.
<scales pt_clust_3="82.49968" pt_clust_4="45.47624" pt_clust_5="14000.00000" pt_clust_6="70.36456"></scales>
<clustering>
<clus scale="   45.476">  1  4  2 -1</clus>
<clus scale="   70.365">  2  6  1 -1</clus>
<clus scale="   82.500">  1  3  2 -1</clus>
<clus scale="   45.476">  1  3  2 -1</clus>
</clustering>
</event>
<event>
 6    0  0.9315069E+002  0.1450297E+03  0.7546771E-02  0.1206717E+00
         21   -1    0    0  504  501  0.00000000000E+00  0.00000000000E+00  0.50077888143E+03  0.50077888143E+03  0.00000000000E+00 0. -1.
         21   -1    0    0  506  502 -0.00000000000E+00 -0.00000000000E+00 -0.35048662050E+03  0.35048662050E+03  0.00000000000E+00 0. -1.
         21    1    1    2  503  501 -0.95014239971E+01  0.72670721647E+02 -0.38391140208E+02  0.82735666367E+02  0.00000000000E+00 0. -1.
         21    1    1    2  504  505 -0.53860238096E+02 -0.13691631807E+03  0.43660362714E+03  0.46072739297E+03  0.00000000000E+00 0. -1.
         21    1    1    2  505  502  0.79221812042E+02  0.97393868712E+02 -0.11625326504E+03  0.17110371942E+03  0.00000000000E+00 0. -1.
         21    1    1    2  506  503 -0.15860149949E+02 -0.33148272293E+02 -0.13166696095E+03  0.13669872318E+03  0.00000000000E+00 0. -1.
<scales pt_clust_3="64.90460" pt_clust_4="14000.00000" pt_clust_5="145.02974" pt_clust_6="36.74714"></scales>
<clustering>
<clus scale="   36.747">  2  6  1 -1</clus>
<clus scale="   64.905">  2  3  1 -1</clus>
<clus scale="  145.030">  2  5  1 -1</clus>
<clus scale="  145.030">  1  3  2 -1</clus>
</clustering>
</event>
<event>
 6    0  0.9315069E+002  0.9470120E+02  0.7546771E-02  0.1291850E+00
         21   -1    0    0  504  501  0.00000000000E+00  0.00000000000E+00  0.82093371463E+02  0.82093371463E+02  0.00000000000E+00 0. -1.
         21   -1    0    0  505  502 -0.00000000000E+00 -0.00000000000E+00 -0.11453824233E+04  0.11453824233E+04  0.00000000000E+00 0.  1.
         21    1    1    2  503  501 -0.11476331368E+03 -0.10448096131E+02  0.68816175910E+01  0.11544322215E+03  0.00000000000E+00 0. -1.
         21    1    1    2  504  506  0.32373212970E+02 -0.18994131488E+01 -0.46151081591E+02  0.56405274756E+02  0.00000000000E+00 0. -1.
         21    1    1    2  505  503 -0.64682007327E+02  0.65697703204E+02 -0.26296446936E+03  0.27865796673E+03  0.00000000000E+00 0. -1.
         21    1    1    2  506  502  0.14707210803E+03 -0.53350193925E+02 -0.76105511847E+03  0.77696933112E+03  0.00000000000E+00 0.  1.
<scales pt_clust_3="14000.00000" pt_clust_4="32.42889" pt_clust_5="89.76901" pt_clust_6="94.70120"></scales>
<clustering>
<clus scale="   32.429">  1  4  2 -1</clus>
<clus scale="   89.769">  2  5  1 -1</clus>
<clus scale="   94.701">  2  6  1 -1</clus>
<clus scale="   32.429">  1  3  2 -1</clus>
</clustering>
</event>
<event>
 6    0  0.9315069E+002  0.1740612E+03  0.7546771E-02  0.1173678E+00
         21   -1    0    0  503  501  0.00000000000E+00  0.00000000000E+00  0.54881832338E+03  0.54881832338E+03  0.00000000000E+00 0. -1.
         21   -1    0    0  506  502 -0.00000000000E+00 -0.00000000000E+00 -0.21978323782E+03  0.21978323782E+03  0.00000000000E+00 0. -1.
         21    1    1    2  503  504  0.65722530345E+02  0.20787632948E+03  0.20773229283E+03  0.30113904569E+03  0.00000000000E+00 0. -1.
         21    1    1    2  504  502 -0.10016214840E+03 -0.78030626357E+02 -0.55338359170E+02  0.13850476027E+03  0.00000000000E+00 0. -1.
         21    1    1    2  505  501  0.15281295761E+02 -0.15551761378E+03  0.22318681773E+03  0.27245477020E+03  0.00000000000E+00 0. -1.
         21    1    1    2  506  505  0.19158322298E+02  0.25671910658E+02 -0.46545665835E+02  0.56502985037E+02  0.00000000000E+00 0. -1.
<scales pt_clust_3="174.06120" pt_clust_4="109.28491" pt_clust_5="14000.00000" pt_clust_6="32.03261"></scales>
<clustering>
<clus scale="   32.033">  2  6  1 -1</clus>
<clus scale="  109.285">  2  4  1 -1</clus>
<clus scale="  174.061">  2  3  1 -1</clus>
<clus scale="  174.061">  1  3  2 -1</clus>
</clustering>
</event>
<event>
 6    0  0.9315069E+002  0.1787642E+03  0.7546771E-02  0.1169004E+00
         21   -1    0    0  504  501  0.00000000000E+00  0.00000000000E+00  0.14488757496E+03  0.14488757496E+03  0.00000000000E+00 0. -1.
         21   -1    0    0  506  502 -0.00000000000E+00 -0.00000000000E+00 -0.88277966292E+03  0.88277966292E+03  0.00000000000E+00 0.  1.
         21    1    1    2  503  502  0.82573662947E+02 -0.71403453678E+02 -0.69830093562E+03  0.70678218688E+03  0.00000000000E+00 0.  1.
         21    1    1    2  504  505 -0.83757923412E+02  0.38118372436E+02  0.53238870168E+02  0.10631452087E+03  0.00000000000E+00 0. -1.
         21    1    1    2  505  503 -0.72581071909E+02  0.49887618793E+02  0.81177093296E+01  0.88445936668E+02  0.00000000000E+00 0. -1.
         21    1    1    2  506  501  0.73765332374E+02 -0.16602537551E+02 -0.10094773183E+03  0.12612459346E+03  0.00000000000E+00 0. -1.
<scales pt_clust_3="173.13739" pt_clust_4="43.53218" pt_clust_5="43.53218" pt_clust_6="75.61064"></scales>
<clustering>
<clus scale="   43.532">  4  5 -1 -1</clus>
<clus scale="   75.611">  2  6  1 -1</clus>
<clus scale="  173.137">  2  3  1 -1</clus>
<clus scale="  178.764">  1  3  2 -1</clus>
</clustering>
</event>
<event>
 6    0  0.9315069E+002  0.1686057E+03  0.7546771E-02  0.1179310E+00
         21   -1    0    0  506  501  0.00000000000E+00  0.00000000000E+00  0.35489434578E+03  0.35489434578E+03  0.00000000000E+00 0.  1.
         21   -1    0    0  504  502 -0.00000000000E+00 -0.00000000000E+00 -0.15168547650E+04  0.15168547650E+04  0.00000000000E+00 0.  1.
         21    1    1    2  503  505  0.79564377066E+02  0.34335454528E+02  0.18380934081E+03  0.20321241917E+03  0.00000000000E+00 0.  1.
         21    1    1    2  504  501 -0.26636993090E+02  0.66664473768E+02 -0.37053557546E+02  0.80787669792E+02  0.00000000000E+00 0.  1.
         21    1    1    2  505  502 -0.50361530091E+02 -0.16400602655E+03 -0.14357294863E+04  0.14459437812E+04  0.00000000000E+00 0.  1.
         21    1    1    2  506  503 -0.25658538851E+01  0.63006098249E+02  0.12701328380E+03  0.14180524068E+03  0.00000000000E+00 0.  1.
<scales pt_clust_3="168.60573" pt_clust_4="77.71416" pt_clust_5="14000.00000" pt_clust_6="63.05832"></scales>
<clustering>
<clus scale="   63.058">  1  6  2 -1</clus>
<clus scale="   77.714">  1  4  2 -1</clus>
<clus scale="  168.606">  1  3  2 -1</clus>
<clus scale="   63.058">  1  3  2 -1</clus>
</clustering>
</event>
<event>
 6    0  0.9315069E+002  0.1098677E+03  0.7546771E-02  0.1260815E+00
         21   -1    0    0  503  501  0.00000000000E+00  0.00000000000E+00  0.30452182741E+03  0.30452182741E+03  0.00000000000E+00 0.  1.
         21   -1    0    0  506  502 -0.00000000000E+00 -0.00000000000E+00 -0.16612592721E+03  0.16612592721E+03  0.00000000000E+00 0. -1.
         21    1    1    2  503  504  0.91642624922E+02  0.18379495658E+02  0.23180370666E+03  0.24993826235E+03  0.00000000000E+00 0.  1.
         21    1    1    2  504  502  0.43638600974E+02 -0.31479671522E+02 -0.30677029702E+02  0.61938496635E+02  0.00000000000E+00 0. -1.
         21    1    1    2  505  501 -0.50611685599E+02 -0.46301133448E+01  0.17880636278E+01  0.50854477092E+02  0.00000000000E+00 0.  1.
         21    1    1    2  506  505 -0.84669540296E+02  0.17730289209E+02 -0.64518840387E+02  0.10791651854E+03  0.00000000000E+00 0. -1.
<scales pt_clust_3="96.28325" pt_clust_4="53.80797" pt_clust_5="40.56218" pt_clust_6="40.56218"></scales>
<clustering>
<clus scale="   40.562">  5  6 -1 -1</clus>
<clus scale="   53.808">  2  4  1 -1</clus>
<clus scale="   96.283">  1  3  2 -1</clus>
<clus scale="   96.283">  1  3  2 -1</clus>
</clustering>
</event>
<event>
 6    0  0.9315069E+002  0.2091846E+03  0.7546771E-02  0.1142213E+00
         21   -1    0    0  504  501  0.00000000000E+00  0.00000000000E+00  0.72684102917E+03  0.72684102917E+03  0.00000000000E+00 0. -1.
         21   -1    0    0  506  502 -0.00000000000E+00 -0.00000000000E+00 -0.22388378986E+03  0.22388378986E+03  0.00000000000E+00 0.  1.
         21    1    1    2  503  502  0.51737446923E+02  0.75968137631E+02  0.14862765742E+03  0.17475154334E+03  0.00000000000E+00 0.  1.
         21    1    1    2  504  503  0.37576220826E+02  0.13140447220E+03  0.39341957887E+03  0.41648298012E+03  0.00000000000E+00 0. -1.
         21    1    1    2  505  501  0.14979576303E+02 -0.15849274294E+03  0.92891170064E+02  0.18431795015E+03  0.00000000000E+00 0. -1.
         21    1    1    2  506  505 -0.10429324405E+03 -0.48879866889E+02 -0.13198116705E+03  0.17517234541E+03  0.00000000000E+00 0.  1.
<scales pt_clust_3="56.59475" pt_clust_4="56.59475" pt_clust_5="197.47270" pt_clust_6="115.17952"></scales>
<clustering>
<clus scale="   56.595">  3  4 -1 -1</clus>
<clus scale="  115.180">  2  6  1 -1</clus>
<clus scale="  197.473">  2  5  1 -1</clus>
<clus scale="  209.185">  1  3  2 -1</clus>
</clustering>
</event>
<event>
 6    0  0.9315069E+002  0.6438660E+02  0.7546771E-02  0.1380294E+00
         21   -1    0    0  505  501  0.00000000000E+00  0.00000000000E+00  0.23884074443E+03  0.23884074443E+03  0.00000000000E+00 0. -1.
         21   -1    0    0  503  502 -0.00000000000E+00 -0.00000000000E+00 -0.33740917847E+03  0.33740917847E+03  0.00000000000E+00 0. -1.
         21    1    1    2  503  501  0.72373803364E+02  0.39929607872E+02 -0.74051298171E+02  0.11097718576E+03  0.00000000000E+00 0. -1.
         21    1    1    2  504  506  0.34387427086E+02 -0.52642479291E+02 -0.39568694266E+02  0.74292713865E+02  0.00000000000E+00 0. -1.
         21    1    1    2  505  504 -0.63823025864E+02 -0.19059005324E+01  0.19511209660E+03  0.20529427982E+03  0.00000000000E+00 0. -1.
         21    1    1    2  506  502 -0.42938204586E+02  0.14618771951E+02 -0.18006053820E+03  0.18568574346E+03  0.00000000000E+00 0. -1.
<scales pt_clust_3="64.38660" pt_clust_4="50.77432" pt_clust_5="14000.00000" pt_clust_6="45.35855"></scales>
<clustering>
<clus scale="   45.359">  2  6  1 -1</clus>
<clus scale="   50.774">  2  4  1 -1</clus>
<clus scale="   64.387">  2  3  1 -1</clus>
<clus scale="   64.387">  1  3  2 -1</clus>
</clustering>
</event>
<event>
 6    0  0.9315069E+002  0.1244859E+03  0.7546771E-02  0.1235875E+00
         21   -1    0    0  503  501  0.00000000000E+00  0.00000000000E+00  0.63062943969E+03  0.63062943969E+03  0.00000000000E+00 0. -1.
         21   -1    0    0  506  502 -0.00000000000E+00 -0.00000000000E+00 -0.11508479818E+03  0.11508479818E+03  0.00000000000E+00 0.  1.
         21    1    1    2  503  505 -0.53412161609E+01 -0.13893779635E+03  0.73078183672E+02  0.15707533471E+03  0.00000000000E+00 0.  1.
         21    1    1    2  504  501 -0.18115286848E+02  0.26421990791E+02  0.32919682929E+03  0.33075192763E+03  0.00000000000E+00 0. -1.
         21    1    1    2  505  502  0.78333229716E+02  0.98692940075E+02 -0.57139760530E+01  0.12613104622E+03  0.00000000000E+00 0.  1.
         21    1    1    2  506  504 -0.54876726707E+02  0.13822865486E+02  0.11898360460E+03  0.13175592931E+03  0.00000000000E+00 0.  1.
<scales pt_clust_3="124.48594" pt_clust_4="32.03569" pt_clust_5="14000.00000" pt_clust_6="67.19101"></scales>
<clustering>
<clus scale="   32.036">  1  4  2 -1</clus>
<clus scale="   67.191">  1  6  2 -1</clus>
<clus scale="  124.486">  1  3  2 -1</clus>
<clus scale="   32.036">  1  3  2 -1</clus>
</clustering>
</event>
<event>
 6    0  0.9315069E+002  0.8614522E+02  0.7546771E-02  0.1312465E+00
         21   -1    0    0  504  501  0.00000000000E+00  0.00000000000E+00  0.16689564822E+03  0.16689564822E+03  0.00000000000E+00 0. -1.
         21   -1    0    0  505  502 -0.00000000000E+00 -0.00000000000E+00 -0.98454964221E+03  0.98454964221E+03  0.00000000000E+00 0. -1.
         21    1    1    2  503  501  0.73578775828E+02 -0.18267927216E+02 -0.11152341610E+03  0.13485186597E+03  0.00000000000E+00 0. -1.
         21    1    1    2  504  506 -0.83542417625E+01 -0.44423549295E+02  0.14110139138E+03  0.14816493424E+03  0.00000000000E+00 0. -1.
         21    1    1    2  505  503 -0.20098638240E+02 -0.58011948663E+02 -0.30169017733E+03  0.30787384517E+03  0.00000000000E+00 0. -1.
         21    1    1    2  506  502 -0.45125895826E+02  0.12070342517E+03 -0.54554179195E+03  0.56055464505E+03  0.00000000000E+00 0. -1.
<scales pt_clust_3="86.14522" pt_clust_4="45.20227" pt_clust_5="67.61072" pt_clust_6="14000.00000"></scales>
<clustering>
<clus scale="   45.202">  1  4  2 -1</clus>
<clus scale="   67.611">  2  5  1 -1</clus>
<clus scale="   86.145">  1  3  2 -1</clus>
<clus scale="   45.202">  1  3  2 -1</clus>
</clustering>
</event>
<event>
 6    0  0.9315069E+002  0.3145416E+03  0.7546771E-02  0.1078189E+00
         21   -1    0    0  503  501  0.00000000000E+00  0.00000000000E+00  0.99236906371E+03  0.99236906371E+03  0.00000000000E+00 0.  1.
         21   -1    0    0  504  502 -0.00000000000E+00 -0.00000000000E+00 -0.23060826631E+03  0.23060826631E+03  0.00000000000E+00 0.  1.
         21    1    1    2  503  506  0.27693277908E+02  0.12330727226E+03  0.34156215371E+03  0.36419267686E+03  0.00000000000E+00 0.  1.
         21    1    1    2  504  505  0.16201411861E+03 -0.29423326660E+03  0.35208055062E+03  0.48660302499E+03  0.00000000000E+00 0.  1.
         21    1    1    2  505  501 -0.12439320366E+02 -0.43962826981E+02  0.81345142356E+02  0.93297904758E+02  0.00000000000E+00 0.  1.
         21    1    1    2  506  502 -0.17726807615E+03  0.21488882132E+03 -0.13227049286E+02  0.27888372341E+03  0.00000000000E+00 0.  1.
<scales pt_clust_3="126.37880" pt_clust_4="39.85581" pt_clust_5="39.85581" pt_clust_6="295.39531"></scales>
<clustering>
<clus scale="   39.856">  4  5 -1 -1</clus>
<clus scale="  126.379">  1  3  2 -1</clus>
<clus scale="  295.395">  2  6  1 -1</clus>
<clus scale="  126.379">  1  3  2 -1</clus>
</clustering>
</event>
<event>
 6    0  0.9315069E+002  0.1373512E+03  0.7546771E-02  0.1216938E+00
         21   -1    0    0  503  501  0.00000000000E+00  0.00000000000E+00  0.54978542027E+03  0.54978542027E+03  0.00000000000E+00 0. -1.
         21   -1    0    0  505  502 -0.00000000000E+00 -0.00000000000E+00 -0.46008665666E+03  0.46008665666E+03  0.00000000000E+00 0. -1.
         21    1    1    2  503  506 -0.91909368150E+02  0.49411068075E+02 -0.22244261638E+01  0.10437305052E+03  0.00000000000E+00 0.  1.
         21    1    1    2  504  501  0.36715049696E+02  0.89006758563E+02  0.44265221607E+03  0.45300240875E+03  0.00000000000E+00 0. -1.
         21    1    1    2  505  504 -0.83375231943E+02 -0.81491876896E+02 -0.74784490446E+02  0.13851019931E+03  0.00000000000E+00 0. -1.
         21    1    1    2  506  502  0.13856955040E+03 -0.56925949743E+02 -0.27594453584E+03  0.31398641836E+03  0.00000000000E+00 0. -1.
<scales pt_clust_3="137.35121" pt_clust_4="96.28187" pt_clust_5="89.72724" pt_clust_6="14000.00000"></scales>
<clustering>
<clus scale="   96.282">  1  4  2 -1</clus>
<clus scale="   89.727">  1  5  2 -1</clus>
<clus scale="  137.351">  1  3  2 -1</clus>
<clus scale="   96.282">  1  3  2 -1</clus>
</clustering>
</event>
<event>
 6    0  0.9315069E+002  0.3046978E+03  0.7546771E-02  0.1082916E+00
         21   -1    0    0  505  501  0.00000000000E+00  0.00000000000E+00  0.67296499627E+03  0.67296499627E+03  0.00000000000E+00 0.  1.
         21   -1    0    0  506  502 -0.00000000000E+00 -0.00000000000E+00 -0.49052263881E+03  0.49052263881E+03  0.00000000000E+00 0.  1.
         21    1    1    2  503  502  0.67683755194E+02  0.29120760163E+02 -0.23837787496E+02  0.77442556145E+02  0.00000000000E+00 0. -1.
         21    1    1    2  504  501  0.29859622958E+02 -0.35254684217E+01  0.11378474168E+03  0.11769024364E+03  0.00000000000E+00 0. -1.
         21    1    1    2  505  503  0.25976590617E+03  0.87883245007E+02  0.39897192449E+03  0.48412848221E+03  0.00000000000E+00 0.  1.
         21    1    1    2  506  504 -0.35730928432E+03 -0.11347853675E+03 -0.30647652121E+03  0.48422635308E+03  0.00000000000E+00 0.  1.
<scales pt_clust_3="74.93827" pt_clust_4="30.06703" pt_clust_5="14000.00000" pt_clust_6="304.69778"></scales>
<clustering>
<clus scale="   30.067">  1  4  2 -1</clus>
<clus scale="   74.938">  2  3  1 -1</clus>
<clus scale="  304.698">  2  6  1 -1</clus>
<clus scale="   30.067">  1  3  2 -1</clus>
</clustering>
</event>
<event>
 6    0  0.9315069E+002  0.1634642E+03  0.7546771E-02  0.1184840E+00
         21   -1    0    0  504  501  0.00000000000E+00  0.00000000000E+00  0.49070084146E+03  0.49070084146E+03  0.00000000000E+00 0. -1.
         21   -1    0    0  503  502 -0.00000000000E+00 -0.00000000000E+00 -0.15099453062E+03  0.15099453062E+03  0.00000000000E+00 0. -1.
         21    1    1    2  503  506 -0.11254493019E+03 -0.49858014006E+02  0.54170808109E+02  0.13448665109E+03  0.00000000000E+00 0. -1.
         21    1    1    2  504  505  0.11016647766E+03 -0.66104530988E+01  0.23274776599E+02  0.11279213676E+03  0.00000000000E+00 0. -1.
         21    1    1    2  505  502  0.61591300590E+02 -0.26342876658E+01 -0.44771579603E+02  0.76190039506E+02  0.00000000000E+00 0. -1.
         21    1    1    2  506  501 -0.59212848059E+02  0.59102754770E+02  0.30703230574E+03  0.31822654472E+03  0.00000000000E+00 0. -1.
<scales pt_clust_3="145.10200" pt_clust_4="56.25739" pt_clust_5="56.25739" pt_clust_6="83.66180"></scales>
<clustering>
<clus scale="   56.257">  4  5 -1 -1</clus>
<clus scale="   83.662">  1  6  2 -1</clus>
<clus scale="  145.102">  1  3  2 -1</clus>
<clus scale="   83.662">  1  3  2 -1</clus>
</clustering>
</event>
<event>
 6    0  0.9315069E+002  0.1038771E+03  0.7546771E-02  0.1272348E+00
         21   -1    0    0  506  501  0.00000000000E+00  0.00000000000E+00  0.65369322809E+03  0.65369322809E+03  0.00000000000E+00 0. -1.
         21   -1    0    0  504  502 -0.00000000000E+00 -0.00000000000E+00 -0.42781175955E+03  0.42781175955E+03  0.00000000000E+00 0.  1.
         21    1    1    2  503  505 -0.59475029926E+02 -0.35431440055E+02  0.16291302190E+03  0.17701219967E+03  0.00000000000E+00 0. -1.
         21    1    1    2  504  501  0.11116977259E+03  0.73965159222E+02 -0.14874467332E+03  0.19988632008E+03  0.00000000000E+00 0.  1.
         21    1    1    2  505  502 -0.14805318797E+02 -0.28828400699E+02 -0.24458199921E+03  0.24671973672E+03  0.00000000000E+00 0.  1.
         21    1    1    2  506  503 -0.36889423868E+02 -0.97053184674E+01  0.45629511917E+03  0.45788673117E+03  0.00000000000E+00 0. -1.
<scales pt_clust_3="14000.00000" pt_clust_4="103.87712" pt_clust_5="32.40793" pt_clust_6="38.23950"></scales>
<clustering>
<clus scale="   32.408">  2  5  1 -1</clus>
<clus scale="   38.240">  1  6  2 -1</clus>
<clus scale="  103.877">  2  4  1 -1</clus>
<clus scale="   38.240">  1  3  2 -1</clus>
</clustering>
</event>
<event>
 6    0  0.9315069E+002  0.1562617E+03  0.7546771E-02  0.1192983E+00
         21   -1    0    0  504  501  0.00000000000E+00  0.00000000000E+00  0.13789345133E+03  0.13789345133E+03  0.00000000000E+00 0.  1.
         21   -1    0    0  503  502 -0.00000000000E+00 -0.00000000000E+00 -0.54806983101E+03  0.54806983101E+03  0.00000000000E+00 0.  1.
         21    1    1    2  503  501  0.17469813350E+02  0.35006087526E+02  0.31463824962E+02  0.50205505909E+02  0.00000000000E+00 0. -1.
         21    1    1    2  504  505  0.78085459296E+02 -0.96138605843E+01  0.19079815095E+02  0.80955571846E+02  0.00000000000E+00 0.  1.
         21    1    1    2  505  506  0.51509337415E+02  0.24333006563E+02  0.11152043798E+02  0.58048902920E+02  0.00000000000E+00 0.  1.
         21    1    1    2  506  502 -0.14706461006E+03 -0.49725233505E+02 -0.47187206353E+03  0.49675330167E+03  0.00000000000E+00 0.  1.
<scales pt_clust_3="39.12315" pt_clust_4="31.80275" pt_clust_5="31.80275" pt_clust_6="151.72639"></scales>
<clustering>
<clus scale="   31.803">  4  5 -1 -1</clus>
<clus scale="   39.123">  1  3  2 -1</clus>
<clus scale="  151.726">  2  6  1 -1</clus>
<clus scale="   39.123">  1  3  2 -1</clus>
</clustering>
</event>
<event>
 6    0  0.9315069E+002  0.7893361E+02  0.7546771E-02  0.1332105E+00
         21   -1    0    0  505  501  0.00000000000E+00  0.00000000000E+00  0.70037252096E+02  0.70037252096E+02  0.00000000000E+00 0.  1.
         21   -1    0    0  504  502 -0.00000000000E+00 -0.00000000000E+00 -0.51871994994E+03  0.51871994994E+03  0.00000000000E+00 0. -1.
         21    1    1    2  503  501 -0.67867594292E+02 -0.44267249532E+01 -0.94759263443E+02  0.11664014856E+03  0.00000000000E+00 0. -1.
         21    1    1    2  504  503 -0.66045806999E+02  0.13057737865E+02 -0.27257411168E+03  0.28076538159E+03  0.00000000000E+00 0. -1.
         21    1    1    2  505  506  0.80126370773E+02  0.22974002088E+02  0.64962767963E+01  0.83607665183E+02  0.00000000000E+00 0.  1.
         21    1    1    2  506  502  0.53787030519E+02 -0.31605015000E+02 -0.87845599515E+02  0.10774400670E+03  0.00000000000E+00 0.  1.
<scales pt_clust_3="78.93361" pt_clust_4="31.64717" pt_clust_5="14000.00000" pt_clust_6="62.38527"></scales>
<clustering>
<clus scale="   62.385">  2  6  1 -1</clus>
<clus scale="   31.647">  2  4  1 -1</clus>
<clus scale="   78.934">  2  3  1 -1</clus>
<clus scale="   78.934">  1  3  2 -1</clus>
</clustering>
</event>
<event>
 6    0  0.9315069E+002  0.8649903E+02  0.7546771E-02  0.1311558E+00
         21   -1    0    0  505  501  0.00000000000E+00  0.00000000000E+00  0.10602473960E+03  0.10602473960E+03  0.00000000000E+00 0. -1.
         21   -1    0    0  506  502 -0.00000000000E+00 -0.00000000000E+00 -0.12887780459E+04  0.12887780459E+04  0.00000000000E+00 0.  1.
         21    1    1    2  503  504 -0.12854169336E+03 -0.58358012043E+01 -0.67386587857E+03  0.68604099426E+03  0.00000000000E+00 0.  1.
         21    1    1    2  504  501  0.50970412575E+02 -0.73468761700E+01  0.89045757305E+02  0.10286450526E+03  0.00000000000E+00 0. -1.
         21    1    1    2  505  502  0.53527722347E+02  0.35045409973E+02 -0.44267090397E+03  0.44727053004E+03  0.00000000000E+00 0.  1.
         21    1    1    2  506  503  0.24043558436E+02 -0.21862732599E+02 -0.15526228106E+03  0.15862675593E+03  0.00000000000E+00 0.  1.
<scales pt_clust_3="14000.00000" pt_clust_4="51.66161" pt_clust_5="86.49903" pt_clust_6="32.49726"></scales>
<clustering>
<clus scale="   32.497">  2  6  1 -1</clus>
<clus scale="   51.662">  1  4  2 -1</clus>
<clus scale="   86.499">  2  5  1 -1</clus>
<clus scale="   51.662">  1  3  2 -1</clus>
</clustering>
</event>
<event>
 6    0  0.9315069E+002  0.1336689E+03  0.7546771E-02  0.1222111E+00
         21   -1    0    0  506  501  0.00000000000E+00  0.00000000000E+00  0.43518634536E+03  0.43518634536E+03  0.00000000000E+00 0.  1.
         21   -1    0    0  503  502 -0.00000000000E+00 -0.00000000000E+00 -0.13553181920E+03  0.13553181920E+03  0.00000000000E+00 0.  1.
         21    1    1    2  503  505 -0.38765259948E+02 -0.57891325171E+02 -0.44470904156E+02  0.82654777390E+02  0.00000000000E+00 0.  1.
         21    1    1    2  504  501  0.20863711642E+02  0.27429172408E+02  0.29974305787E+03  0.30171767384E+03  0.00000000000E+00 0.  1.
         21    1    1    2  505  504  0.95917328925E+01 -0.70077915085E+02 -0.10490481087E+02  0.71505004831E+02  0.00000000000E+00 0.  1.
         21    1    1    2  506  502  0.83098154142E+01  0.10054006785E+03  0.54872853525E+02  0.11484070850E+03  0.00000000000E+00 0. -1.
<scales pt_clust_3="59.00953" pt_clust_4="34.46236" pt_clust_5="59.00953" pt_clust_6="119.79196"></scales>
<clustering>
<clus scale="   34.462">  1  4  2 -1</clus>
<clus scale="   59.010">  3  5 -1 -1</clus>
<clus scale="  119.792">  1  6  2 -1</clus>
<clus scale="   34.462">  1  3  2 -1</clus>
</clustering>
</event>
<event>
 6    0  0.9315069E+002  0.1622999E+03  0.7546771E-02  0.1186124E+00
         21   -1    0    0  503  501  0.00000000000E+00  0.00000000000E+00  0.82167014849E+02  0.82167014849E+02  0.00000000000E+00 0. -1.
         21   -1    0    0  504  502 -0.00000000000E+00 -0.00000000000E+00 -0.38715912968E+03  0.38715912968E+03  0.00000000000E+00 0. -1.
         21    1    1    2  503  502 -0.25497205327E+02 -0.15449854665E+03 -0.10479927292E+03  0.18842185648E+03  0.00000000000E+00 0. -1.
         21    1    1    2  504  505  0.33656626515E+02  0.42623825786E+01 -0.56352226325E+02  0.65776210179E+02  0.00000000000E+00 0. -1.
         21    1    1    2  505  506  0.10320639181E+02  0.70077968229E+02 -0.98116439979E+02  0.12101352411E+03  0.00000000000E+00 0. -1.
         21    1    1    2  506  501 -0.18480060370E+02  0.80158195845E+02 -0.45724175606E+02  0.94114553749E+02  0.00000000000E+00 0. -1.
<scales pt_clust_3="152.93387" pt_clust_4="33.92545" pt_clust_5="51.91230" pt_clust_6="51.91230"></scales>
<clustering>
<clus scale="   33.925">  2  4  1 -1</clus>
<clus scale="   51.912">  5  6 -1 -1</clus>
<clus scale="  152.934">  1  3  2 -1</clus>
<clus scale="  152.934">  1  3  2 -1</clus>
</clustering>
</event>
<event>
 6    0  0.9315069E+002  0.1597601E+03  0.7546771E-02  0.1188968E+00
         21   -1    0    0  502  501  0.00000000000E+00  0.00000000000E+00  0.47693680147E+03  0.47693680147E+03  0.00000000000E+00 0.  1.
         21   -1    0    0  505  502 -0.00000000000E+00 -0.00000000000E+00 -0.19451889178E+03  0.19451889178E+03  0.00000000000E+00 0.  1.
         21    1    1    2  503  504  0.12314108960E+02 -0.51677384560E+02  0.12868373906E+03  0.13921815274E+03  0.00000000000E+00 0. -1.
         21    1    1    2  504  501 -0.45470525079E+02 -0.18004585875E+02  0.66426378882E+02  0.82487560122E+02  0.00000000000E+00 0.  1.
         21    1    1    2  505  506 -0.11687675660E+03  0.11411912595E+03 -0.11073797256E+03  0.19734804207E+03  0.00000000000E+00 0.  1.
         21    1    1    2  506  503  0.15003317271E+03 -0.44437155517E+02  0.19804576431E+03  0.25240193832E+03  0.00000000000E+00 0.  1.
<scales pt_clust_3="57.73843" pt_clust_4="48.90536" pt_clust_5="14000.00000" pt_clust_6="159.76013"></scales>
<clustering>
<clus scale="   48.905">  1  4  2 -1</clus>
<clus scale="   57.738">  1  3  2 -1</clus>
<clus scale="  159.760">  1  6  2 -1</clus>
<clus scale="   48.905">  1  3  2 -1</clus>
</clustering>
</event>
<event>
 6    0  0.9315069E+002  0.9054015E+02  0.7546771E-02  0.1301549E+00
         21   -1    0    0  504  501  0.00000000000E+00  0.00000000000E+00  0.56495579758E+03  0.56495579758E+03  0.00000000000E+00 0. -1.
         21   -1    0    0  506  502 -0.00000000000E+00 -0.00000000000E+00 -0.17740856699E+03  0.17740856699E+03  0.00000000000E+00 0. -1.
         21    1    1    2  503  505  0.52661700746E+02  0.60272658647E+02  0.73461719727E+02  0.10864010480E+03  0.00000000000E+00 0.  1.
         21    1    1    2  504  502 -0.26893830590E+02 -0.86001007202E+02 -0.85464180510E+02  0.12419169664E+03  0.00000000000E+00 0. -1.
         21    1    1    2  505  501 -0.59271588012E+02  0.42034992668E+02  0.44492445278E+03  0.45081906618E+03  0.00000000000E+00 0. -1.
         21    1    1    2  506  503  0.33503717855E+02 -0.16306644113E+02 -0.45374761406E+02  0.58713496957E+02  0.00000000000E+00 0. -1.
<scales pt_clust_3="14000.00000" pt_clust_4="90.54015" pt_clust_5="71.79991" pt_clust_6="37.26132"></scales>
<clustering>
<clus scale="   37.261">  2  6  1 -1</clus>
<clus scale="   71.800">  1  5  2 -1</clus>
<clus scale="   90.540">  2  4  1 -1</clus>
<clus scale="   71.800">  1  3  2 -1</clus>
</clustering>
</event>
<event>
 6    0  0.9315069E+002  0.1793519E+03  0.7546771E-02  0.1168432E+00
         21   -1    0    0  505  501  0.00000000000E+00  0.00000000000E+00  0.13372960874E+04  0.13372960874E+04  0.00000000000E+00 0.  1.
         21   -1    0    0  503  502 -0.00000000000E+00 -0.00000000000E+00 -0.39697907358E+03  0.39697907358E+03  0.00000000000E+00 0.  1.
         21    1    1    2  503  501  0.14434436175E+03  0.69317978096E+02  0.24372084383E+03  0.29161640313E+03  0.00000000000E+00 0.  1.
         21    1    1    2  504  506 -0.17613129794E+03  0.53765394011E+02  0.96928051475E+03  0.98661931260E+03  0.00000000000E+00 0.  1.
         21    1    1    2  505  504 -0.40117796817E+02  0.58693273356E+01  0.71124269673E+02  0.81869092834E+02  0.00000000000E+00 0. -1.
         21    1    1    2  506  502  0.71904733004E+02 -0.12895269944E+03 -0.34380861440E+03  0.37417035246E+03  0.00000000000E+00 0.  1.
<scales pt_clust_3="14000.00000" pt_clust_4="179.35192" pt_clust_5="40.54487" pt_clust_6="147.34868"></scales>
<clustering>
<clus scale="   40.545">  1  5  2 -1</clus>
<clus scale="  147.349">  2  6  1 -1</clus>
<clus scale="  179.352">  1  4  2 -1</clus>
<clus scale="   40.545">  1  3  2 -1</clus>
</clustering>
</event>
<event>
 6    0  0.9315069E+002  0.9835397E+02  0.7546771E-02  0.1283796E+00
         21   -1    0    0  503  501  0.00000000000E+00  0.00000000000E+00  0.10325502294E+03  0.10325502294E+03  0.00000000000E+00 0.  1.
         21   -1    0    0  504  502 -0.00000000000E+00 -0.00000000000E+00 -0.14519340574E+04  0.14519340574E+04  0.00000000000E+00 0. -1.
         21    1    1    2  503  505  0.28772668721E+02 -0.35014171565E+02  0.67824249422E+02  0.81571977330E+02  0.00000000000E+00 0.  1.
         21    1    1    2  504  506  0.94007492388E+01  0.92958675983E+02 -0.88889681421E+02  0.12896148646E+03  0.00000000000E+00 0.  1.
         21    1    1    2  505  502 -0.83329006444E+02 -0.58717462984E+02 -0.12550681225E+04  0.12592011182E+04  0.00000000000E+00 0. -1.
         21    1    1    2  506  501  0.45155588484E+02  0.77295856592E+00 -0.72545479875E+02  0.85454498340E+02  0.00000000000E+00 0.  1.
<scales pt_clust_3="72.33130" pt_clust_4="98.35397" pt_clust_5="14000.00000" pt_clust_6="45.16220"></scales>
<clustering>
<clus scale="   45.162">  1  6  2 -1</clus>
<clus scale="   72.331">  1  3  2 -1</clus>
<clus scale="   98.354">  1  4  2 -1</clus>
<clus scale="   45.162">  1  3  2 -1</clus>
</clustering>
</event>
<event>
 6    0  0.9315069E+002  0.8504183E+02  0.7546771E-02  0.1315323E+00
         21   -1    0    0  505  501  0.00000000000E+00  0.00000000000E+00  0.64064398317E+03  0.64064398317E+03  0.00000000000E+00 0.  1.
         21   -1    0    0  504  502 -0.00000000000E+00 -0.00000000000E+00 -0.15488350545E+03  0.15488350545E+03  0.00000000000E+00 0.  1.
         21    1    1    2  503  502  0.77499597571E+02 -0.66858147793E+01 -0.34879005895E+02  0.85249239265E+02  0.00000000000E+00 0.  1.
         21    1    1    2  504  501 -0.45411247770E+02  0.14826505707E+02 -0.50032298333E+02  0.69175411614E+02  0.00000000000E+00 0. -1.
         21    1    1    2  505  506 -0.63435999429E+02  0.59101242206E+02  0.55937907721E+03  0.56605833168E+03  0.00000000000E+00 0.  1.
         21    1    1    2  506  503  0.31347649627E+02 -0.67241933134E+02  0.11292704742E+02  0.75044506056E+02  0.00000000000E+00 0. -1.
<scales pt_clust_3="48.94481" pt_clust_4="47.77035" pt_clust_5="85.04183" pt_clust_6="14000.00000"></scales>
<clustering>
<clus scale="   47.770">  2  4  1 -1</clus>
<clus scale="   48.945">  2  3  1 -1</clus>
<clus scale="   85.042">  1  5  2 -1</clus>
<clus scale="   85.042">  1  3  2 -1</clus>
</clustering>
</event>
<event>
 6    0  0.9315069E+002  0.3370950E+03  0.7546771E-02  0.1068040E+00
         21   -1    0    0  503  501  0.00000000000E+00  0.00000000000E+00  0.81447489444E+03  0.81447489444E+03  0.00000000000E+00 0.  1.
         21   -1    0    0  505  502 -0.00000000000E+00 -0.00000000000E+00 -0.31230210506E+03  0.31230210506E+03  0.00000000000E+00 0.  1.
         21    1    1    2  503  502  0.11461174157E+02  0.29012203020E+02  0.91339361773E+02  0.96519145490E+02  0.00000000000E+00 0. -1.
         21    1    1    2  504  501 -0.25470397799E+03  0.17365886444E+03  0.57629625436E+03  0.65356628615E+03  0.00000000000E+00 0.  1.
         21    1    1    2  505  506  0.14812309297E+03 -0.15804291700E+03 -0.16387323650E+03  0.27161084648E+03  0.00000000000E+00 0.  1.
         21    1    1    2  506  504  0.95119710866E+02 -0.44628150455E+02 -0.15895902574E+01  0.10508072138E+03  0.00000000000E+00 0.  1.
<scales pt_clust_3="31.19401" pt_clust_4="315.20958" pt_clust_5="83.35961" pt_clust_6="83.35961"></scales>
<clustering>
<clus scale="   31.194">  1  3  2 -1</clus>
<clus scale="   83.360">  5  6 -1 -1</clus>
<clus scale="  315.210">  1  4  2 -1</clus>
<clus scale="   31.194">  1  3  2 -1</clus>
</clustering>
</event>
<event>
 6    0  0.9315069E+002  0.9758901E+02  0.7546771E-02  0.1285449E+00
         21   -1    0    0  504  501  0.00000000000E+00  0.00000000000E+00  0.14262384798E+03  0.14262384798E+03  0.00000000000E+00 0.  1.
         21   -1    0    0  503  502 -0.00000000000E+00 -0.00000000000E+00 -0.57348289293E+03  0.57348289293E+03  0.00000000000E+00 0. -1.
         21    1    1    2  503  505  0.12329066819E+02  0.33389165319E+02 -0.39269062710E+03  0.39430035615E+03  0.00000000000E+00 0. -1.
         21    1    1    2  504  502 -0.52140049192E+02 -0.88177305718E+02 -0.53763395128E+02  0.11569064193E+03  0.00000000000E+00 0.  1.
         21    1    1    2  505  506  0.78905296721E+02  0.66862887072E+02 -0.60425874156E+02  0.11978304465E+03  0.00000000000E+00 0.  1.
         21    1    1    2  506  501 -0.39094314349E+02 -0.12074746673E+02  0.76020851433E+02  0.86332698176E+02  0.00000000000E+00 0.  1.
<scales pt_clust_3="35.59273" pt_clust_4="97.58901" pt_clust_5="14000.00000" pt_clust_6="40.30498"></scales>
<clustering>
<clus scale="   35.593">  2  3  1 -1</clus>
<clus scale="   40.305">  1  6  2 -1</clus>
<clus scale="   97.589">  2  4  1 -1</clus>
<clus scale="   40.305">  1  3  2 -1</clus>
</clustering>
</event>
<event>
 6    0  0.9315069E+002  0.2034248E+03  0.7546771E-02  0.1146881E+00
         21   -1    0    0  505  501  0.00000000000E+00  0.00000000000E+00  0.14686083150E+04  0.14686083150E+04  0.00000000000E+00 0.  1.
         21   -1    0    0  504  502 -0.00000000000E+00 -0.00000000000E+00 -0.44939239794E+03  0.44939239794E+03  0.00000000000E+00 0.  1.
         21    1    1    2  503  502 -0.73711986351E+01 -0.54664233682E+02 -0.28409276414E+03  0.28939801598E+03  0.00000000000E+00 0.  1.
         21    1    1    2  504  501  0.26858285157E+03  0.74551628697E+02  0.14441870980E+02  0.27911155680E+03  0.00000000000E+00 0.  1.
         21    1    1    2  505  506 -0.17906148828E+03 -0.86729204342E+02  0.11834633913E+04  0.12000710687E+04  0.00000000000E+00 0.  1.
         21    1    1    2  506  503 -0.82150164652E+02  0.66841809327E+02  0.10540341894E+03  0.14942007144E+03  0.00000000000E+00 0.  1.
<scales pt_clust_3="55.15898" pt_clust_4="14000.00000" pt_clust_5="203.42476" pt_clust_6="102.21169"></scales>
<clustering>
<clus scale="   55.159">  2  3  1 -1</clus>
<clus scale="  102.212">  2  6  1 -1</clus>
<clus scale="  203.425">  1  5  2 -1</clus>
<clus scale="  203.425">  1  3  2 -1</clus>
</clustering>
</event>
<event>
 6    0  0.9315069E+002  0.9531539E+02  0.7546771E-02  0.1290467E+00
         21   -1    0    0  506  501  0.00000000000E+00  0.00000000000E+00  0.18830534237E+03  0.18830534237E+03  0.00000000000E+00 0. -1.
         21   -1    0    0  503  502 -0.00000000000E+00 -0.00000000000E+00 -0.16057074655E+03  0.16057074655E+03  0.00000000000E+00 0. -1.
         21    1    1    2  503  505  0.26217855689E+02 -0.20673113241E+02 -0.25056302923E+02  0.41744123947E+02  0.00000000000E+00 0. -1.
         21    1    1    2  504  502  0.49381379322E+02  0.47371378319E+02 -0.26810989237E+02  0.73494198761E+02  0.00000000000E+00 0. -1.
         21    1    1    2  505  501 -0.26330475162E+01 -0.71885978415E+02 -0.43130743587E+02  0.83873642310E+02  0.00000000000E+00 0. -1.
         21    1    1    2  506  504 -0.72966187495E+02  0.45187713337E+02  0.12273263157E+03  0.14976412390E+03  0.00000000000E+00 0. -1.
<scales pt_clust_3="30.52054" pt_clust_4="68.42929" pt_clust_5="30.52054" pt_clust_6="84.13145"></scales>
<clustering>
<clus scale="   30.521">  3  5 -1 -1</clus>
<clus scale="   68.429">  2  4  1 -1</clus>
<clus scale="   84.131">  1  6  2 -1</clus>
<clus scale="   84.131">  1  3  2 -1</clus>
</clustering>
</event>
<event>
 6    0  0.9315069E+002  0.1057790E+03  0.7546771E-02  0.1268592E+00
         21   -1    0    0  504  501  0.00000000000E+00  0.00000000000E+00  0.33250968712E+02  0.33250968712E+02  0.00000000000E+00 0. -1.
         21   -1    0    0  506  502 -0.00000000000E+00 -0.00000000000E+00 -0.72208247301E+03  0.72208247301E+03  0.00000000000E+00 0.  1.
         21    1    1    2  503  505  0.38711001274E+02  0.12843783938E+02 -0.10417072323E+03  0.11187065739E+03  0.00000000000E+00 0.  1.
         21    1    1    2  504  503  0.73964651647E+02 -0.54894844268E+02 -0.25417418923E+03  0.27034927795E+03  0.00000000000E+00 0.  1.
         21    1    1    2  505  502  0.15858022851E+02  0.40555616483E+02 -0.10290294937E+03  0.11173742393E+03  0.00000000000E+00 0.  1.
         21    1    1    2  506  501 -0.12853367577E+03  0.14954438468E+01 -0.22758364247E+03  0.26137608246E+03  0.00000000000E+00 0. -1.
<scales pt_clust_3="34.78400" pt_clust_4="105.77901" pt_clust_5="84.38642" pt_clust_6="14000.00000"></scales>
<clustering>
<clus scale="   34.784">  3  5 -1 -1</clus>
<clus scale="   84.386">  2  3  1 -1</clus>
<clus scale="  105.779">  2  4  1 -1</clus>
<clus scale="  105.779">  1  3  2 -1</clus>
</clustering>
</event>
<event>
 6    0  0.9315069E+002  0.1012995E+03  0.7546771E-02  0.1277587E+00
         21   -1    0    0  506  501  0.00000000000E+00  0.00000000000E+00  0.82639033249E+03  0.82639033249E+03  0.00000000000E+00 0.  1.
         21   -1    0    0  505  502 -0.00000000000E+00 -0.00000000000E+00 -0.14723899791E+03  0.14723899791E+03  0.00000000000E+00 0. -1.
         21    1    1    2  503  501 -0.40800512952E+02  0.16604908826E+01  0.68768917408E+03  0.68890045669E+03  0.00000000000E+00 0.  1.
         21    1    1    2  504  503  0.10586574708E+02  0.46526016363E+02  0.34754073190E+02  0.59030427458E+02  0.00000000000E+00 0.  1.
         21    1    1    2  505  504 -0.63237456827E+02  0.53438801370E+02 -0.24648874477E+02  0.86384306739E+02  0.00000000000E+00 0. -1.
         21    1    1    2  506  502  0.93451395071E+02 -0.10162530862E+03 -0.18643038213E+02  0.13931413950E+03  0.00000000000E+00 0. -1.
<scales pt_clust_3="40.83429" pt_clust_4="47.20311" pt_clust_5="14000.00000" pt_clust_6="101.29945"></scales>
<clustering>
<clus scale="   40.834">  1  3  2 -1</clus>
<clus scale="   47.203">  1  4  2 -1</clus>
<clus scale="  101.299">  1  6  2 -1</clus>
<clus scale="   40.834">  1  3  2 -1</clus>
</clustering>
</event>
<event>
 6    0  0.9315069E+002  0.1133423E+03  0.7546771E-02  0.1254503E+00
         21   -1    0    0  505  501  0.00000000000E+00  0.00000000000E+00  0.13161209305E+04  0.13161209305E+04  0.00000000000E+00 0.  1.
         21   -1    0    0  504  502 -0.00000000000E+00 -0.00000000000E+00 -0.79039873098E+03  0.79039873098E+03  0.00000000000E+00 0. -1.
         21    1    1    2  503  506 -0.31660963420E+02 -0.11607476411E+03 -0.12666238677E+03  0.17469724580E+03  0.00000000000E+00 0. -1.
         21    1    1    2  504  503 -0.59282278195E+02  0.97963174432E+02 -0.57683576901E+03  0.58809070428E+03  0.00000000000E+00 0. -1.
         21    1    1    2  505  502  0.39656005061E+02  0.19457002139E+02 -0.48143841304E+02  0.65337608811E+02  0.00000000000E+00 0.  1.
         21    1    1    2  506  501  0.51287236554E+02 -0.13454124591E+01  0.12773641966E+04  0.12783941026E+04  0.00000000000E+00 0.  1.
<scales pt_clust_3="113.34229" pt_clust_4="14000.00000" pt_clust_5="44.17209" pt_clust_6="51.33235"></scales>
<clustering>
<clus scale="   44.172">  2  5  1 -1</clus>
<clus scale="   51.332">  1  6  2 -1</clus>
<clus scale="  113.342">  1  3  2 -1</clus>
<clus scale="   51.332">  1  3  2 -1</clus>
</clustering>
</event>
<event>
 6    0  0.9315069E+002  0.3426647E+03  0.7546771E-02  0.1065667E+00
         21   -1    0    0  503  501  0.00000000000E+00  0.00000000000E+00  0.44890819133E+03  0.44890819133E+03  0.00000000000E+00 0.  1.
         21   -1    0    0  504  502 -0.00000000000E+00 -0.00000000000E+00 -0.88438651864E+03  0.88438651864E+03  0.00000000000E+00 0.  1.
         21    1    1    2  503  505 -0.10884918802E+03  0.24760587969E+03  0.29981003051E+03  0.40378567556E+03  0.00000000000E+00 0.  1.
         21    1    1    2  504  501  0.16667955665E+03 -0.25734026775E+03 -0.74544616005E+03  0.80603726064E+03  0.00000000000E+00 0.  1.
         21    1    1    2  505  506 -0.41965770184E+02  0.52618157593E+02  0.29926266477E+02  0.73657163948E+02  0.00000000000E+00 0.  1.
         21    1    1    2  506  502 -0.15864598446E+02 -0.42883769527E+02 -0.19768464257E+02  0.49814609823E+02  0.00000000000E+00 0. -1.
<scales pt_clust_3="39.73805" pt_clust_4="333.27624" pt_clust_5="39.73805" pt_clust_6="45.72421"></scales>
<clustering>
<clus scale="   39.738">  3  5 -1 -1</clus>
<clus scale="   45.724">  2  6  1 -1</clus>
<clus scale="  333.276">  2  4  1 -1</clus>
<clus scale="  342.665">  1  3  2 -1</clus>
</clustering>
</event>
<event>
 6    0  0.9315069E+002  0.8052815E+02  0.7546771E-02  0.1327559E+00
         21   -1    0    0  506  501  0.00000000000E+00  0.00000000000E+00  0.24205601278E+03  0.24205601278E+03  0.00000000000E+00 0. -1.
         21   -1    0    0  503  502 -0.00000000000E+00 -0.00000000000E+00 -0.32954771904E+03  0.32954771904E+03  0.00000000000E+00 0. -1.
         21    1    1    2  503  505 -0.11512181806E+02  0.51808067195E+02  0.10005961228E+02  0.54006716402E+02  0.00000000000E+00 0. -1.
         21    1    1    2  504  502  0.17276967620E+02 -0.26892245425E+02 -0.22484136835E+03  0.22710201979E+03  0.00000000000E+00 0. -1.
         21    1    1    2  505  501 -0.57323348637E+02  0.54498402751E+02  0.16935129941E+03  0.18691148925E+03  0.00000000000E+00 0. -1.
         21    1    1    2  506  504  0.51558562824E+02 -0.79414224520E+02 -0.42007598547E+02  0.10358350637E+03  0.00000000000E+00 0. -1.
<scales pt_clust_3="46.75830" pt_clust_4="31.96383" pt_clust_5="80.52815" pt_clust_6="14000.00000"></scales>
<clustering>
<clus scale="   31.964">  2  4  1 -1</clus>
<clus scale="   46.758">  2  3  1 -1</clus>
<clus scale="   80.528">  1  5  2 -1</clus>
<clus scale="   80.528">  1  3  2 -1</clus>
</clustering>
</event>
<event>
 6    0  0.9315069E+002  0.1385657E+03  0.7546771E-02  0.1215272E+00
         21   -1    0    0  506  501  0.00000000000E+00  0.00000000000E+00  0.30041771592E+03  0.30041771592E+03  0.00000000000E+00 0.  1.
         21   -1    0    0  505  502 -0.00000000000E+00 -0.00000000000E+00 -0.24565181568E+03  0.24565181568E+03  0.00000000000E+00 0.  1.
         21    1    1    2  503  502  0.20467541193E+02 -0.11684144079E+03 -0.13796862033E+03  0.18195104486E+03  0.00000000000E+00 0.  1.
         21    1    1    2  504  501 -0.32639901009E+02  0.52186398626E+02  0.18411601470E+02  0.64247726872E+02  0.00000000000E+00 0.  1.
         21    1    1    2  505  504 -0.19034465247E+01  0.11540632361E+03 -0.24202777162E+01  0.11544739227E+03  0.00000000000E+00 0.  1.
         21    1    1    2  506  503  0.14075806341E+02 -0.50751281448E+02  0.17674319682E+03  0.18442336760E+03  0.00000000000E+00 0.  1.
<scales pt_clust_3="128.24356" pt_clust_4="38.32362" pt_clust_5="38.32362" pt_clust_6="52.66708"></scales>
<clustering>
<clus scale="   38.324">  4  5 -1 -1</clus>
<clus scale="   52.667">  1  6  2 -1</clus>
<clus scale="  128.244">  2  3  1 -1</clus>
<clus scale="   52.667">  1  3  2 -1</clus>
</clustering>
</event>
<event>
 6    0  0.9315069E+002  0.1906960E+03  0.7546771E-02  0.1157835E+00
         21   -1    0    0  504  501  0.00000000000E+00  0.00000000000E+00  0.81416137168E+03  0.81416137168E+03  0.00000000000E+00 0.  1.
         21   -1    0    0  506  502 -0.00000000000E+00 -0.00000000000E+00 -0.53897226126E+03  0.53897226126E+03  0.00000000000E+00 0.  1.
         21    1    1    2  503  502 -0.45748702592E+02 -0.78294273811E+02 -0.47437743891E+02  0.10233902797E+03  0.00000000000E+00 0.  1.
         21    1    1    2  504  503 -0.10501805280E+03 -0.68227129502E+02 -0.72260211717E+02  0.14458655128E+03  0.00000000000E+00 0.  1.
         21    1    1    2  505  501  0.51795142178E+02  0.66877428772E+00  0.72773178589E+03  0.72957298210E+03  0.00000000000E+00 0.  1.
         21    1    1    2  506  505  0.98971613214E+02  0.14585262903E+03 -0.33284471986E+03  0.37663507159E+03  0.00000000000E+00 0.  1.
<scales pt_clust_3="42.08028" pt_clust_4="42.08028" pt_clust_5="51.79946" pt_clust_6="184.17239"></scales>
<clustering>
<clus scale="   42.080">  3  4 -1 -1</clus>
<clus scale="   51.799">  1  5  2 -1</clus>
<clus scale="  184.172">  2  6  1 -1</clus>
<clus scale="   51.799">  1  3  2 -1</clus>
</clustering>
</event>
<event>
 6    0  0.9315069E+002  0.1094067E+03  0.7546771E-02  0.1261673E+00
         21   -1    0    0  504  501  0.00000000000E+00  0.00000000000E+00  0.25546778214E+03  0.25546778214E+03  0.00000000000E+00 0. -1.
         21   -1    0    0  503  502 -0.00000000000E+00 -0.00000000000E+00 -0.43920227223E+03  0.43920227223E+03  0.00000000000E+00 0. -1.
         21    1    1    2  503  501 -0.55573131914E+02 -0.56329423362E+01 -0.35086062617E+02  0.65963132280E+02  0.00000000000E+00 0. -1.
         21    1    1    2  504  506 -0.44987895456E+02  0.80701817609E+02  0.21807008428E+03  0.23683592582E+03  0.00000000000E+00 0. -1.
         21    1    1    2  505  502  0.42681709322E+02 -0.53545620442E+02 -0.25702824233E+03  0.26599319378E+03  0.00000000000E+00 0. -1.
         21    1    1    2  506  505  0.57879318048E+02 -0.21523254831E+02 -0.10969026942E+03  0.12587780250E+03  0.00000000000E+00 0. -1.
<scales pt_clust_3="55.85788" pt_clust_4="92.93693" pt_clust_5="54.82089" pt_clust_6="54.82089"></scales>
<clustering>
<clus scale="   54.821">  5  6 -1 -1</clus>
<clus scale="   55.858">  2  3  1 -1</clus>
<clus scale="   92.937">  1  4  2 -1</clus>
<clus scale="   92.937">  1  3  2 -1</clus>
</clustering>
</event>
<event>
 6    0  0.9315069E+002  0.9662867E+02  0.7546771E-02  0.1287549E+00
         21   -1    0    0  505  501  0.00000000000E+00  0.00000000000E+00  0.65109892881E+02  0.65109892881E+02  0.00000000000E+00 0. -1.
         21   -1    0    0  506  502 -0.00000000000E+00 -0.00000000000E+00 -0.14527684774E+04  0.14527684774E+04  0.00000000000E+00 0. -1.
         21    1    1    2  503  502  0.40995156582E+02  0.43570053954E+02 -0.43104093794E+03  0.43517265843E+03  0.00000000000E+00 0. -1.
         21    1    1    2  504  503  0.12096152332E+02 -0.15707738362E+03 -0.51128618836E+03  0.53500765206E+03  0.00000000000E+00 0. -1.
         21    1    1    2  505  504 -0.16741983970E+02  0.90261430272E+02  0.81560589753E+01  0.92162579825E+02  0.00000000000E+00 0. -1.
         21    1    1    2  506  501 -0.36349324945E+02  0.23245899399E+02 -0.45348751723E+03  0.45553548000E+03  0.00000000000E+00 0. -1.
<scales pt_clust_3="59.28912" pt_clust_4="96.62867" pt_clust_5="14000.00000" pt_clust_6="43.14679"></scales>
<clustering>
<clus scale="   43.147">  2  6  1 -1</clus>
<clus scale="   59.289">  2  3  1 -1</clus>
<clus scale="   96.629">  2  4  1 -1</clus>
<clus scale="   96.629">  1  3  2 -1</clus>
</clustering>
</event>
<event>
 6    0  0.9315069E+002  0.9848009E+02  0.7546771E-02  0.1283525E+00
         21   -1    0    0  505  501  0.00000000000E+00  0.00000000000E+00  0.62617141064E+03  0.62617141064E+03  0.00000000000E+00 0.  1.
         21   -1    0    0  503  502 -0.00000000000E+00 -0.00000000000E+00 -0.12626425326E+03  0.12626425326E+03  0.00000000000E+00 0.  1.
         21    1    1    2  503  501 -0.41486652929E+02  0.51080245053E+02 -0.41022629432E+01  0.65933014243E+02  0.00000000000E+00 0.  1.
         21    1    1    2  504  502  0.51316977979E+02 -0.67374747865E+02 -0.28730856112E+02  0.89432941200E+02  0.00000000000E+00 0. -1.
         21    1    1    2  505  506 -0.55189755394E+02  0.25075116806E+02  0.54572246329E+03  0.54907893560E+03  0.00000000000E+00 0.  1.
         21    1    1    2  506  504  0.45359430344E+02 -0.87806139938E+01 -0.12982186865E+02  0.47990772854E+02  0.00000000000E+00 0.  1.
<scales pt_clust_3="87.74393" pt_clust_4="33.02543" pt_clust_5="60.61906" pt_clust_6="33.02543"></scales>
<clustering>
<clus scale="   33.025">  4  6 -1 -1</clus>
<clus scale="   60.619">  1  5  2 -1</clus>
<clus scale="   87.744">  2  3  1 -1</clus>
<clus scale="   60.619">  1  3  2 -1</clus>
</clustering>
</event>
<event>
 6    0  0.9315069E+002  0.1081093E+03  0.7546771E-02  0.1264112E+00
         21   -1    0    0  504  501  0.00000000000E+00  0.00000000000E+00  0.45850195453E+03  0.45850195453E+03  0.00000000000E+00 0.  1.
         21   -1    0    0  505  502 -0.00000000000E+00 -0.00000000000E+00 -0.43449194402E+03  0.43449194402E+03  0.00000000000E+00 0.  1.
         21    1    1    2  503  502 -0.86806839855E+02  0.64622990517E+02 -0.39757077939E+03  0.41203650684E+03  0.00000000000E+00 0.  1.
         21    1    1    2  504  506 -0.55666251270E+02 -0.34599233261E+02  0.16664884181E+03  0.17907449553E+03  0.00000000000E+00 0.  1.
         21    1    1    2  505  501  0.29343356317E+02 -0.80465862098E+01  0.11459725712E+02  0.32513157690E+02  0.00000000000E+00 0.  1.
         21    1    1    2  506  503  0.11312973481E+03 -0.21977171047E+02  0.24347222237E+03  0.26936973849E+03  0.00000000000E+00 0.  1.
<scales pt_clust_3="108.10926" pt_clust_4="58.03297" pt_clust_5="30.42663" pt_clust_6="14000.00000"></scales>
<clustering>
<clus scale="   30.427">  1  5  2 -1</clus>
<clus scale="   58.033">  1  4  2 -1</clus>
<clus scale="  108.109">  2  3  1 -1</clus>
<clus scale="   30.427">  1  3  2 -1</clus>
</clustering>
</event>
<event>
 6    0  0.9315069E+002  0.8824491E+02  0.7546771E-02  0.1307158E+00
         21   -1    0    0  504  501  0.00000000000E+00  0.00000000000E+00  0.52273576699E+03  0.52273576699E+03  0.00000000000E+00 0. -1.
         21   -1    0    0  506  502 -0.00000000000E+00 -0.00000000000E+00 -0.15888910901E+04  0.15888910901E+04  0.00000000000E+00 0.  1.
         21    1    1    2  503  502 -0.14772382166E+02 -0.86799844724E+02 -0.14459426572E+04  0.14486209318E+04  0.00000000000E+00 0.  1.
         21    1    1    2  504  505 -0.28536572329E+01  0.33249731332E+02  0.48267684533E+03  0.48382912790E+03  0.00000000000E+00 0. -1.
         21    1    1    2  505  503 -0.35720506394E+02 -0.29988309281E+02 -0.23741288873E+02  0.52334520805E+02  0.00000000000E+00 0. -1.
         21    1    1    2  506  501  0.53346545793E+02  0.83538422673E+02 -0.79148222397E+02  0.12684227655E+03  0.00000000000E+00 0. -1.
<scales pt_clust_3="14000.00000" pt_clust_4="33.37196" pt_clust_5="40.90229" pt_clust_6="88.24491"></scales>
<clustering>
<clus scale="   33.372">  1  4  2 -1</clus>
<clus scale="   40.902">  1  5  2 -1</clus>
<clus scale="   88.245">  1  6  2 -1</clus>
<clus scale="   33.372">  1  3  2 -1</clus>
</clustering>
</event>
<event>
 6    0  0.9315069E+002  0.2160042E+03  0.7546771E-02  0.1136898E+00
         21   -1    0    0  505  501  0.00000000000E+00  0.00000000000E+00  0.15647994421E+04  0.15647994421E+04  0.00000000000E+00 0.  1.
         21   -1    0    0  501  502 -0.00000000000E+00 -0.00000000000E+00 -0.10297600345E+03  0.10297600345E+03  0.00000000000E+00 0.  1.
         21    1    1    2  503  506  0.12949961581E+03 -0.41654484267E+02  0.45772554147E+03  0.47751221750E+03  0.00000000000E+00 0.  1.
         21    1    1    2  504  502  0.68085240788E+02 -0.23899317195E+02 -0.55534481917E+02  0.91054138057E+02  0.00000000000E+00 0.  1.
         21    1    1    2  505  503  0.22528046417E+02 -0.35294941309E+02  0.82374204619E+02  0.92405385904E+02  0.00000000000E+00 0. -1.
         21    1    1    2  506  504 -0.22011290301E+03  0.10084874277E+03  0.97725817448E+03  0.10068037041E+04  0.00000000000E+00 0.  1.
<scales pt_clust_3="35.37138" pt_clust_4="72.15800" pt_clust_5="35.37138" pt_clust_6="206.38093"></scales>
<clustering>
<clus scale="   35.371">  3  5 -1 -1</clus>
<clus scale="   72.158">  2  4  1 -1</clus>
<clus scale="  206.381">  2  6  1 -1</clus>
<clus scale="  216.004">  1  3  2 -1</clus>
</clustering>
</event>
<event>
 6    0  0.9315069E+002  0.8554366E+02  0.7546771E-02  0.1314017E+00
         21   -1    0    0  505  501  0.00000000000E+00  0.00000000000E+00  0.35277386864E+03  0.35277386864E+03  0.00000000000E+00 0. -1.
         21   -1    0    0  504  502 -0.00000000000E+00 -0.00000000000E+00 -0.16047599012E+03  0.16047599012E+03  0.00000000000E+00 0. -1.
         21    1    1    2  503  506  0.35099737829E+02  0.70067046414E+02  0.63501832096E+02  0.10086558020E+03  0.00000000000E+00 0. -1.
         21    1    1    2  504  501 -0.43472764254E+01 -0.59246677898E+02  0.12197005415E+03  0.13566783614E+03  0.00000000000E+00 0. -1.
         21    1    1    2  505  503  0.53014525269E+02  0.22745275773E+02  0.11929985016E+03  0.13251543951E+03  0.00000000000E+00 0. -1.
         21    1    1    2  506  502 -0.83766986672E+02 -0.33565644289E+02 -0.11247385788E+03  0.14420100291E+03  0.00000000000E+00 0. -1.
<scales pt_clust_3="14000.00000" pt_clust_4="53.00892" pt_clust_5="57.68784" pt_clust_6="85.54366"></scales>
<clustering>
<clus scale="   57.688">  1  5  2 -1</clus>
<clus scale="   53.009">  1  4  2 -1</clus>
<clus scale="   85.544">  2  6  1 -1</clus>
<clus scale="   57.688">  1  3  2 -1</clus>
</clustering>
</event>
<event>
 6    0  0.9315069E+002  0.1327566E+03  0.7546771E-02  0.1223422E+00
         21   -1    0    0  504  501  0.00000000000E+00  0.00000000000E+00  0.45561689742E+03  0.45561689742E+03  0.00000000000E+00 0.  1.
         21   -1    0    0  506  502 -0.00000000000E+00 -0.00000000000E+00 -0.13452766094E+03  0.13452766094E+03  0.00000000000E+00 0. -1.
         21    1    1    2  503  502  0.90079344226E+02 -0.75282522046E+02  0.18311892140E+02  0.11881528427E+03  0.00000000000E+00 0. -1.
         21    1    1    2  504  503  0.24377119223E+02  0.28029186915E+02  0.32995304977E+03  0.33203748932E+03  0.00000000000E+00 0.  1.
         21    1    1    2  505  501 -0.88240757770E+02  0.13219337596E+02 -0.34591687928E+02  0.95696222976E+02  0.00000000000E+00 0. -1.
         21    1    1    2  506  505 -0.26215705679E+02  0.34033997535E+02  0.74159825031E+01  0.43595561803E+02  0.00000000000E+00 0. -1.
<scales pt_clust_3="119.55667" pt_clust_4="37.14673" pt_clust_5="42.10708" pt_clust_6="42.10708"></scales>
<clustering>
<clus scale="   37.147">  1  4  2 -1</clus>
<clus scale="   42.107">  5  6 -1 -1</clus>
<clus scale="  119.557">  1  3  2 -1</clus>
<clus scale="   37.147">  1  3  2 -1</clus>
</clustering>
</event>
<event>
 6    0  0.9315069E+002  0.1522540E+03  0.7546771E-02  0.1197730E+00
         21   -1    0    0  504  501  0.00000000000E+00  0.00000000000E+00  0.14809452083E+03  0.14809452083E+03  0.00000000000E+00 0.  1.
         21   -1    0    0  505  502 -0.00000000000E+00 -0.00000000000E+00 -0.11197321142E+04  0.11197321142E+04  0.00000000000E+00 0. -1.
         21    1    1    2  503  502  0.30391158128E+02 -0.13177324744E+03 -0.95208743423E+03  0.96164353772E+03  0.00000000000E+00 0. -1.
         21    1    1    2  504  503  0.40075574722E+02  0.10055277023E+02 -0.20113505914E+02  0.45953382960E+02  0.00000000000E+00 0. -1.
         21    1    1    2  505  506 -0.34419486994E+02 -0.22949727328E+02 -0.80513262242E+02  0.90519481142E+02  0.00000000000E+00 0.  1.
         21    1    1    2  506  501 -0.36047245856E+02  0.14466769774E+03  0.81076609062E+02  0.16971023316E+03  0.00000000000E+00 0.  1.
<scales pt_clust_3="152.25405" pt_clust_4="41.31780" pt_clust_5="39.93169" pt_clust_6="14000.00000"></scales>
<clustering>
<clus scale="   41.318">  1  4  2 -1</clus>
<clus scale="   39.932">  2  5  1 -1</clus>
<clus scale="  152.254">  2  3  1 -1</clus>
<clus scale="   41.318">  1  3  2 -1</clus>
</clustering>
</event>
<event>
 6    0  0.9315069E+002  0.1053247E+03  0.7546771E-02  0.1269481E+00
         21   -1    0    0  503  501  0.00000000000E+00  0.00000000000E+00  0.95170214361E+02  0.95170214361E+02  0.00000000000E+00 0. -1.
         21   -1    0    0  506  502 -0.00000000000E+00 -0.00000000000E+00 -0.10934477719E+04  0.10934477719E+04  0.00000000000E+00 0. -1.
         21    1    1    2  503  505 -0.17811234117E+02 -0.37825742674E+02 -0.83199956745E+02  0.93114229159E+02  0.00000000000E+00 0. -1.
         21    1    1    2  504  502  0.53840084993E+02  0.52796797360E+02 -0.44566706867E+03  0.45200154055E+03  0.00000000000E+00 0. -1.
         21    1    1    2  505  504 -0.79731415905E+02 -0.87920330195E+02 -0.52738920005E+03  0.54057973646E+03  0.00000000000E+00 0. -1.
         21    1    1    2  506  501  0.43702565029E+02  0.72949275509E+02  0.57978667882E+02  0.10292248013E+03  0.00000000000E+00 0. -1.
<scales pt_clust_3="34.72079" pt_clust_4="75.40727" pt_clust_5="34.72079" pt_clust_6="87.58429"></scales>
<clustering>
<clus scale="   34.721">  3  5 -1 -1</clus>
<clus scale="   75.407">  2  4  1 -1</clus>
<clus scale="   87.584">  1  6  2 -1</clus>
<clus scale="   87.584">  1  3  2 -1</clus>
</clustering>
</event>
<event>
 6    0  0.9315069E+002  0.9352216E+02  0.7546771E-02  0.1294540E+00
         21   -1    0    0  506  501  0.00000000000E+00  0.00000000000E+00  0.17529391889E+04  0.17529391889E+04  0.00000000000E+00 0.  1.
         21   -1    0    0  503  502 -0.00000000000E+00 -0.00000000000E+00 -0.80819200923E+02  0.80819200923E+02  0.00000000000E+00 0.  1.
         21    1    1    2  503  501 -0.88376321264E+02  0.68586160259E+02 -0.12719790460E+02  0.11258875880E+03  0.00000000000E+00 0.  1.
         21    1    1    2  504  505  0.15543814517E+02 -0.93963610154E+02  0.24178358070E+03  0.25986548463E+03  0.00000000000E+00 0.  1.
         21    1    1    2  505  502  0.35756789742E+02  0.83829000315E+01  0.29359264145E+02  0.47019011226E+02  0.00000000000E+00 0.  1.
         21    1    1    2  506  504  0.37075717006E+02  0.16994549864E+02  0.14136969336E+04  0.14142851352E+04  0.00000000000E+00 0.  1.
<scales pt_clust_3="14000.00000" pt_clust_4="93.52216" pt_clust_5="36.72630" pt_clust_6="40.93216"></scales>
<clustering>
<clus scale="   36.726">  2  5  1 -1</clus>
<clus scale="   40.932">  1  6  2 -1</clus>
<clus scale="   93.522">  1  4  2 -1</clus>
<clus scale="   40.932">  1  3  2 -1</clus>
</clustering>
</event>
<event>
 6    0  0.9315069E+002  0.1155579E+03  0.7546771E-02  0.1250610E+00
         21   -1    0    0  505  501  0.00000000000E+00  0.00000000000E+00  0.10879404941E+04  0.10879404941E+04  0.00000000000E+00 0.  1.
         21   -1    0    0  504  502 -0.00000000000E+00 -0.00000000000E+00 -0.26521280650E+03  0.26521280650E+03  0.00000000000E+00 0. -1.
         21    1    1    2  503  501  0.31324951728E+02 -0.20748676794E+01  0.77278432812E+02  0.83411712934E+02  0.00000000000E+00 0. -1.
         21    1    1    2  504  503 -0.99519200258E+02  0.36830198748E+02  0.41516231661E+02  0.11394793658E+03  0.00000000000E+00 0. -1.
         21    1    1    2  505  506  0.90177849682E+02  0.34660468383E+01  0.92549624789E+03  0.92988567196E+03  0.00000000000E+00 0.  1.
         21    1    1    2  506  502 -0.21983601153E+02 -0.38221377907E+02 -0.22156322479E+03  0.22590797911E+03  0.00000000000E+00 0. -1.
<scales pt_clust_3="31.39359" pt_clust_4="115.55794" pt_clust_5="14000.00000" pt_clust_6="44.06279"></scales>
<clustering>
<clus scale="   31.394">  1  3  2 -1</clus>
<clus scale="   44.063">  2  6  1 -1</clus>
<clus scale="  115.558">  2  4  1 -1</clus>
<clus scale="   31.394">  1  3  2 -1</clus>
</clustering>
</event>
<event>
 6    0  0.9315069E+002  0.9084519E+02  0.7546771E-02  0.1300818E+00
         21   -1    0    0  504  501  0.00000000000E+00  0.00000000000E+00  0.24439631800E+03  0.24439631800E+03  0.00000000000E+00 0. -1.
         21   -1    0    0  505  502 -0.00000000000E+00 -0.00000000000E+00 -0.11349391899E+04  0.11349391899E+04  0.00000000000E+00 0. -1.
         21    1    1    2  503  501  0.60569412617E+02  0.59109656547E+02  0.20195567277E+03  0.21897191373E+03  0.00000000000E+00 0. -1.
         21    1    1    2  504  506 -0.18731624067E+02  0.41684439417E+02 -0.16740375481E+02  0.48669357926E+02  0.00000000000E+00 0. -1.
         21    1    1    2  505  503 -0.50969584550E+02 -0.47792259082E+02 -0.53446705216E+02  0.87969022251E+02  0.00000000000E+00 0. -1.
         21    1    1    2  506  502  0.91317960001E+01 -0.53001836883E+02 -0.10223114640E+04  0.10237252140E+04  0.00000000000E+00 0. -1.
<scales pt_clust_3="14000.00000" pt_clust_4="45.69974" pt_clust_5="90.84519" pt_clust_6="53.64580"></scales>
<clustering>
<clus scale="   45.700">  1  4  2 -1</clus>
<clus scale="   53.646">  2  6  1 -1</clus>
<clus scale="   90.845">  2  5  1 -1</clus>
<clus scale="   45.700">  1  3  2 -1</clus>
</clustering>
</event>
<event>
 6    0  0.9315069E+002  0.1777215E+03  0.7546771E-02  0.1170027E+00
         21   -1    0    0  506  501  0.00000000000E+00  0.00000000000E+00  0.68140190080E+03  0.68140190080E+03  0.00000000000E+00 0. -1.
         21   -1    0    0  505  502 -0.00000000000E+00 -0.00000000000E+00 -0.94929313291E+02  0.94929313291E+02  0.00000000000E+00 0.  1.
         21    1    1    2  503  502 -0.64842510819E+02 -0.94534848663E+02  0.98392623910E+02  0.15107116621E+03  0.00000000000E+00 0.  1.
         21    1    1    2  504  503  0.11486841497E+03 -0.45949533199E+02  0.50276920807E+02  0.13354355516E+03  0.00000000000E+00 0.  1.
         21    1    1    2  505  501 -0.79126588304E+02  0.16542691218E+03  0.38530233702E+03  0.42671415627E+03  0.00000000000E+00 0. -1.
         21    1    1    2  506  504  0.29100684154E+02 -0.24942530318E+02  0.52500705769E+02  0.65002336443E+02  0.00000000000E+00 0.  1.
<scales pt_clust_3="114.63590" pt_clust_4="31.01199" pt_clust_5="168.76158" pt_clust_6="31.01199"></scales>
<clustering>
<clus scale="   31.012">  4  6 -1 -1</clus>
<clus scale="  114.636">  2  3  1 -1</clus>
<clus scale="  168.762">  1  5  2 -1</clus>
<clus scale="  168.762">  1  3  2 -1</clus>
</clustering>
</event>
<event>
 6    0  0.9315069E+002  0.8719449E+02  0.7546771E-02  0.1309791E+00
         21   -1    0    0  506  501  0.00000000000E+00  0.00000000000E+00  0.23475914874E+04  0.23475914874E+04  0.00000000000E+00 0.  1.
         21   -1    0    0  503  502 -0.00000000000E+00 -0.00000000000E+00 -0.11678826345E+02  0.11678826345E+02  0.00000000000E+00 0.  1.
         21    1    1    2  503  505  0.37125056235E+02  0.13996297380E+02  0.14435115949E+03  0.14970445346E+03  0.00000000000E+00 0.  1.
         21    1    1    2  504  502  0.45713021686E+02 -0.54274695920E+02  0.31630658080E+03  0.32416859198E+03  0.00000000000E+00 0.  1.
         21    1    1    2  505  501 -0.62297075133E+02  0.89320359204E+02  0.65551580312E+03  0.66449982714E+03  0.00000000000E+00 0.  1.
         21    1    1    2  506  504 -0.20541002789E+02 -0.49041960664E+02  0.12197391177E+04  0.12208974412E+04  0.00000000000E+00 0.  1.
<scales pt_clust_3="39.67576" pt_clust_4="14000.00000" pt_clust_5="87.19449" pt_clust_6="51.45015"></scales>
<clustering>
<clus scale="   39.676">  2  3  1 -1</clus>
<clus scale="   51.450">  1  6  2 -1</clus>
<clus scale="   87.194">  1  5  2 -1</clus>
<clus scale="   51.450">  1  3  2 -1</clus>
</clustering>
</event>
<event>
 6    0  0.9315069E+002  0.1033111E+03  0.7546771E-02  0.1273483E+00
         21   -1    0    0  503  501  0.00000000000E+00  0.00000000000E+00  0.99055158335E+03  0.99055158335E+03  0.00000000000E+00 0.  1.
         21   -1    0    0  505  502 -0.00000000000E+00 -0.00000000000E+00 -0.61441509034E+02  0.61441509034E+02  0.00000000000E+00 0. -1.
         21    1    1    2  503  504  0.53641793157E+02 -0.44185713608E+02  0.51911608402E+03  0.52374738944E+03  0.00000000000E+00 0.  1.
         21    1    1    2  504  506  0.68580913829E+02  0.17321167100E+02  0.32052316485E+03  0.32823537862E+03  0.00000000000E+00 0.  1.
         21    1    1    2  505  501 -0.22220928881E+02  0.45236954405E+02  0.84282830343E+02  0.98202582527E+02  0.00000000000E+00 0.  1.
         21    1    1    2  506  502 -0.10000177811E+03 -0.18372407898E+02  0.51879951010E+01  0.10180774179E+03  0.00000000000E+00 0. -1.
<scales pt_clust_3="67.55123" pt_clust_4="103.31106" pt_clust_5="50.39992" pt_clust_6="14000.00000"></scales>
<clustering>
<clus scale="   50.400">  2  5  1 -1</clus>
<clus scale="   67.551">  1  3  2 -1</clus>
<clus scale="  103.311">  1  4  2 -1</clus>
<clus scale="   67.551">  1  3  2 -1</clus>
</clustering>
</event>
<event>
 6    0  0.9315069E+002  0.1315386E+03  0.7546771E-02  0.1225190E+00
         21   -1    0    0  506  501  0.00000000000E+00  0.00000000000E+00  0.28105270649E+03  0.28105270649E+03  0.00000000000E+00 0.  1.
         21   -1    0    0  505  502 -0.00000000000E+00 -0.00000000000E+00 -0.11624428561E+03  0.11624428561E+03  0.00000000000E+00 0.  1.
         21    1    1    2  503  501 -0.10646030864E+02 -0.55184458877E+02  0.37898733935E+02  0.67786256045E+02  0.00000000000E+00 0. -1.
         21    1    1    2  504  503  0.19433136203E+02 -0.93746625908E+02  0.12013670697E+03  0.15361935104E+03  0.00000000000E+00 0.  1.
         21    1    1    2  505  504  0.84512114705E+01  0.11860229172E+03 -0.32595935655E+02  0.12328998986E+03  0.00000000000E+00 0.  1.
         21    1    1    2  506  502 -0.17238316810E+02  0.30328793061E+02  0.39368915633E+02  0.52601395163E+02  0.00000000000E+00 0. -1.
<scales pt_clust_3="32.39369" pt_clust_4="32.39369" pt_clust_5="124.55855" pt_clust_6="34.88546"></scales>
<clustering>
<clus scale="   32.394">  3  4 -1 -1</clus>
<clus scale="   34.885">  1  6  2 -1</clus>
<clus scale="  124.559">  2  5  1 -1</clus>
<clus scale="   34.885">  1  3  2 -1</clus>
</clustering>
</event>
<event>
 6    0  0.9315069E+002  0.6627354E+02  0.7546771E-02  0.1373244E+00
         21   -1    0    0  503  501  0.00000000000E+00  0.00000000000E+00  0.29461151133E+02  0.29461151133E+02  0.00000000000E+00 0.  1.
         21   -1    0    0  501  502 -0.00000000000E+00 -0.00000000000E+00 -0.16929080670E+04  0.16929080670E+04  0.00000000000E+00 0.  1.
         21    1    1    2  503  504  0.42578955845E+02  0.49561964169E+02 -0.32208629231E+02  0.72847454108E+02  0.00000000000E+00 0.  1.
         21    1    1    2  504  505 -0.67654114637E+02 -0.44684359803E+02 -0.67164297424E+03  0.67651907297E+03  0.00000000000E+00 0.  1.
         21    1    1    2  505  506  0.34109356091E+01 -0.56740183795E+02 -0.13480141505E+03  0.14629594812E+03  0.00000000000E+00 0. -1.
         21    1    1    2  506  502  0.21664223184E+02  0.51862579429E+02 -0.82479389737E+03  0.82670674296E+03  0.00000000000E+00 0.  1.
<scales pt_clust_3="14000.00000" pt_clust_4="66.27354" pt_clust_5="48.82749" pt_clust_6="56.20557"></scales>
<clustering>
<clus scale="   56.206">  2  6  1 -1</clus>
<clus scale="   48.827">  2  5  1 -1</clus>
<clus scale="   66.274">  2  4  1 -1</clus>
<clus scale="   66.274">  1  3  2 -1</clus>
</clustering>
</event>
<event>
 6    0  0.9315069E+002  0.1009132E+03  0.7546771E-02  0.1278387E+00
         21   -1    0    0  506  501  0.00000000000E+00  0.00000000000E+00  0.21421632602E+03  0.21421632602E+03  0.00000000000E+00 0. -1.
         21   -1    0    0  504  502 -0.00000000000E+00 -0.00000000000E+00 -0.27252253814E+03  0.27252253814E+03  0.00000000000E+00 0. -1.
         21    1    1    2  503  501 -0.36977965453E+02 -0.87005809122E+01  0.39148518544E+02  0.54549762066E+02  0.00000000000E+00 0. -1.
         21    1    1    2  504  503 -0.32567181314E+02  0.17499614246E+01 -0.14658921019E+03  0.15017350035E+03  0.00000000000E+00 0. -1.
         21    1    1    2  505  502 -0.67126287134E+02 -0.30933832215E+02 -0.66192918445E+02  0.99218661814E+02  0.00000000000E+00 0. -1.
         21    1    1    2  506  505  0.13667143390E+03  0.37884451702E+02  0.11532739797E+03  0.18279693993E+03  0.00000000000E+00 0. -1.
<scales pt_clust_3="39.93342" pt_clust_4="32.61416" pt_clust_5="14000.00000" pt_clust_6="100.91315"></scales>
<clustering>
<clus scale="   32.614">  2  4  1 -1</clus>
<clus scale="   39.933">  1  3  2 -1</clus>
<clus scale="  100.913">  1  6  2 -1</clus>
<clus scale="   39.933">  1  3  2 -1</clus>
</clustering>
</event>
<event>
 6    0  0.9315069E+002  0.1373474E+03  0.7546771E-02  0.1216943E+00
         21   -1    0    0  503  501  0.00000000000E+00  0.00000000000E+00  0.18787233428E+03  0.18787233428E+03  0.00000000000E+00 0. -1.
         21   -1    0    0  505  502 -0.00000000000E+00 -0.00000000000E+00 -0.71238285118E+03  0.71238285118E+03  0.00000000000E+00 0. -1.
         21    1    1    2  503  502 -0.56797470280E+02  0.12516225480E+02  0.57888648549E+01  0.58447578964E+02  0.00000000000E+00 0. -1.
         21    1    1    2  504  506  0.11767038029E+03  0.25857779445E+02  0.43750747079E+02  0.12817593778E+03  0.00000000000E+00 0. -1.
         21    1    1    2  505  504 -0.12423706290E+03 -0.23268995812E+02 -0.62074591356E+03  0.63348384602E+03  0.00000000000E+00 0. -1.
         21    1    1    2  506  501  0.63364152883E+02 -0.15105009112E+02  0.46695784729E+02  0.80147822692E+02  0.00000000000E+00 0.  1.
<scales pt_clust_3="58.16020" pt_clust_4="35.48641" pt_clust_5="128.58933" pt_clust_6="35.48641"></scales>
<clustering>
<clus scale="   35.486">  4  6 -1 -1</clus>
<clus scale="   58.160">  1  3  2 -1</clus>
<clus scale="  128.589">  2  5  1 -1</clus>
<clus scale="   58.160">  1  3  2 -1</clus>
</clustering>
</event>
<event>
 6    0  0.9315069E+002  0.6882054E+02  0.7546771E-02  0.1364150E+00
         21   -1    0    0  503  501  0.00000000000E+00  0.00000000000E+00  0.74381862272E+02  0.74381862272E+02  0.00000000000E+00 0.  1.
         21   -1    0    0  505  502 -0.00000000000E+00 -0.00000000000E+00 -0.68380213555E+03  0.68380213555E+03  0.00000000000E+00 0.  1.
         21    1    1    2  503  504 -0.18880326000E+02  0.43321624016E+02 -0.38497916262E+02  0.60953419705E+02  0.00000000000E+00 0.  1.
         21    1    1    2  504  502  0.31653369220E+02  0.52190411972E+02 -0.38695711734E+03  0.39174173322E+03  0.00000000000E+00 0.  1.
         21    1    1    2  505  506 -0.42930920617E+02 -0.10603528066E+03 -0.22563962717E+03  0.25298178994E+03  0.00000000000E+00 0.  1.
         21    1    1    2  506  501  0.30157877398E+02  0.10523244670E+02  0.41674387496E+02  0.52507054962E+02  0.00000000000E+00 0.  1.
<scales pt_clust_3="48.08862" pt_clust_4="14000.00000" pt_clust_5="68.82054" pt_clust_6="31.94114"></scales>
<clustering>
<clus scale="   31.941">  1  6  2 -1</clus>
<clus scale="   48.089">  1  3  2 -1</clus>
<clus scale="   68.821">  1  5  2 -1</clus>
<clus scale="   31.941">  1  3  2 -1</clus>
</clustering>
</event>
<event>
 6    0  0.9315069E+002  0.1073847E+03  0.7546771E-02  0.1265491E+00
         21   -1    0    0  506  501  0.00000000000E+00  0.00000000000E+00  0.15207196392E+04  0.15207196392E+04  0.00000000000E+00 0. -1.
         21   -1    0    0  503  502 -0.00000000000E+00 -0.00000000000E+00 -0.93442590124E+02  0.93442590124E+02  0.00000000000E+00 0. -1.
         21    1    1    2  503  505  0.39150232613E+02  0.68891735591E+02  0.12978642314E+03  0.15206356427E+03  0.00000000000E+00 0. -1.
         21    1    1    2  504  502 -0.76291664914E+01 -0.58390024849E+02 -0.61903078934E+02  0.85437640211E+02  0.00000000000E+00 0. -1.
         21    1    1    2  505  501 -0.10884676508E+03  0.47890959003E+02  0.82955117810E+03  0.83803121619E+03  0.00000000000E+00 0. -1.
         21    1    1    2  506  504  0.77325698954E+02 -0.58392669745E+02  0.52984252677E+03  0.53862980866E+03  0.00000000000E+00 0. -1.
<scales pt_clust_3="50.10538" pt_clust_4="58.88632" pt_clust_5="107.38466" pt_clust_6="14000.00000"></scales>
<clustering>
<clus scale="   58.886">  2  4  1 -1</clus>
<clus scale="   50.105">  2  3  1 -1</clus>
<clus scale="  107.385">  1  5  2 -1</clus>
<clus scale="  107.385">  1  3  2 -1</clus>
</clustering>
</event>
<event>
 6    0  0.9315069E+002  0.1069269E+03  0.7546771E-02  0.1266369E+00
         21   -1    0    0  505  501  0.00000000000E+00  0.00000000000E+00  0.63108482985E+03  0.63108482985E+03  0.00000000000E+00 0.  1.
         21   -1    0    0  501  502 -0.00000000000E+00 -0.00000000000E+00 -0.99751213464E+02  0.99751213464E+02  0.00000000000E+00 0.  1.
         21    1    1    2  503  502 -0.30219383795E+02  0.25158671282E+02 -0.55718331169E+02  0.68196057994E+02  0.00000000000E+00 0.  1.
         21    1    1    2  504  506  0.99509803514E+02  0.39214727385E+02  0.33579895860E+03  0.35242153231E+03  0.00000000000E+00 0.  1.
         21    1    1    2  505  504  0.21256703681E+02 -0.46882390673E+02  0.19614353429E+03  0.20278582803E+03  0.00000000000E+00 0.  1.
         21    1    1    2  506  503 -0.90547123400E+02 -0.17491007994E+02  0.55109454669E+02  0.10743262498E+03  0.00000000000E+00 0.  1.
<scales pt_clust_3="39.32137" pt_clust_4="14000.00000" pt_clust_5="48.38960" pt_clust_6="106.92685"></scales>
<clustering>
<clus scale="   39.321">  2  3  1 -1</clus>
<clus scale="   48.390">  1  5  2 -1</clus>
<clus scale="  106.927">  2  6  1 -1</clus>
<clus scale="   48.390">  1  3  2 -1</clus>
</clustering>
</event>
<event>
 6    0  0.9315069E+002  0.1844486E+03  0.7546771E-02  0.1163566E+00
         21   -1    0    0  505  501  0.00000000000E+00  0.00000000000E+00  0.15837986898E+03  0.15837986898E+03  0.00000000000E+00 0.  1.
         21   -1    0    0  501  502 -0.00000000000E+00 -0.00000000000E+00 -0.45413666871E+03  0.45413666871E+03  0.00000000000E+00 0.  1.
         21    1    1    2  503  506  0.10925774942E+03 -0.29654894521E+02 -0.17228623475E+03  0.20615337800E+03  0.00000000000E+00 0.  1.
         21    1    1    2  504  503 -0.10327054752E+03  0.17889007554E+02  0.64100978897E+02  0.12285665661E+03  0.00000000000E+00 0.  1.
         21    1    1    2  505  504 -0.64730360710E+02  0.29651256046E+02  0.14197677990E+02  0.72600211040E+02  0.00000000000E+00 0.  1.
         21    1    1    2  506  502  0.58743158817E+02 -0.17885369079E+02 -0.20176922186E+03  0.21090629205E+03  0.00000000000E+00 0.  1.
<scales pt_clust_3="43.79975" pt_clust_4="179.08855" pt_clust_5="32.84783" pt_clust_6="43.79975"></scales>
<clustering>
<clus scale="   32.848">  4  5 -1 -1</clus>
<clus scale="   43.800">  3  6 -1 -1</clus>
<clus scale="  179.089">  1  4  2 -1</clus>
<clus scale="  179.089">  1  3  2 -1</clus>
</clustering>
</event>
<event>
 6    0  0.9315069E+002  0.1114193E+03  0.7546771E-02  0.1257964E+00
         21   -1    0    0  503  501  0.00000000000E+00  0.00000000000E+00  0.16828262376E+03  0.16828262376E+03  0.00000000000E+00 0. -1.
         21   -1    0    0  504  502 -0.00000000000E+00 -0.00000000000E+00 -0.24226247772E+03  0.24226247772E+03  0.00000000000E+00 0. -1.
         21    1    1    2  503  502  0.13369925565E+03 -0.52790411803E+02 -0.60606818168E+02  0.15599841329E+03  0.00000000000E+00 0. -1.
         21    1    1    2  504  506 -0.15194948695E+02  0.32371742388E+02 -0.59578468938E+02  0.69486762280E+02  0.00000000000E+00 0. -1.
         21    1    1    2  505  501 -0.88200669421E+02  0.55179681498E+02  0.77150900951E+02  0.12952380806E+03  0.00000000000E+00 0. -1.
         21    1    1    2  506  505 -0.30303637536E+02 -0.34761012083E+02 -0.30945467806E+02  0.55536117857E+02  0.00000000000E+00 0.  1.
<scales pt_clust_3="14000.00000" pt_clust_4="35.76054" pt_clust_5="111.41931" pt_clust_6="43.34563"></scales>
<clustering>
<clus scale="   35.761">  2  4  1 -1</clus>
<clus scale="   43.346">  2  6  1 -1</clus>
<clus scale="  111.419">  1  5  2 -1</clus>
<clus scale="  111.419">  1  3  2 -1</clus>
</clustering>
</event>
<event>
 6    0  0.9315069E+002  0.1558377E+03  0.7546771E-02  0.1193478E+00
         21   -1    0    0  505  501  0.00000000000E+00  0.00000000000E+00  0.12370998526E+04  0.12370998526E+04  0.00000000000E+00 0. -1.
         21   -1    0    0  506  502 -0.00000000000E+00 -0.00000000000E+00 -0.63155378325E+03  0.63155378325E+03  0.00000000000E+00 0. -1.
         21    1    1    2  503  502  0.43594962346E+02  0.45782976985E+02 -0.51068306269E+03  0.51458118140E+03  0.00000000000E+00 0. -1.
         21    1    1    2  504  503  0.64720373522E+02  0.75726206566E+02 -0.88557475948E+02  0.13328770257E+03  0.00000000000E+00 0. -1.
         21    1    1    2  505  504 -0.46874142307E+02 -0.22355972613E+02  0.13478252284E+03  0.14444134862E+03  0.00000000000E+00 0. -1.
         21    1    1    2  506  501 -0.61441193561E+02 -0.99153210938E+02  0.10700040851E+04  0.10763434032E+04  0.00000000000E+00 0. -1.
<scales pt_clust_3="63.13253" pt_clust_4="14000.00000" pt_clust_5="51.93241" pt_clust_6="155.83771"></scales>
<clustering>
<clus scale="   51.932">  1  5  2 -1</clus>
<clus scale="   63.133">  2  3  1 -1</clus>
<clus scale="  155.838">  1  6  2 -1</clus>
<clus scale="   51.932">  1  3  2 -1</clus>
</clustering>
</event>
<event>
 6    0  0.9315069E+002  0.1136838E+03  0.7546771E-02  0.1253896E+00
         21   -1    0    0  503  501  0.00000000000E+00  0.00000000000E+00  0.12994499033E+03  0.12994499033E+03  0.00000000000E+00 0. -1.
         21   -1    0    0  506  502 -0.00000000000E+00 -0.00000000000E+00 -0.62809472201E+03  0.62809472201E+03  0.00000000000E+00 0.  1.
         21    1    1    2  503  504  0.79508749922E+02  0.42549558553E+02  0.83319037024E+02  0.12277690409E+03  0.00000000000E+00 0. -1.
         21    1    1    2  504  502  0.30919357581E+02  0.69899285006E+02 -0.26580747324E+03  0.27657825212E+03  0.00000000000E+00 0.  1.
         21    1    1    2  505  501 -0.21710533701E+02 -0.45792643128E+02 -0.51939548257E+02  0.72567417699E+02  0.00000000000E+00 0. -1.
         21    1    1    2  506  505 -0.88717573801E+02 -0.66656200431E+02 -0.26372174721E+03  0.28611713844E+03  0.00000000000E+00 0.  1.
<scales pt_clust_3="93.54443" pt_clust_4="76.43243" pt_clust_5="43.65771" pt_clust_6="43.65771"></scales>
<clustering>
<clus scale="   43.658">  5  6 -1 -1</clus>
<clus scale="   76.432">  2  4  1 -1</clus>
<clus scale="   93.544">  1  3  2 -1</clus>
<clus scale="   93.544">  1  3  2 -1</clus>
</clustering>
</event>
<event>
 6    0  0.9315069E+002  0.2070281E+03  0.7546771E-02  0.1143941E+00
         21   -1    0    0  504  501  0.00000000000E+00  0.00000000000E+00  0.73804843391E+03  0.73804843391E+03  0.00000000000E+00 0.  1.
         21   -1    0    0  505  502 -0.00000000000E+00 -0.00000000000E+00 -0.22158724839E+04  0.22158724839E+04  0.00000000000E+00 0.  1.
         21    1    1    2  503  501  0.11184376854E+03  0.17540175507E+03  0.70389637848E+03  0.73399244947E+03  0.00000000000E+00 0.  1.
         21    1    1    2  504  506 -0.41033058662E+02 -0.17015074227E+03 -0.61074068479E+03  0.63532603525E+03  0.00000000000E+00 0.  1.
         21    1    1    2  505  503 -0.28100758440E+02 -0.13398052146E+02 -0.30744769855E+02  0.43753871825E+02  0.00000000000E+00 0.  1.
         21    1    1    2  506  502 -0.42709951436E+02  0.81470393452E+01 -0.15402349738E+04  0.15408485613E+04  0.00000000000E+00 0.  1.
<scales pt_clust_3="207.02807" pt_clust_4="14000.00000" pt_clust_5="31.13134" pt_clust_6="62.59455"></scales>
<clustering>
<clus scale="   31.131">  2  5  1 -1</clus>
<clus scale="   62.595">  2  6  1 -1</clus>
<clus scale="  207.028">  1  3  2 -1</clus>
<clus scale="  207.028">  1  3  2 -1</clus>
</clustering>
</event>
<event>
 6    0  0.9315069E+002  0.9260331E+02  0.7546771E-02  0.1296667E+00
         21   -1    0    0  505  501  0.00000000000E+00  0.00000000000E+00  0.45772528522E+03  0.45772528522E+03  0.00000000000E+00 0.  1.
         21   -1    0    0  503  502 -0.00000000000E+00 -0.00000000000E+00 -0.17632072249E+03  0.17632072249E+03  0.00000000000E+00 0. -1.
         21    1    1    2  503  504 -0.28566311274E+02 -0.12994732864E+02  0.14502328864E+02  0.34571878232E+02  0.00000000000E+00 0. -1.
         21    1    1    2  504  501  0.82750201820E+02  0.38936098233E+02  0.38265474483E+03  0.39343140367E+03  0.00000000000E+00 0.  1.
         21    1    1    2  505  506 -0.10769992012E+03 -0.37365104682E+02 -0.64047499287E+02  0.13075743193E+03  0.00000000000E+00 0. -1.
         21    1    1    2  506  502  0.53516029570E+02  0.11423739313E+02 -0.51705011679E+02  0.75285293873E+02  0.00000000000E+00 0. -1.
<scales pt_clust_3="31.38307" pt_clust_4="14000.00000" pt_clust_5="92.60331" pt_clust_6="43.09538"></scales>
<clustering>
<clus scale="   31.383">  2  3  1 -1</clus>
<clus scale="   43.095">  2  6  1 -1</clus>
<clus scale="   92.603">  2  5  1 -1</clus>
<clus scale="   92.603">  1  3  2 -1</clus>
</clustering>
</event>
<event>
 6    0  0.9315069E+002  0.7471892E+02  0.7546771E-02  0.1344744E+00
         21   -1    0    0  505  501  0.00000000000E+00  0.00000000000E+00  0.14407383548E+03  0.14407383548E+03  0.00000000000E+00 0.  1.
         21   -1    0    0  503  502 -0.00000000000E+00 -0.00000000000E+00 -0.18260808373E+04  0.18260808373E+04  0.00000000000E+00 0.  1.
         21    1    1    2  503  504 -0.36362583226E+02 -0.31340889992E+02 -0.17245157308E+04  0.17251837567E+04  0.00000000000E+00 0.  1.
         21    1    1    2  504  501 -0.18966224325E+02  0.10957668256E+03  0.86296123691E+00  0.11120931493E+03  0.00000000000E+00 0.  1.
         21    1    1    2  505  506  0.33850819184E+02 -0.29632301511E+02  0.62219385317E+02  0.76780226371E+02  0.00000000000E+00 0.  1.
         21    1    1    2  506  502  0.21477988368E+02 -0.48603491053E+02 -0.20573617607E+02  0.56981374749E+02  0.00000000000E+00 0.  1.
<scales pt_clust_3="47.97731" pt_clust_4="74.71892" pt_clust_5="44.98835" pt_clust_6="14000.00000"></scales>
<clustering>
<clus scale="   44.988">  1  5  2 -1</clus>
<clus scale="   47.977">  2  3  1 -1</clus>
<clus scale="   74.719">  1  4  2 -1</clus>
<clus scale="   44.988">  1  3  2 -1</clus>
</clustering>
</event>
<event>
 6    0  0.9315069E+002  0.2135746E+03  0.7546771E-02  0.1138766E+00
         21   -1    0    0  505  501  0.00000000000E+00  0.00000000000E+00  0.72045638371E+02  0.72045638371E+02  0.00000000000E+00 0. -1.
         21   -1    0    0  503  502 -0.00000000000E+00 -0.00000000000E+00 -0.11050312421E+04  0.11050312421E+04  0.00000000000E+00 0. -1.
         21    1    1    2  503  501  0.32016595768E+02  0.47630788368E+02 -0.50049769960E+02  0.76149418108E+02  0.00000000000E+00 0.  1.
         21    1    1    2  504  506 -0.99862219232E+02  0.10438931664E+03 -0.12443216812E+03  0.19066451354E+03  0.00000000000E+00 0. -1.
         21    1    1    2  505  504 -0.58139291234E+02  0.18670017299E+02 -0.66260829793E+02  0.90106849329E+02  0.00000000000E+00 0.  1.
         21    1    1    2  506  502  0.12598491470E+03 -0.17069012231E+03 -0.79224283589E+03  0.82015609953E+03  0.00000000000E+00 0. -1.
<scales pt_clust_3="57.39124" pt_clust_4="31.58851" pt_clust_5="31.58851" pt_clust_6="207.97461"></scales>
<clustering>
<clus scale="   31.589">  4  5 -1 -1</clus>
<clus scale="   57.391">  1  3  2 -1</clus>
<clus scale="  207.975">  2  6  1 -1</clus>
<clus scale="   57.391">  1  3  2 -1</clus>
</clustering>
</event>
<event>
 6    0  0.9315069E+002  0.7442130E+02  0.7546771E-02  0.1345672E+00
         21   -1    0    0  505  501  0.00000000000E+00  0.00000000000E+00  0.71205765590E+03  0.71205765590E+03  0.00000000000E+00 0.  1.
         21   -1    0    0  506  502 -0.00000000000E+00 -0.00000000000E+00 -0.15569514440E+03  0.15569514440E+03  0.00000000000E+00 0.  1.
         21    1    1    2  503  501 -0.68009288047E+01  0.10217756989E+03  0.59590056873E+03  0.60463542423E+03  0.00000000000E+00 0.  1.
         21    1    1    2  504  502 -0.61154979363E+02  0.24337512454E+02 -0.72244504635E+02  0.97731849789E+02  0.00000000000E+00 0.  1.
         21    1    1    2  505  504  0.21751755174E+02 -0.34152474638E+02  0.45973041966E+02  0.61262149527E+02  0.00000000000E+00 0.  1.
         21    1    1    2  506  503  0.46204152994E+02 -0.92362607706E+02 -0.13266594558E+02  0.10412337676E+03  0.00000000000E+00 0.  1.
<scales pt_clust_3="74.42130" pt_clust_4="65.18585" pt_clust_5="40.49111" pt_clust_6="14000.00000"></scales>
<clustering>
<clus scale="   40.491">  1  5  2 -1</clus>
<clus scale="   65.186">  2  4  1 -1</clus>
<clus scale="   74.421">  1  3  2 -1</clus>
<clus scale="   40.491">  1  3  2 -1</clus>
</clustering>
</event>
<event>
 6    0  0.9315069E+002  0.1546428E+03  0.7546771E-02  0.1194881E+00
         21   -1    0    0  505  501  0.00000000000E+00  0.00000000000E+00  0.57975347463E+03  0.57975347463E+03  0.00000000000E+00 0.  1.
         21   -1    0    0  501  502 -0.00000000000E+00 -0.00000000000E+00 -0.61810541609E+02  0.61810541609E+02  0.00000000000E+00 0. -1.
         21    1    1    2  503  502  0.14494769764E+03 -0.25955310115E+02  0.80291580201E+02  0.16772075312E+03  0.00000000000E+00 0. -1.
         21    1    1    2  504  506 -0.77351068471E+02  0.14618715929E+02  0.30532270589E+03  0.31530754730E+03  0.00000000000E+00 0.  1.
         21    1    1    2  505  504 -0.37291922834E+02 -0.21033266805E+02  0.69681785311E+02  0.81784087849E+02  0.00000000000E+00 0.  1.
         21    1    1    2  506  503 -0.30304706336E+02  0.32369860992E+02  0.62646861617E+02  0.76751627977E+02  0.00000000000E+00 0. -1.
<scales pt_clust_3="139.29571" pt_clust_4="45.53047" pt_clust_5="42.81455" pt_clust_6="45.53047"></scales>
<clustering>
<clus scale="   42.815">  1  5  2 -1</clus>
<clus scale="   45.530">  4  6 -1 -1</clus>
<clus scale="  139.296">  2  3  1 -1</clus>
<clus scale="   42.815">  1  3  2 -1</clus>
</clustering>
</event>
<event>
 6    0  0.9315069E+002  0.1311592E+03  0.7546771E-02  0.1225746E+00
         21   -1    0    0  504  501  0.00000000000E+00  0.00000000000E+00  0.58471483078E+03  0.58471483078E+03  0.00000000000E+00 0.  1.
         21   -1    0    0  503  502 -0.00000000000E+00 -0.00000000000E+00 -0.11436018293E+03  0.11436018293E+03  0.00000000000E+00 0.  1.
         21    1    1    2  503  506  0.11686479590E+02 -0.35497752837E+02  0.99535457424E+01  0.38674763536E+02  0.00000000000E+00 0.  1.
         21    1    1    2  504  505 -0.40991737942E+02 -0.25221231055E+02  0.27926567300E+01  0.48210289432E+02  0.00000000000E+00 0.  1.
         21    1    1    2  505  502 -0.54160456538E+02 -0.29213506434E+02 -0.56562092839E+02  0.83582619946E+02  0.00000000000E+00 0.  1.
         21    1    1    2  506  501  0.83465714891E+02  0.89932490326E+02  0.51417053822E+03  0.52860734080E+03  0.00000000000E+00 0.  1.
<scales pt_clust_3="37.37197" pt_clust_4="41.95513" pt_clust_5="41.95513" pt_clust_6="121.41496"></scales>
<clustering>
<clus scale="   37.372">  2  3  1 -1</clus>
<clus scale="   41.955">  4  5 -1 -1</clus>
<clus scale="  121.415">  1  6  2 -1</clus>
<clus scale="  121.415">  1  3  2 -1</clus>
</clustering>
</event>
<event>
 6    0  0.9315069E+002  0.1846725E+03  0.7546771E-02  0.1163356E+00
         21   -1    0    0  502  501  0.00000000000E+00  0.00000000000E+00  0.18177737027E+04  0.18177737027E+04  0.00000000000E+00 0. -1.
         21   -1    0    0  505  502 -0.00000000000E+00 -0.00000000000E+00 -0.31527659381E+02  0.31527659381E+02  0.00000000000E+00 0.  1.
         21    1    1    2  503  504  0.44604024560E+02  0.99379379402E+02  0.23067338724E+03  0.25509996401E+03  0.00000000000E+00 0.  1.
         21    1    1    2  504  506 -0.71672196716E+01 -0.18013092319E+03  0.49325046331E+03  0.52516144002E+03  0.00000000000E+00 0. -1.
         21    1    1    2  505  503 -0.96903146973E+01  0.54595019482E+02  0.26167208889E+03  0.26748233672E+03  0.00000000000E+00 0. -1.
         21    1    1    2  506  501 -0.27746490191E+02  0.26156524305E+02  0.80065010386E+03  0.80155762131E+03  0.00000000000E+00 0. -1.
<scales pt_clust_3="57.17348" pt_clust_4="168.35322" pt_clust_5="57.17348" pt_clust_6="38.13176"></scales>
<clustering>
<clus scale="   38.132">  1  6  2 -1</clus>
<clus scale="   57.173">  3  5 -1 -1</clus>
<clus scale="  168.353">  1  4  2 -1</clus>
<clus scale="   38.132">  1  3  2 -1</clus>
</clustering>
</event>
<event>
 6    0  0.9315069E+002  0.3021286E+03  0.7546771E-02  0.1084181E+00
         21   -1    0    0  502  501  0.00000000000E+00  0.00000000000E+00  0.15262942568E+03  0.15262942568E+03  0.00000000000E+00 0.  1.
         21   -1    0    0  505  502 -0.00000000000E+00 -0.00000000000E+00 -0.57699961851E+03  0.57699961851E+03  0.00000000000E+00 0.  1.
         21    1    1    2  503  504 -0.16604226747E+03  0.11724532286E+03 -0.14448560725E+03  0.24938442417E+03  0.00000000000E+00 0.  1.
         21    1    1    2  504  506  0.13617009195E+03 -0.19026114574E+03 -0.14366486813E+03  0.27455635461E+03  0.00000000000E+00 0.  1.
         21    1    1    2  505  503 -0.38214965354E+02  0.72064401349E+02 -0.98341811450E+02  0.12776843663E+03  0.00000000000E+00 0.  1.
         21    1    1    2  506  501  0.68087140868E+02  0.95142152904E+00 -0.37877906002E+02  0.77919828783E+02  0.00000000000E+00 0.  1.
<scales pt_clust_3="288.58123" pt_clust_4="63.19619" pt_clust_5="47.91041" pt_clust_6="63.19619"></scales>
<clustering>
<clus scale="   47.910">  3  5 -1 -1</clus>
<clus scale="   63.196">  4  6 -1 -1</clus>
<clus scale="  288.581">  2  3  1 -1</clus>
<clus scale="  302.129">  1  3  2 -1</clus>
</clustering>
</event>
<event>
 6    0  0.9315069E+002  0.1018348E+03  0.7546771E-02  0.1276484E+00
         21   -1    0    0  505  501  0.00000000000E+00  0.00000000000E+00  0.32646916562E+03  0.32646916562E+03  0.00000000000E+00 0. -1.
         21   -1    0    0  504  502 -0.00000000000E+00 -0.00000000000E+00 -0.21334543147E+04  0.21334543147E+04  0.00000000000E+00 0. -1.
         21    1    1    2  503  506 -0.97938703670E+02  0.20466086927E+02  0.44098843370E+02  0.10934147602E+03  0.00000000000E+00 0. -1.
         21    1    1    2  504  503 -0.32450204980E+02  0.10575873154E+02 -0.47111153138E+02  0.58174957209E+02  0.00000000000E+00 0. -1.
         21    1    1    2  505  502  0.12358467790E+03  0.38331926239E+02 -0.20411251823E+04  0.20452223642E+04  0.00000000000E+00 0. -1.
         21    1    1    2  506  501  0.68042307490E+01 -0.69373886320E+02  0.23715234301E+03  0.24718468289E+03  0.00000000000E+00 0. -1.
<scales pt_clust_3="14000.00000" pt_clust_4="34.13012" pt_clust_5="101.83479" pt_clust_6="69.67380"></scales>
<clustering>
<clus scale="   34.130">  2  4  1 -1</clus>
<clus scale="   69.674">  1  6  2 -1</clus>
<clus scale="  101.835">  2  5  1 -1</clus>
<clus scale="   69.674">  1  3  2 -1</clus>
</clustering>
</event>
<event>
 6    0  0.9315069E+002  0.8965852E+02  0.7546771E-02  0.1303681E+00
         21   -1    0    0  506  501  0.00000000000E+00  0.00000000000E+00  0.52776094619E+03  0.52776094619E+03  0.00000000000E+00 0.  1.
         21   -1    0    0  504  502 -0.00000000000E+00 -0.00000000000E+00 -0.24804938037E+03  0.24804938037E+03  0.00000000000E+00 0.  1.
         21    1    1    2  503  502  0.53821912985E+02  0.34644254763E+02  0.82888430750E+02  0.10472590252E+03  0.00000000000E+00 0.  1.
         21    1    1    2  504  505  0.29759417973E+02  0.30478737414E+02 -0.22047069473E+03  0.22454822116E+03  0.00000000000E+00 0.  1.
         21    1    1    2  505  501 -0.11364701994E+03 -0.43001740230E+02  0.32574212878E+03  0.34766755567E+03  0.00000000000E+00 0.  1.
         21    1    1    2  506  503  0.30065688980E+02 -0.22121251947E+02  0.91551701023E+02  0.98868647213E+02  0.00000000000E+00 0.  1.
<scales pt_clust_3="89.65852" pt_clust_4="42.62260" pt_clust_5="14000.00000" pt_clust_6="37.32687"></scales>
<clustering>
<clus scale="   37.327">  1  6  2 -1</clus>
<clus scale="   42.623">  2  4  1 -1</clus>
<clus scale="   89.659">  2  3  1 -1</clus>
<clus scale="   37.327">  1  3  2 -1</clus>
</clustering>
</event>
<event>
 6    0  0.9315069E+002  0.8421806E+02  0.7546771E-02  0.1317490E+00
         21   -1    0    0  504  501  0.00000000000E+00  0.00000000000E+00  0.28356453483E+03  0.28356453483E+03  0.00000000000E+00 0. -1.
         21   -1    0    0  503  502 -0.00000000000E+00 -0.00000000000E+00 -0.14615628499E+03  0.14615628499E+03  0.00000000000E+00 0. -1.
         21    1    1    2  503  506  0.91948493172E+02 -0.70444544926E+02 -0.44149774992E+02  0.12396032405E+03  0.00000000000E+00 0. -1.
         21    1    1    2  504  505 -0.52273399794E+02  0.29328949162E+02 -0.28029272925E+01  0.60004599711E+02  0.00000000000E+00 0. -1.
         21    1    1    2  505  502  0.16171537735E+02  0.34231126766E+02 -0.13388581917E+02  0.40156478906E+02  0.00000000000E+00 0. -1.
         21    1    1    2  506  501 -0.55846631113E+02  0.68844689973E+01  0.19774953404E+03  0.20559941716E+03  0.00000000000E+00 0. -1.
<scales pt_clust_3="84.21806" pt_clust_4="14000.00000" pt_clust_5="37.85880" pt_clust_6="55.89189"></scales>
<clustering>
<clus scale="   37.859">  2  5  1 -1</clus>
<clus scale="   55.892">  1  6  2 -1</clus>
<clus scale="   84.218">  1  3  2 -1</clus>
<clus scale="   55.892">  1  3  2 -1</clus>
</clustering>
</event>
<event>
 6    0  0.9315069E+002  0.1134665E+03  0.7546771E-02  0.1254282E+00
         21   -1    0    0  506  501  0.00000000000E+00  0.00000000000E+00  0.10871694764E+04  0.10871694764E+04  0.00000000000E+00 0. -1.
         21   -1    0    0  503  502 -0.00000000000E+00 -0.00000000000E+00 -0.24317185679E+03  0.24317185679E+03  0.00000000000E+00 0. -1.
         21    1    1    2  503  504 -0.22556347366E+02 -0.94577736626E+02 -0.16966667948E+03  0.19555183251E+03  0.00000000000E+00 0. -1.
         21    1    1    2  504  501  0.49761888985E+02 -0.17024782659E+02  0.10051006648E+04  0.10064757499E+04  0.00000000000E+00 0. -1.
         21    1    1    2  505  502  0.41380293403E+01  0.85526041132E+02 -0.37925144267E+01  0.85710035376E+02  0.00000000000E+00 0. -1.
         21    1    1    2  506  505 -0.31343570959E+02  0.26076478152E+02  0.12356148735E+02  0.42603715388E+02  0.00000000000E+00 0.  1.
<scales pt_clust_3="98.38104" pt_clust_4="52.59362" pt_clust_5="39.00965" pt_clust_6="39.00965"></scales>
<clustering>
<clus scale="   39.010">  5  6 -1 -1</clus>
<clus scale="   52.594">  1  4  2 -1</clus>
<clus scale="   98.381">  2  3  1 -1</clus>
<clus scale="   52.594">  1  3  2 -1</clus>
</clustering>
</event>
<event>
 6    0  0.9315069E+002  0.9540090E+02  0.7546771E-02  0.1290276E+00
         21   -1    0    0  505  501  0.00000000000E+00  0.00000000000E+00  0.23893075006E+03  0.23893075006E+03  0.00000000000E+00 0.  1.
         21   -1    0    0  503  502 -0.00000000000E+00 -0.00000000000E+00 -0.69853220599E+03  0.69853220599E+03  0.00000000000E+00 0.  1.
         21    1    1    2  503  506 -0.88205268742E+02  0.64595860721E+02 -0.62193821252E+03  0.63147441346E+03  0.00000000000E+00 0.  1.
         21    1    1    2  504  502 -0.57631610269E+01 -0.40864977061E+02 -0.32912431806E+02  0.52786253349E+02  0.00000000000E+00 0.  1.
         21    1    1    2  505  504  0.24769993873E+02 -0.17507497634E+02 -0.13495191155E+02  0.33199175505E+02  0.00000000000E+00 0. -1.
         21    1    1    2  506  501  0.69198435896E+02 -0.62233860261E+01  0.20874437955E+03  0.22000311375E+03  0.00000000000E+00 0.  1.
<scales pt_clust_3="14000.00000" pt_clust_4="41.88765" pt_clust_5="30.33257" pt_clust_6="95.40090"></scales>
<clustering>
<clus scale="   30.333">  1  5  2 -1</clus>
<clus scale="   41.888">  2  4  1 -1</clus>
<clus scale="   95.401">  1  6  2 -1</clus>
<clus scale="   30.333">  1  3  2 -1</clus>
</clustering>
</event>
<event>
 6    0  0.9315069E+002  0.2129162E+03  0.7546771E-02  0.1139277E+00
         21   -1    0    0  503  501  0.00000000000E+00  0.00000000000E+00  0.24173190116E+03  0.24173190116E+03  0.00000000000E+00 0. -1.
         21   -1    0    0  506  502 -0.00000000000E+00 -0.00000000000E+00 -0.17657472992E+04  0.17657472992E+04  0.00000000000E+00 0. -1.
         21    1    1    2  503  505 -0.99533248140E+02 -0.12195884601E+03 -0.10318299129E+04  0.10437690342E+04  0.00000000000E+00 0. -1.
         21    1    1    2  504  501  0.34791137744E+02  0.21392336485E+03  0.17263554327E+03  0.27708601570E+03  0.00000000000E+00 0. -1.
         21    1    1    2  505  502  0.17150118178E+02 -0.11555604550E+03 -0.49949957119E+03  0.51297870114E+03  0.00000000000E+00 0.  1.
         21    1    1    2  506  504  0.47591992218E+02  0.23591526658E+02 -0.16532145722E+03  0.17364544932E+03  0.00000000000E+00 0. -1.
<scales pt_clust_3="212.91624" pt_clust_4="14000.00000" pt_clust_5="112.78155" pt_clust_6="53.11834"></scales>
<clustering>
<clus scale="   53.118">  2  6  1 -1</clus>
<clus scale="  112.782">  2  5  1 -1</clus>
<clus scale="  212.916">  2  3  1 -1</clus>
<clus scale="  212.916">  1  3  2 -1</clus>
</clustering>
</event>
<event>
 6    0  0.9315069E+002  0.7871446E+02  0.7546771E-02  0.1332740E+00
         21   -1    0    0  503  501  0.00000000000E+00  0.00000000000E+00  0.86435388036E+02  0.86435388036E+02  0.00000000000E+00 0. -1.
         21   -1    0    0  506  502 -0.00000000000E+00 -0.00000000000E+00 -0.79713712447E+03  0.79713712447E+03  0.00000000000E+00 0.  1.
         21    1    1    2  503  504  0.82203835143E+02  0.17124791228E+02  0.46032282504E+02  0.95758550633E+02  0.00000000000E+00 0. -1.
         21    1    1    2  504  505 -0.18286207805E+02 -0.78031464144E+02 -0.18616081206E+03  0.20267990215E+03  0.00000000000E+00 0.  1.
         21    1    1    2  505  502 -0.44890961552E+02 -0.47939663937E+01 -0.10133493644E+03  0.11093669315E+03  0.00000000000E+00 0.  1.
         21    1    1    2  506  501 -0.19026665786E+02  0.65700639310E+02 -0.46923827044E+03  0.47419736657E+03  0.00000000000E+00 0.  1.
<scales pt_clust_3="78.71446" pt_clust_4="14000.00000" pt_clust_5="45.14621" pt_clust_6="79.77812"></scales>
<clustering>
<clus scale="   45.146">  2  5  1 -1</clus>
<clus scale="   79.778">  2  6  1 -1</clus>
<clus scale="   78.714">  1  3  2 -1</clus>
<clus scale="   78.714">  1  3  2 -1</clus>
</clustering>
</event>
<event>
 6    0  0.9315069E+002  0.1005401E+03  0.7546771E-02  0.1279164E+00
         21   -1    0    0  506  501  0.00000000000E+00  0.00000000000E+00  0.34203968759E+03  0.34203968759E+03  0.00000000000E+00 0. -1.
         21   -1    0    0  503  502 -0.00000000000E+00 -0.00000000000E+00 -0.35516461936E+03  0.35516461936E+03  0.00000000000E+00 0. -1.
         21    1    1    2  503  505 -0.89249157286E+02  0.75502611832E+02 -0.16292568135E+03  0.20052639256E+03  0.00000000000E+00 0. -1.
         21    1    1    2  504  502 -0.15823986822E+02 -0.29707370532E+02 -0.11019912839E+03  0.11522488586E+03  0.00000000000E+00 0. -1.
         21    1    1    2  505  501  0.57137171521E+02  0.21555126251E+02  0.28782203429E+03  0.29422916792E+03  0.00000000000E+00 0. -1.
         21    1    1    2  506  504  0.47935972588E+02 -0.67350367551E+02 -0.27822156304E+02  0.87223860604E+02  0.00000000000E+00 0. -1.
<scales pt_clust_3="100.54014" pt_clust_4="33.65897" pt_clust_5="60.73436" pt_clust_6="14000.00000"></scales>
<clustering>
<clus scale="   33.659">  2  4  1 -1</clus>
<clus scale="   60.734">  1  5  2 -1</clus>
<clus scale="  100.540">  2  3  1 -1</clus>
<clus scale="   60.734">  1  3  2 -1</clus>
</clustering>
</event>
<event>
 6    0  0.9315069E+002  0.1051008E+03  0.7546771E-02  0.1269921E+00
         21   -1    0    0  506  501  0.00000000000E+00  0.00000000000E+00  0.70042444705E+03  0.70042444705E+03  0.00000000000E+00 0. -1.
         21   -1    0    0  505  502 -0.00000000000E+00 -0.00000000000E+00 -0.56976214199E+02  0.56976214199E+02  0.00000000000E+00 0. -1.
         21    1    1    2  503  502 -0.70942449847E+01  0.59058276634E+02 -0.44389005090E+01  0.59648237095E+02  0.00000000000E+00 0. -1.
         21    1    1    2  504  501 -0.30097267303E+02 -0.11756778994E+03  0.36094661697E+03  0.38080243044E+03  0.00000000000E+00 0. -1.
         21    1    1    2  505  504  0.15347174159E+02 -0.30649367956E+02  0.35822472460E+02  0.49579925816E+02  0.00000000000E+00 0. -1.
         21    1    1    2  506  503  0.21844338129E+02  0.89158881266E+02  0.25111804393E+03  0.26737006789E+03  0.00000000000E+00 0.  1.
<scales pt_clust_3="39.54800" pt_clust_4="105.10078" pt_clust_5="34.27710" pt_clust_6="14000.00000"></scales>
<clustering>
<clus scale="   34.277">  2  5  1 -1</clus>
<clus scale="   39.548">  2  3  1 -1</clus>
<clus scale="  105.101">  2  4  1 -1</clus>
<clus scale="  105.101">  1  3  2 -1</clus>
</clustering>
</event>
<event>
 6    0  0.9315069E+002  0.9464173E+02  0.7546771E-02  0.1291985E+00
         21   -1    0    0  506  501  0.00000000000E+00  0.00000000000E+00  0.76028741450E+03  0.76028741450E+03  0.00000000000E+00 0.  1.
         21   -1    0    0  501  502 -0.00000000000E+00 -0.00000000000E+00 -0.28752040813E+03  0.28752040813E+03  0.00000000000E+00 0.  1.
         21    1    1    2  503  505  0.46333656232E+02 -0.49912203091E+02  0.66556731198E+02  0.95225176214E+02  0.00000000000E+00 0.  1.
         21    1    1    2  504  503  0.61432896534E+02 -0.10109921169E+02  0.13542883797E+03  0.14905429023E+03  0.00000000000E+00 0.  1.
         21    1    1    2  505  502 -0.62160793857E+02  0.93585038932E+01 -0.26045643795E+03  0.26793488380E+03  0.00000000000E+00 0.  1.
         21    1    1    2  506  504 -0.45605758908E+02  0.50663620367E+02  0.53123787515E+03  0.53559347239E+03  0.00000000000E+00 0.  1.
<scales pt_clust_3="57.82829" pt_clust_4="57.82829" pt_clust_5="62.86132" pt_clust_6="72.79460"></scales>
<clustering>
<clus scale="   57.828">  3  4 -1 -1</clus>
<clus scale="   62.861">  2  5  1 -1</clus>
<clus scale="   72.795">  1  6  2 -1</clus>
<clus scale="   72.795">  1  3  2 -1</clus>
</clustering>
</event>
<event>
 6    0  0.9315069E+002  0.8846313E+02  0.7546771E-02  0.1306617E+00
         21   -1    0    0  505  501  0.00000000000E+00  0.00000000000E+00  0.25643402012E+03  0.25643402012E+03  0.00000000000E+00 0.  1.
         21   -1    0    0  503  502 -0.00000000000E+00 -0.00000000000E+00 -0.75693343836E+03  0.75693343836E+03  0.00000000000E+00 0. -1.
         21    1    1    2  503  504 -0.80114074943E+02 -0.34669884217E+02 -0.69356478388E+03  0.69903674818E+03  0.00000000000E+00 0. -1.
         21    1    1    2  504  506  0.13032973753E+03  0.34234011606E+02  0.61567292637E+02  0.14814972007E+03  0.00000000000E+00 0.  1.
         21    1    1    2  505  502 -0.27779856547E+02  0.25672816923E+02  0.12651343907E+03  0.13204720453E+03  0.00000000000E+00 0.  1.
         21    1    1    2  506  501 -0.22435806036E+02 -0.25236944311E+02  0.49846339293E+01  0.34133785698E+02  0.00000000000E+00 0.  1.
<scales pt_clust_3="14000.00000" pt_clust_4="88.46313" pt_clust_5="41.75608" pt_clust_6="33.76787"></scales>
<clustering>
<clus scale="   33.768">  1  6  2 -1</clus>
<clus scale="   41.756">  1  5  2 -1</clus>
<clus scale="   88.463">  1  4  2 -1</clus>
<clus scale="   33.768">  1  3  2 -1</clus>
</clustering>
</event>
<event>
 6    0  0.9315069E+002  0.1580516E+03  0.7546771E-02  0.1190914E+00
         21   -1    0    0  503  501  0.00000000000E+00  0.00000000000E+00  0.45394831427E+03  0.45394831427E+03  0.00000000000E+00 0.  1.
         21   -1    0    0  505  502 -0.00000000000E+00 -0.00000000000E+00 -0.10751813157E+04  0.10751813157E+04  0.00000000000E+00 0.  1.
         21    1    1    2  503  502  0.17060025022E+02  0.55757203295E+02  0.14982034745E+03  0.16076705721E+03  0.00000000000E+00 0.  1.
         21    1    1    2  504  506  0.44393436479E+02 -0.27257836517E+02  0.78171482993E+02  0.93939063266E+02  0.00000000000E+00 0.  1.
         21    1    1    2  505  504 -0.86113421169E+02  0.11108231661E+03 -0.10328980662E+04  0.10424170075E+04  0.00000000000E+00 0.  1.
         21    1    1    2  506  501  0.24659959669E+02 -0.13958168339E+03  0.18367323434E+03  0.23200650198E+03  0.00000000000E+00 0.  1.
<scales pt_clust_3="58.30875" pt_clust_4="43.18368" pt_clust_5="141.08951" pt_clust_6="43.18368"></scales>
<clustering>
<clus scale="   43.184">  4  6 -1 -1</clus>
<clus scale="   58.309">  1  3  2 -1</clus>
<clus scale="  141.090">  2  5  1 -1</clus>
<clus scale="   58.309">  1  3  2 -1</clus>
</clustering>
</event>
<event>
 6    0  0.9315069E+002  0.1202420E+03  0.7546771E-02  0.1242698E+00
         21   -1    0    0  503  501  0.00000000000E+00  0.00000000000E+00  0.10692511196E+04  0.10692511196E+04  0.00000000000E+00 0.  1.
         21   -1    0    0  505  502 -0.00000000000E+00 -0.00000000000E+00 -0.44609705030E+03  0.44609705030E+03  0.00000000000E+00 0. -1.
         21    1    1    2  503  506 -0.56408942228E+02  0.93415984384E+02  0.10249819846E+04  0.10307747492E+04  0.00000000000E+00 0.  1.
         21    1    1    2  504  502  0.24750879842E+02 -0.30065131762E+02 -0.54305661070E+02  0.66825317246E+02  0.00000000000E+00 0.  1.
         21    1    1    2  505  501 -0.13369396284E+02  0.30303999704E+02 -0.30281709085E+03  0.30462315025E+03  0.00000000000E+00 0. -1.
         21    1    1    2  506  504  0.45027458671E+02 -0.93654852326E+02 -0.44705163371E+02  0.11312495317E+03  0.00000000000E+00 0.  1.
<scales pt_clust_3="109.79449" pt_clust_4="30.01052" pt_clust_5="33.12209" pt_clust_6="30.01052"></scales>
<clustering>
<clus scale="   30.011">  4  6 -1 -1</clus>
<clus scale="   33.122">  2  5  1 -1</clus>
<clus scale="  109.794">  1  3  2 -1</clus>
<clus scale="  109.794">  1  3  2 -1</clus>
</clustering>
</event>
<event>
 6    0  0.9315069E+002  0.1501207E+03  0.7546771E-02  0.1200325E+00
         21   -1    0    0  503  501  0.00000000000E+00  0.00000000000E+00  0.15343869708E+03  0.15343869708E+03  0.00000000000E+00 0. -1.
         21   -1    0    0  505  502 -0.00000000000E+00 -0.00000000000E+00 -0.35278145101E+03  0.35278145101E+03  0.00000000000E+00 0.  1.
         21    1    1    2  503  502  0.11257545770E+03 -0.74564123887E+02  0.66512768202E+02  0.15052239229E+03  0.00000000000E+00 0. -1.
         21    1    1    2  504  506 -0.43031640625E+02  0.28747921606E+02 -0.29140285826E+02  0.59391256508E+02  0.00000000000E+00 0.  1.
         21    1    1    2  505  504  0.36193557768E+02  0.61170024020E+02 -0.10307515863E+03  0.12520476744E+03  0.00000000000E+00 0.  1.
         21    1    1    2  506  501 -0.10573737485E+03 -0.15353821739E+02 -0.13364007768E+03  0.17110173185E+03  0.00000000000E+00 0.  1.
<scales pt_clust_3="134.97504" pt_clust_4="45.73181" pt_clust_5="71.07563" pt_clust_6="45.73181"></scales>
<clustering>
<clus scale="   45.732">  4  6 -1 -1</clus>
<clus scale="   71.076">  2  5  1 -1</clus>
<clus scale="  134.975">  1  3  2 -1</clus>
<clus scale="  134.975">  1  3  2 -1</clus>
</clustering>
</event>
<event>
 6    0  0.9315069E+002  0.1402678E+03  0.7546771E-02  0.1212969E+00
         21   -1    0    0  506  501  0.00000000000E+00  0.00000000000E+00  0.32805329005E+02  0.32805329005E+02  0.00000000000E+00 0. -1.
         21   -1    0    0  503  502 -0.00000000000E+00 -0.00000000000E+00 -0.14478935215E+04  0.14478935215E+04  0.00000000000E+00 0. -1.
         21    1    1    2  503  501  0.18598490505E+02 -0.31919083079E+02 -0.27296302940E+03  0.27545153318E+03  0.00000000000E+00 0. -1.
         21    1    1    2  504  502  0.11491296128E+03  0.21873023980E+02 -0.98779347293E+03  0.99469561325E+03  0.00000000000E+00 0. -1.
         21    1    1    2  505  504 -0.42245537269E+02 -0.90376080916E+00 -0.86643257475E+02  0.96397905935E+02  0.00000000000E+00 0. -1.
         21    1    1    2  506  505 -0.91265914518E+02  0.10949819908E+02 -0.67688432680E+02  0.11415379813E+03  0.00000000000E+00 0. -1.
<scales pt_clust_3="36.94228" pt_clust_4="130.71936" pt_clust_5="34.48862" pt_clust_6="34.48862"></scales>
<clustering>
<clus scale="   34.489">  5  6 -1 -1</clus>
<clus scale="   36.942">  2  3  1 -1</clus>
<clus scale="  130.719">  2  4  1 -1</clus>
<clus scale="  140.268">  1  3  2 -1</clus>
</clustering>
</event>
<event>
 6    0  0.9315069E+002  0.1281622E+03  0.7546771E-02  0.1230208E+00
         21   -1    0    0  503  501  0.00000000000E+00  0.00000000000E+00  0.18391802390E+04  0.18391802390E+04  0.00000000000E+00 0. -1.
         21   -1    0    0  504  502 -0.00000000000E+00 -0.00000000000E+00 -0.21119330876E+04  0.21119330876E+04  0.00000000000E+00 0.  1.
         21    1    1    2  503  502 -0.38887845161E+02  0.10849564939E+02 -0.21736207301E+03  0.22107973300E+03  0.00000000000E+00 0. -1.
         21    1    1    2  504  505  0.13469787913E+02  0.54566081529E+02 -0.17017246274E+04  0.17026525189E+04  0.00000000000E+00 0.  1.
         21    1    1    2  505  506  0.45421007579E+02  0.61907269204E+02 -0.18042378673E+03  0.19608243350E+03  0.00000000000E+00 0.  1.
         21    1    1    2  506  501 -0.20002950331E+02 -0.12732291567E+03  0.18267576386E+04  0.18312986411E+04  0.00000000000E+00 0. -1.
<scales pt_clust_3="40.37298" pt_clust_4="67.82268" pt_clust_5="14000.00000" pt_clust_6="128.16219"></scales>
<clustering>
<clus scale="   40.373">  2  3  1 -1</clus>
<clus scale="   67.823">  2  4  1 -1</clus>
<clus scale="  128.162">  1  6  2 -1</clus>
<clus scale="  128.162">  1  3  2 -1</clus>
</clustering>
</event>
<event>
 6    0  0.9315069E+002  0.7243180E+02  0.7546771E-02  0.1352014E+00
         21   -1    0    0  506  501  0.00000000000E+00  0.00000000000E+00  0.22046976761E+04  0.22046976761E+04  0.00000000000E+00 0.  1.
         21   -1    0    0  505  502 -0.00000000000E+00 -0.00000000000E+00 -0.16001748757E+03  0.16001748757E+03  0.00000000000E+00 0.  1.
         21    1    1    2  503  502 -0.65753024126E+02  0.28856613500E+02 -0.13997405424E+03  0.15731783175E+03  0.00000000000E+00 0.  1.
         21    1    1    2  504  501  0.83983851184E+01 -0.45287535624E+02  0.15354959606E+04  0.15361866224E+04  0.00000000000E+00 0.  1.
         21    1    1    2  505  504 -0.46091549158E+02  0.42413573808E+02  0.20091256964E+03  0.21045000068E+03  0.00000000000E+00 0.  1.
         21    1    1    2  506  503  0.10344618817E+03 -0.25982651684E+02  0.44824571248E+03  0.46076070882E+03  0.00000000000E+00 0.  1.
<scales pt_clust_3="72.43180" pt_clust_4="46.05968" pt_clust_5="52.00523" pt_clust_6="14000.00000"></scales>
<clustering>
<clus scale="   46.060">  1  4  2 -1</clus>
<clus scale="   52.005">  1  5  2 -1</clus>
<clus scale="   72.432">  2  3  1 -1</clus>
<clus scale="   46.060">  1  3  2 -1</clus>
</clustering>
</event>
<event>
 6    0  0.9315069E+002  0.1368090E+03  0.7546771E-02  0.1217688E+00
         21   -1    0    0  506  501  0.00000000000E+00  0.00000000000E+00  0.26183061673E+04  0.26183061673E+04  0.00000000000E+00 0.  1.
         21   -1    0    0  504  502 -0.00000000000E+00 -0.00000000000E+00 -0.17551922148E+03  0.17551922148E+03  0.00000000000E+00 0. -1.
         21    1    1    2  503  501  0.10682021684E+03 -0.47964106361E+02  0.15456426766E+04  0.15500717396E+04  0.00000000000E+00 0.  1.
         21    1    1    2  504  503  0.13374538512E+03  0.11957595063E+02 -0.12485023804E+03  0.18335319484E+03  0.00000000000E+00 0. -1.
         21    1    1    2  505  502 -0.20606402179E+03  0.79081471213E+02  0.70845757581E+03  0.74204339286E+03  0.00000000000E+00 0.  1.
         21    1    1    2  506  505 -0.34501580175E+02 -0.43074959915E+02  0.31353693138E+03  0.31835706140E+03  0.00000000000E+00 0.  1.
<scales pt_clust_3="113.62355" pt_clust_4="14000.00000" pt_clust_5="136.80898" pt_clust_6="55.18887"></scales>
<clustering>
<clus scale="   55.189">  1  6  2 -1</clus>
<clus scale="  113.624">  1  3  2 -1</clus>
<clus scale="  136.809">  1  5  2 -1</clus>
<clus scale="   55.189">  1  3  2 -1</clus>
</clustering>
</event>
<event>
 6    0  0.9315069E+002  0.1095286E+03  0.7546771E-02  0.1261445E+00
         21   -1    0    0  505  501  0.00000000000E+00  0.00000000000E+00  0.25414852369E+03  0.25414852369E+03  0.00000000000E+00 0. -1.
         21   -1    0    0  504  502 -0.00000000000E+00 -0.00000000000E+00 -0.15908942541E+04  0.15908942541E+04  0.00000000000E+00 0. -1.
         21    1    1    2  503  506  0.44668080350E+02 -0.44943915469E+02 -0.11590256271E+03  0.13209313753E+03  0.00000000000E+00 0. -1.
         21    1    1    2  504  501 -0.11471848580E+03  0.32269015898E+02 -0.71512887424E+03  0.72499029452E+03  0.00000000000E+00 0.  1.
         21    1    1    2  505  503 -0.34420409915E+02  0.10102710575E+02  0.23610542448E+03  0.23881499293E+03  0.00000000000E+00 0. -1.
         21    1    1    2  506  502  0.10447081537E+03  0.25721889955E+01 -0.74181971790E+03  0.74914435276E+03  0.00000000000E+00 0. -1.
<scales pt_clust_3="48.84513" pt_clust_4="109.52857" pt_clust_5="35.87240" pt_clust_6="14000.00000"></scales>
<clustering>
<clus scale="   35.872">  1  5  2 -1</clus>
<clus scale="   48.845">  1  3  2 -1</clus>
<clus scale="  109.529">  1  4  2 -1</clus>
<clus scale="   35.872">  1  3  2 -1</clus>
</clustering>
</event>
<event>
 6    0  0.9315069E+002  0.1396427E+03  0.7546771E-02  0.1213811E+00
         21   -1    0    0  505  501  0.00000000000E+00  0.00000000000E+00  0.17137195969E+03  0.17137195969E+03  0.00000000000E+00 0.  1.
         21   -1    0    0  501  502 -0.00000000000E+00 -0.00000000000E+00 -0.21112906652E+03  0.21112906652E+03  0.00000000000E+00 0.  1.
         21    1    1    2  503  506  0.18392778042E+02 -0.10468040367E+03 -0.67753530735E+02  0.12604293762E+03  0.00000000000E+00 0.  1.
         21    1    1    2  504  503 -0.22314875690E+02  0.25933109902E+02  0.39018942334E+02  0.51893715681E+02  0.00000000000E+00 0.  1.
         21    1    1    2  505  504  0.15596891017E+02  0.10947723944E+03  0.60354722118E+02  0.12598103606E+03  0.00000000000E+00 0.  1.
         21    1    1    2  506  502 -0.11674793369E+02 -0.30729945676E+02 -0.71377240546E+02  0.78583336844E+02  0.00000000000E+00 0.  1.
<scales pt_clust_3="126.95227" pt_clust_4="32.35279" pt_clust_5="32.35279" pt_clust_6="32.87294"></scales>
<clustering>
<clus scale="   32.353">  4  5 -1 -1</clus>
<clus scale="   32.873">  2  6  1 -1</clus>
<clus scale="  126.952">  2  3  1 -1</clus>
<clus scale="  139.643">  1  3  2 -1</clus>
</clustering>
</event>
<event>
 6    0  0.9315069E+002  0.1677059E+03  0.7546771E-02  0.1180262E+00
         21   -1    0    0  506  501  0.00000000000E+00  0.00000000000E+00  0.56317182366E+03  0.56317182366E+03  0.00000000000E+00 0.  1.
         21   -1    0    0  504  502 -0.00000000000E+00 -0.00000000000E+00 -0.78004453811E+03  0.78004453811E+03  0.00000000000E+00 0.  1.
         21    1    1    2  503  505  0.41342542052E+02 -0.17362691814E+03 -0.55479235378E+03  0.58279504828E+03  0.00000000000E+00 0.  1.
         21    1    1    2  504  501 -0.35764314432E+02  0.38262970098E+02 -0.38878326655E+01  0.52519104242E+02  0.00000000000E+00 0.  1.
         21    1    1    2  505  502 -0.33690163737E+02 -0.30044153999E+02 -0.16655731518E+03  0.17256598031E+03  0.00000000000E+00 0. -1.
         21    1    1    2  506  503  0.28111936117E+02  0.16540810204E+03  0.50836478717E+03  0.53533622893E+03  0.00000000000E+00 0.  1.
<scales pt_clust_3="167.70592" pt_clust_4="52.46525" pt_clust_5="45.14065" pt_clust_6="14000.00000"></scales>
<clustering>
<clus scale="   45.141">  2  5  1 -1</clus>
<clus scale="   52.465">  2  4  1 -1</clus>
<clus scale="  167.706">  2  3  1 -1</clus>
<clus scale="  167.706">  1  3  2 -1</clus>
</clustering>
</event>
<event>
 6    0  0.9315069E+002  0.7604603E+02  0.7546771E-02  0.1340662E+00
         21   -1    0    0  503  501  0.00000000000E+00  0.00000000000E+00  0.19778042340E+03  0.19778042340E+03  0.00000000000E+00 0. -1.
         21   -1    0    0  506  502 -0.00000000000E+00 -0.00000000000E+00 -0.90208528167E+03  0.90208528167E+03  0.00000000000E+00 0. -1.
         21    1    1    2  503  505  0.75104510806E+02  0.63590983329E+01  0.17500558405E+03  0.19054679248E+03  0.00000000000E+00 0. -1.
         21    1    1    2  504  501 -0.10129397776E+03  0.24545633394E+01 -0.27629603647E+03  0.29428896443E+03  0.00000000000E+00 0. -1.
         21    1    1    2  505  502  0.60802447887E+02  0.12535862458E+02 -0.18706979829E+03  0.19710199124E+03  0.00000000000E+00 0. -1.
         21    1    1    2  506  504 -0.34612980929E+02 -0.21349524131E+02 -0.41594460755E+03  0.41792795693E+03  0.00000000000E+00 0. -1.
<scales pt_clust_3="14000.00000" pt_clust_4="76.04603" pt_clust_5="47.27471" pt_clust_6="40.66769"></scales>
<clustering>
<clus scale="   40.668">  2  6  1 -1</clus>
<clus scale="   47.275">  2  5  1 -1</clus>
<clus scale="   76.046">  2  4  1 -1</clus>
<clus scale="   76.046">  1  3  2 -1</clus>
</clustering>
</event>
<event>
 6    0  0.9315069E+002  0.1566134E+03  0.7546771E-02  0.1192574E+00
         21   -1    0    0  506  501  0.00000000000E+00  0.00000000000E+00  0.15166857470E+03  0.15166857470E+03  0.00000000000E+00 0. -1.
         21   -1    0    0  504  502 -0.00000000000E+00 -0.00000000000E+00 -0.66495989344E+03  0.66495989344E+03  0.00000000000E+00 0. -1.
         21    1    1    2  503  505 -0.17756096543E+03  0.17110225788E+02 -0.16767035233E+03  0.24481422205E+03  0.00000000000E+00 0. -1.
         21    1    1    2  504  503  0.14362124930E+03  0.52726391409E+02 -0.38209735778E+03  0.41158902612E+03  0.00000000000E+00 0. -1.
         21    1    1    2  505  501 -0.29666816126E+02 -0.79270285671E+02  0.44156896573E+02  0.95465856118E+02  0.00000000000E+00 0. -1.
         21    1    1    2  506  502  0.63606532250E+02  0.94336684733E+01 -0.76805052044E+01  0.64759363847E+02  0.00000000000E+00 0.  1.
<scales pt_clust_3="156.61337" pt_clust_4="14000.00000" pt_clust_5="74.19786" pt_clust_6="64.30229"></scales>
<clustering>
<clus scale="   64.302">  1  6  2 -1</clus>
<clus scale="   74.198">  1  5  2 -1</clus>
<clus scale="  156.613">  1  3  2 -1</clus>
<clus scale="   64.302">  1  3  2 -1</clus>
</clustering>
</event>
<event>
 6    0  0.9315069E+002  0.7635781E+02  0.7546771E-02  0.1339717E+00
         21   -1    0    0  503  501  0.00000000000E+00  0.00000000000E+00  0.13373383795E+04  0.13373383795E+04  0.00000000000E+00 0.  1.
         21   -1    0    0  504  502 -0.00000000000E+00 -0.00000000000E+00 -0.15913497229E+03  0.15913497229E+03  0.00000000000E+00 0.  1.
         21    1    1    2  503  505  0.11105640703E+03  0.45609839086E+02  0.27751763342E+03  0.30237364274E+03  0.00000000000E+00 0.  1.
         21    1    1    2  504  506  0.51478077627E+00 -0.42175612077E+02  0.54383301358E+03  0.54546621702E+03  0.00000000000E+00 0.  1.
         21    1    1    2  505  502 -0.73943222703E+02 -0.12495031624E+02 -0.13544349804E+03  0.15481817451E+03  0.00000000000E+00 0.  1.
         21    1    1    2  506  501 -0.37627965106E+02  0.90608046156E+01  0.49229625826E+03  0.49381531754E+03  0.00000000000E+00 0.  1.
<scales pt_clust_3="14000.00000" pt_clust_4="43.40967" pt_clust_5="76.35781" pt_clust_6="38.70351"></scales>
<clustering>
<clus scale="   38.704">  1  6  2 -1</clus>
<clus scale="   43.410">  1  4  2 -1</clus>
<clus scale="   76.358">  2  5  1 -1</clus>
<clus scale="   38.704">  1  3  2 -1</clus>
</clustering>
</event>
<event>
 6    0  0.9315069E+002  0.8924674E+02  0.7546771E-02  0.1304686E+00
         21   -1    0    0  504  501  0.00000000000E+00  0.00000000000E+00  0.18331923193E+03  0.18331923193E+03  0.00000000000E+00 0.  1.
         21   -1    0    0  503  502 -0.00000000000E+00 -0.00000000000E+00 -0.14727611743E+04  0.14727611743E+04  0.00000000000E+00 0.  1.
         21    1    1    2  503  506  0.28100241743E+02  0.56794761866E+02 -0.45801328748E+03  0.46237586450E+03  0.00000000000E+00 0.  1.
         21    1    1    2  504  505  0.88762372522E+02 -0.21516816388E+01  0.15545863943E+03  0.17902730821E+03  0.00000000000E+00 0.  1.
         21    1    1    2  505  502 -0.12196078202E+03  0.19771737429E+02 -0.84868411939E+03  0.85763050812E+03  0.00000000000E+00 0.  1.
         21    1    1    2  506  501  0.50981677572E+01 -0.74414817656E+02 -0.13820317495E+03  0.15704672543E+03  0.00000000000E+00 0.  1.
<scales pt_clust_3="63.36615" pt_clust_4="89.24674" pt_clust_5="14000.00000" pt_clust_6="66.77070"></scales>
<clustering>
<clus scale="   63.366">  2  3  1 -1</clus>
<clus scale="   66.771">  2  6  1 -1</clus>
<clus scale="   89.247">  1  4  2 -1</clus>
<clus scale="   89.247">  1  3  2 -1</clus>
</clustering>
</event>
<event>
 6    0  0.9315069E+002  0.8227406E+02  0.7546771E-02  0.1322719E+00
         21   -1    0    0  503  501  0.00000000000E+00  0.00000000000E+00  0.26164722780E+03  0.26164722780E+03  0.00000000000E+00 0.  1.
         21   -1    0    0  505  502 -0.00000000000E+00 -0.00000000000E+00 -0.95361271042E+02  0.95361271042E+02  0.00000000000E+00 0.  1.
         21    1    1    2  503  504  0.81235363208E+02  0.43924838582E+01  0.12399320066E+03  0.14829966945E+03  0.00000000000E+00 0.  1.
         21    1    1    2  504  502  0.29136648175E+02 -0.48749792549E+02 -0.67085711364E+01  0.57188210911E+02  0.00000000000E+00 0.  1.
         21    1    1    2  505  506 -0.25761573523E+02  0.50975742503E+02  0.30143537654E+02  0.64581869410E+02  0.00000000000E+00 0.  1.
         21    1    1    2  506  501 -0.84610437859E+02 -0.66184338119E+01  0.18857789574E+02  0.86938749062E+02  0.00000000000E+00 0.  1.
<scales pt_clust_3="82.27406" pt_clust_4="56.79337" pt_clust_5="41.74670" pt_clust_6="14000.00000"></scales>
<clustering>
<clus scale="   56.793">  2  4  1 -1</clus>
<clus scale="   41.747">  2  5  1 -1</clus>
<clus scale="   82.274">  1  3  2 -1</clus>
<clus scale="   82.274">  1  3  2 -1</clus>
</clustering>
</event>
<event>
 6    0  0.9315069E+002  0.1067022E+03  0.7546771E-02  0.1266802E+00
         21   -1    0    0  503  501  0.00000000000E+00  0.00000000000E+00  0.59283192768E+03  0.59283192768E+03  0.00000000000E+00 0.  1.
         21   -1    0    0  504  502 -0.00000000000E+00 -0.00000000000E+00 -0.12280321190E+03  0.12280321190E+03  0.00000000000E+00 0. -1.
         21    1    1    2  503  505 -0.46155511445E+02 -0.93758225694E+02  0.47504152781E+03  0.48640044127E+03  0.00000000000E+00 0.  1.
         21    1    1    2  504  506  0.42043510184E+02 -0.21167357825E+01 -0.10503266664E+02  0.43387278430E+02  0.00000000000E+00 0. -1.
         21    1    1    2  505  502  0.15109438436E+02  0.13972185265E+03  0.54581335639E+01  0.14064239212E+03  0.00000000000E+00 0. -1.
         21    1    1    2  506  501 -0.10997437174E+02 -0.43846891178E+02  0.32321065773E-01  0.45205027763E+02  0.00000000000E+00 0.  1.
<scales pt_clust_3="106.70217" pt_clust_4="42.09676" pt_clust_5="14000.00000" pt_clust_6="44.35906"></scales>
<clustering>
<clus scale="   42.097">  2  4  1 -1</clus>
<clus scale="   44.359">  2  6  1 -1</clus>
<clus scale="  106.702">  1  3  2 -1</clus>
<clus scale="  106.702">  1  3  2 -1</clus>
</clustering>
</event>
<event>
 6    0  0.9315069E+002  0.1451567E+03  0.7546771E-02  0.1206554E+00
         21   -1    0    0  504  501  0.00000000000E+00  0.00000000000E+00  0.56237941103E+03  0.56237941103E+03  0.00000000000E+00 0. -1.
         21   -1    0    0  506  502 -0.00000000000E+00 -0.00000000000E+00 -0.15241199368E+03  0.15241199368E+03  0.00000000000E+00 0. -1.
         21    1    1    2  503  501  0.58272454433E+02  0.13376633395E+02  0.32695467821E+03  0.33237625498E+03  0.00000000000E+00 0. -1.
         21    1    1    2  504  505 -0.40567042503E+02 -0.35204150995E+01  0.34690351027E+02  0.53492978177E+02  0.00000000000E+00 0. -1.
         21    1    1    2  505  502 -0.36495822630E+02 -0.15034844894E+03  0.92741680729E+02  0.18038187412E+03  0.00000000000E+00 0. -1.
         21    1    1    2  506  503  0.18790410701E+02  0.14049223065E+03 -0.44419292615E+02  0.14854029744E+03  0.00000000000E+00 0. -1.
<scales pt_clust_3="34.32617" pt_clust_4="40.71951" pt_clust_5="14000.00000" pt_clust_6="145.15665"></scales>
<clustering>
<clus scale="   40.720">  1  4  2 -1</clus>
<clus scale="   34.326">  1  3  2 -1</clus>
<clus scale="  145.157">  2  6  1 -1</clus>
<clus scale="   40.720">  1  3  2 -1</clus>
</clustering>
</event>
<event>
 6    0  0.9315069E+002  0.8671044E+02  0.7546771E-02  0.1311019E+00
         21   -1    0    0  504  501  0.00000000000E+00  0.00000000000E+00  0.13816378067E+04  0.13816378067E+04  0.00000000000E+00 0.  1.
         21   -1    0    0  505  502 -0.00000000000E+00 -0.00000000000E+00 -0.65410397576E+02  0.65410397576E+02  0.00000000000E+00 0.  1.
         21    1    1    2  503  502  0.51012945470E+02  0.70606451909E+01 -0.39567354208E+02  0.64944197855E+02  0.00000000000E+00 0.  1.
         21    1    1    2  504  503  0.95561629730E+01 -0.37949624462E+02  0.13951930465E+03  0.14490386682E+03  0.00000000000E+00 0.  1.
         21    1    1    2  505  506 -0.12578198586E+03  0.61647857204E+01  0.43624791949E+03  0.45406096486E+03  0.00000000000E+00 0.  1.
         21    1    1    2  506  501  0.65212877416E+02  0.24724193551E+02  0.78002753921E+03  0.78313917477E+03  0.00000000000E+00 0. -1.
<scales pt_clust_3="51.54444" pt_clust_4="39.13431" pt_clust_5="86.71044" pt_clust_6="14000.00000"></scales>
<clustering>
<clus scale="   39.134">  1  4  2 -1</clus>
<clus scale="   51.544">  2  3  1 -1</clus>
<clus scale="   86.710">  2  5  1 -1</clus>
<clus scale="   39.134">  1  3  2 -1</clus>
</clustering>
</event>
<event>
 6    0  0.9315069E+002  0.7645126E+02  0.7546771E-02  0.1339435E+00
         21   -1    0    0  504  501  0.00000000000E+00  0.00000000000E+00  0.14918014154E+04  0.14918014154E+04  0.00000000000E+00 0. -1.
         21   -1    0    0  506  502 -0.00000000000E+00 -0.00000000000E+00 -0.32577776677E+03  0.32577776677E+03  0.00000000000E+00 0.  1.
         21    1    1    2  503  502  0.47258158921E+02 -0.34497132694E+02 -0.31385909516E+03  0.31926621708E+03  0.00000000000E+00 0.  1.
         21    1    1    2  504  503  0.68686813132E+02  0.11598494666E+02  0.75603797124E+03  0.75924028958E+03  0.00000000000E+00 0. -1.
         21    1    1    2  505  501 -0.26116666898E+02  0.49086552803E+02  0.25780513348E+03  0.26373292703E+03  0.00000000000E+00 0. -1.
         21    1    1    2  506  505 -0.89828305155E+02 -0.26187914776E+02  0.46603963911E+03  0.47533974850E+03  0.00000000000E+00 0. -1.
<scales pt_clust_3="58.39984" pt_clust_4="76.45126" pt_clust_5="55.60189" pt_clust_6="14000.00000"></scales>
<clustering>
<clus scale="   55.602">  1  5  2 -1</clus>
<clus scale="   58.400">  2  3  1 -1</clus>
<clus scale="   76.451">  1  4  2 -1</clus>
<clus scale="   55.602">  1  3  2 -1</clus>
</clustering>
</event>
<event>
 6    0  0.9315069E+002  0.1521328E+03  0.7546771E-02  0.1197876E+00
         21   -1    0    0  506  501  0.00000000000E+00  0.00000000000E+00  0.33197361121E+03  0.33197361121E+03  0.00000000000E+00 0.  1.
         21   -1    0    0  503  502 -0.00000000000E+00 -0.00000000000E+00 -0.21372000791E+03  0.21372000791E+03  0.00000000000E+00 0.  1.
         21    1    1    2  503  505  0.82823681582E+02 -0.50361900327E+01 -0.11464878515E+03  0.14152550787E+03  0.00000000000E+00 0.  1.
         21    1    1    2  504  502 -0.17702163292E+02  0.33480959743E+02  0.18714345109E+02  0.42244147090E+02  0.00000000000E+00 0. -1.
         21    1    1    2  505  501  0.10139670188E+03 -0.53685429211E+02  0.13080605683E+03  0.17399322103E+03  0.00000000000E+00 0.  1.
         21    1    1    2  506  504 -0.16651822017E+03  0.25240659501E+02  0.83381986502E+02  0.18793074313E+03  0.00000000000E+00 0.  1.
<scales pt_clust_3="82.97666" pt_clust_4="34.10136" pt_clust_5="134.06326" pt_clust_6="34.10136"></scales>
<clustering>
<clus scale="   34.101">  4  6 -1 -1</clus>
<clus scale="   82.977">  2  3  1 -1</clus>
<clus scale="  134.063">  1  5  2 -1</clus>
<clus scale="  134.063">  1  3  2 -1</clus>
</clustering>
</event>
<event>
 6    0  0.9315069E+002  0.8681421E+02  0.7546771E-02  0.1310755E+00
         21   -1    0    0  506  501  0.00000000000E+00  0.00000000000E+00  0.39347520984E+03  0.39347520984E+03  0.00000000000E+00 0.  1.
         21   -1    0    0  503  502 -0.00000000000E+00 -0.00000000000E+00 -0.89814247311E+03  0.89814247311E+03  0.00000000000E+00 0.  1.
         21    1    1    2  503  504 -0.19082687656E+02 -0.29489512939E+02 -0.33226511545E+03  0.33411657739E+03  0.00000000000E+00 0.  1.
         21    1    1    2  504  505 -0.10621633127E+03  0.29440561996E+02 -0.22453675573E+03  0.25013078658E+03  0.00000000000E+00 0.  1.
         21    1    1    2  505  501  0.41064568713E+02  0.38280765821E+01  0.37317220247E+03  0.37544433098E+03  0.00000000000E+00 0.  1.
         21    1    1    2  506  502  0.84234450217E+02 -0.37791256394E+01 -0.32103759455E+03  0.33192598800E+03  0.00000000000E+00 0.  1.
<scales pt_clust_3="35.12521" pt_clust_4="14000.00000" pt_clust_5="41.19894" pt_clust_6="86.81421"></scales>
<clustering>
<clus scale="   35.125">  2  3  1 -1</clus>
<clus scale="   41.199">  1  5  2 -1</clus>
<clus scale="   86.814">  2  6  1 -1</clus>
<clus scale="   41.199">  1  3  2 -1</clus>
</clustering>
</event>
<event>
 6    0  0.9315069E+002  0.8479191E+02  0.7546771E-02  0.1315978E+00
         21   -1    0    0  504  501  0.00000000000E+00  0.00000000000E+00  0.75074849449E+02  0.75074849449E+02  0.00000000000E+00 0.  1.
         21   -1    0    0  505  502 -0.00000000000E+00 -0.00000000000E+00 -0.30542281389E+03  0.30542281389E+03  0.00000000000E+00 0.  1.
         21    1    1    2  503  501  0.10165397815E+03  0.30173888663E+01 -0.30266552339E+02  0.10610702191E+03  0.00000000000E+00 0.  1.
         21    1    1    2  504  506 -0.63686945236E+02 -0.40646380713E+02 -0.38009385420E+02  0.84574633541E+02  0.00000000000E+00 0.  1.
         21    1    1    2  505  503 -0.59421041019E+02  0.49246931058E+01 -0.94384050079E+02  0.11163987472E+03  0.00000000000E+00 0.  1.
         21    1    1    2  506  502  0.21454008106E+02  0.32704298741E+02 -0.67687976600E+02  0.78176133162E+02  0.00000000000E+00 0.  1.
<scales pt_clust_3="84.79191" pt_clust_4="14000.00000" pt_clust_5="53.55821" pt_clust_6="39.11324"></scales>
<clustering>
<clus scale="   39.113">  2  6  1 -1</clus>
<clus scale="   53.558">  2  5  1 -1</clus>
<clus scale="   84.792">  2  3  1 -1</clus>
<clus scale="   84.792">  1  3  2 -1</clus>
</clustering>
</event>
<event>
 6    0  0.9315069E+002  0.1377239E+03  0.7546771E-02  0.1216425E+00
         21   -1    0    0  506  501  0.00000000000E+00  0.00000000000E+00  0.61546343966E+02  0.61546343966E+02  0.00000000000E+00 0.  1.
         21   -1    0    0  501  502 -0.00000000000E+00 -0.00000000000E+00 -0.10894724969E+04  0.10894724969E+04  0.00000000000E+00 0.  1.
         21    1    1    2  503  505 -0.89154919459E+02 -0.80313259552E+02 -0.22879994179E+03  0.25835679338E+03  0.00000000000E+00 0.  1.
         21    1    1    2  504  503 -0.14335888481E+02 -0.36639624339E+02 -0.27886203401E+02  0.48224683621E+02  0.00000000000E+00 0.  1.
         21    1    1    2  505  502  0.10745232528E+03 -0.49627850646E+01 -0.68894679735E+03  0.69729356875E+03  0.00000000000E+00 0.  1.
         21    1    1    2  506  504 -0.39615173423E+01  0.12191566896E+03 -0.82293210348E+02  0.14714379506E+03  0.00000000000E+00 0.  1.
<scales pt_clust_3="34.90626" pt_clust_4="34.90626" pt_clust_5="107.56687" pt_clust_6="123.49809"></scales>
<clustering>
<clus scale="   34.906">  3  4 -1 -1</clus>
<clus scale="  107.567">  2  5  1 -1</clus>
<clus scale="  123.498">  1  6  2 -1</clus>
<clus scale="  123.498">  1  3  2 -1</clus>
</clustering>
</event>
<event>
 6    0  0.9315069E+002  0.8098931E+02  0.7546771E-02  0.1326267E+00
         21   -1    0    0  504  501  0.00000000000E+00  0.00000000000E+00  0.25831415900E+03  0.25831415900E+03  0.00000000000E+00 0. -1.
         21   -1    0    0  505  502 -0.00000000000E+00 -0.00000000000E+00 -0.24993488259E+03  0.24993488259E+03  0.00000000000E+00 0. -1.
         21    1    1    2  503  506 -0.44981187369E+02  0.36607339405E+02 -0.21921794717E+02  0.61999754831E+02  0.00000000000E+00 0. -1.
         21    1    1    2  504  502 -0.28987238944E+02 -0.32453668114E+02 -0.77463852772E+02  0.88849024091E+02  0.00000000000E+00 0.  1.
         21    1    1    2  505  503  0.10498332223E+03 -0.38249905628E+02 -0.96722268022E+02  0.14778278099E+03  0.00000000000E+00 0. -1.
         21    1    1    2  506  501 -0.31014895914E+02  0.34096234336E+02  0.20448719192E+03  0.20961748168E+03  0.00000000000E+00 0. -1.
<scales pt_clust_3="80.98931" pt_clust_4="43.51437" pt_clust_5="14000.00000" pt_clust_6="46.02762"></scales>
<clustering>
<clus scale="   43.514">  2  4  1 -1</clus>
<clus scale="   46.028">  1  6  2 -1</clus>
<clus scale="   80.989">  1  3  2 -1</clus>
<clus scale="   46.028">  1  3  2 -1</clus>
</clustering>
</event>
<event>
 6    0  0.9315069E+002  0.8569758E+02  0.7546771E-02  0.1313618E+00
         21   -1    0    0  505  501  0.00000000000E+00  0.00000000000E+00  0.14117480302E+03  0.14117480302E+03  0.00000000000E+00 0. -1.
         21   -1    0    0  501  502 -0.00000000000E+00 -0.00000000000E+00 -0.21949428144E+03  0.21949428144E+03  0.00000000000E+00 0. -1.
         21    1    1    2  503  502 -0.66055827573E+01  0.84137866688E+02 -0.73843720263E+02  0.11214147028E+03  0.00000000000E+00 0. -1.
         21    1    1    2  504  503 -0.74411460157E+02 -0.79532366760E+02 -0.58796905781E+02  0.12377212487E+03  0.00000000000E+00 0. -1.
         21    1    1    2  505  506  0.22962516915E+02  0.35121059549E+02  0.20040817326E+02  0.46501616810E+02  0.00000000000E+00 0. -1.
         21    1    1    2  506  504  0.58054526000E+02 -0.39726559477E+02  0.34280330292E+02  0.78253872504E+02  0.00000000000E+00 0. -1.
<scales pt_clust_3="14000.00000" pt_clust_4="85.69758" pt_clust_5="41.96148" pt_clust_6="73.22897"></scales>
<clustering>
<clus scale="   41.961">  1  5  2 -1</clus>
<clus scale="   73.229">  1  6  2 -1</clus>
<clus scale="   85.698">  1  4  2 -1</clus>
<clus scale="   41.961">  1  3  2 -1</clus>
</clustering>
</event>
<event>
 6    0  0.9315069E+002  0.1740087E+03  0.7546771E-02  0.1173731E+00
         21   -1    0    0  503  501  0.00000000000E+00  0.00000000000E+00  0.10688765376E+04  0.10688765376E+04  0.00000000000E+00 0.  1.
         21   -1    0    0  504  502 -0.00000000000E+00 -0.00000000000E+00 -0.58754309877E+03  0.58754309877E+03  0.00000000000E+00 0.  1.
         21    1    1    2  503  506  0.46708347396E+02 -0.12350649452E+03  0.10020363722E+04  0.10106989735E+04  0.00000000000E+00 0.  1.
         21    1    1    2  504  505 -0.83308673362E+02  0.18226150710E+03 -0.52949899428E+03  0.56615260926E+03  0.00000000000E+00 0.  1.
         21    1    1    2  505  501  0.69107308295E+01 -0.42362012243E+02  0.14233140315E+02  0.45220355650E+02  0.00000000000E+00 0.  1.
         21    1    1    2  506  502  0.29689595136E+02 -0.16393000343E+02 -0.54370794013E+01  0.34347697914E+02  0.00000000000E+00 0.  1.
<scales pt_clust_3="174.00868" pt_clust_4="14000.00000" pt_clust_5="43.50016" pt_clust_6="33.91464"></scales>
<clustering>
<clus scale="   33.915">  2  6  1 -1</clus>
<clus scale="   43.500">  1  5  2 -1</clus>
<clus scale="  174.009">  1  3  2 -1</clus>
<clus scale="   43.500">  1  3  2 -1</clus>
</clustering>
</event>
<event>
 6    0  0.9315069E+002  0.1640753E+03  0.7546771E-02  0.1184171E+00
         21   -1    0    0  503  501  0.00000000000E+00  0.00000000000E+00  0.23793025020E+03  0.23793025020E+03  0.00000000000E+00 0. -1.
         21   -1    0    0  506  502 -0.00000000000E+00 -0.00000000000E+00 -0.25468846352E+03  0.25468846352E+03  0.00000000000E+00 0.  1.
         21    1    1    2  503  505  0.90172520564E+02 -0.83467088359E+02  0.64077060429E+02  0.13857744397E+03  0.00000000000E+00 0. -1.
         21    1    1    2  504  501 -0.19307408908E+02  0.28697746992E+02  0.33287368548E+01  0.34747909436E+02  0.00000000000E+00 0. -1.
         21    1    1    2  505  502  0.48377269339E+02 -0.41239516567E+02  0.75093526370E+02  0.98387476937E+02  0.00000000000E+00 0. -1.
         21    1    1    2  506  504 -0.11924238099E+03  0.96008857934E+02 -0.15925753697E+03  0.22090588337E+03  0.00000000000E+00 0.  1.
<scales pt_clust_3="32.45629" pt_clust_4="34.58810" pt_clust_5="32.45629" pt_clust_6="157.74839"></scales>
<clustering>
<clus scale="   32.456">  3  5 -1 -1</clus>
<clus scale="   34.588">  1  4  2 -1</clus>
<clus scale="  157.748">  2  6  1 -1</clus>
<clus scale="   34.588">  1  3  2 -1</clus>
</clustering>
</event>
<event>
 6    0  0.9315069E+002  0.1373819E+03  0.7546771E-02  0.1216896E+00
         21   -1    0    0  503  501  0.00000000000E+00  0.00000000000E+00  0.23488228385E+02  0.23488228385E+02  0.00000000000E+00 0.  1.
         21   -1    0    0  504  502 -0.00000000000E+00 -0.00000000000E+00 -0.11489478673E+04  0.11489478673E+04  0.00000000000E+00 0.  1.
         21    1    1    2  503  505 -0.57193228070E+02  0.14627106235E+01 -0.91974688550E+02  0.10831688785E+03  0.00000000000E+00 0.  1.
         21    1    1    2  504  506  0.27596631655E+02  0.12576606609E+02 -0.37893294796E+03  0.38014460954E+03  0.00000000000E+00 0. -1.
         21    1    1    2  505  502 -0.83259195540E+02 -0.17977817442E+02 -0.30166665899E+03  0.31346143098E+03  0.00000000000E+00 0.  1.
         21    1    1    2  506  501  0.11285579195E+03  0.39385002098E+01 -0.35288534339E+03  0.37051316730E+03  0.00000000000E+00 0.  1.
<scales pt_clust_3="46.41061" pt_clust_4="30.32730" pt_clust_5="46.41061" pt_clust_6="126.21397"></scales>
<clustering>
<clus scale="   30.327">  2  4  1 -1</clus>
<clus scale="   46.411">  3  5 -1 -1</clus>
<clus scale="  126.214">  1  6  2 -1</clus>
<clus scale="  126.214">  1  3  2 -1</clus>
</clustering>
</event>
<event>
 6    0  0.9315069E+002  0.8555266E+02  0.7546771E-02  0.1313994E+00
         21   -1    0    0  506  501  0.00000000000E+00  0.00000000000E+00  0.97709642586E+02  0.97709642586E+02  0.00000000000E+00 0.  1.
         21   -1    0    0  503  502 -0.00000000000E+00 -0.00000000000E+00 -0.48322314036E+03  0.48322314036E+03  0.00000000000E+00 0.  1.
         21    1    1    2  503  504 -0.20636349718E+02 -0.10852065009E+03  0.17376966209E+02  0.11182374248E+03  0.00000000000E+00 0.  1.
         21    1    1    2  504  501 -0.29649753224E+02 -0.61536464339E+01 -0.21058269497E+02  0.36883952403E+02  0.00000000000E+00 0.  1.
         21    1    1    2  505  502  0.73175942209E+02  0.45562167381E+02 -0.33440292859E+03  0.34533454542E+03  0.00000000000E+00 0.  1.
         21    1    1    2  506  505 -0.22889839267E+02  0.69112129147E+02 -0.47429265894E+02  0.86890542640E+02  0.00000000000E+00 0.  1.
<scales pt_clust_3="14000.00000" pt_clust_4="30.28160" pt_clust_5="85.55266" pt_clust_6="73.86510"></scales>
<clustering>
<clus scale="   30.282">  1  4  2 -1</clus>
<clus scale="   73.865">  1  6  2 -1</clus>
<clus scale="   85.553">  2  5  1 -1</clus>
<clus scale="   30.282">  1  3  2 -1</clus>
</clustering>
</event>
<event>
 6    0  0.9315069E+002  0.1345854E+03  0.7546771E-02  0.1220806E+00
         21   -1    0    0  506  501  0.00000000000E+00  0.00000000000E+00  0.77137812886E+03  0.77137812886E+03  0.00000000000E+00 0. -1.
         21   -1    0    0  504  502 -0.00000000000E+00 -0.00000000000E+00 -0.30863339674E+03  0.30863339674E+03  0.00000000000E+00 0. -1.
         21    1    1    2  503  501 -0.40551830338E+02 -0.13642763218E+03 -0.20762489830E+02  0.14383334366E+03  0.00000000000E+00 0. -1.
         21    1    1    2  504  503 -0.51772792244E+02 -0.68507729663E+02 -0.13293626421E+03  0.15825859023E+03  0.00000000000E+00 0. -1.
         21    1    1    2  505  502  0.78772376520E+02  0.71487697969E+02 -0.35637608821E+02  0.11218563823E+03  0.00000000000E+00 0. -1.
         21    1    1    2  506  505  0.13552246062E+02  0.13344766387E+03  0.65208109499E+03  0.66573395347E+03  0.00000000000E+00 0. -1.
<scales pt_clust_3="134.58545" pt_clust_4="85.87043" pt_clust_5="68.50426" pt_clust_6="14000.00000"></scales>
<clustering>
<clus scale="   85.870">  2  4  1 -1</clus>
<clus scale="   68.504">  2  5  1 -1</clus>
<clus scale="  134.585">  2  3  1 -1</clus>
<clus scale="  134.585">  1  3  2 -1</clus>
</clustering>
</event>
<event>
 6    0  0.9315069E+002  0.1556659E+03  0.7546771E-02  0.1193679E+00
         21   -1    0    0  503  501  0.00000000000E+00  0.00000000000E+00  0.60263586151E+02  0.60263586151E+02  0.00000000000E+00 0. -1.
         21   -1    0    0  501  502 -0.00000000000E+00 -0.00000000000E+00 -0.74619728071E+03  0.74619728071E+03  0.00000000000E+00 0. -1.
         21    1    1    2  503  505  0.58349267529E+02  0.16350134733E+02 -0.31538744042E+02  0.68312929249E+02  0.00000000000E+00 0. -1.
         21    1    1    2  504  502  0.50181574608E+01  0.62322698942E+02 -0.26296871392E+03  0.27029954718E+03  0.00000000000E+00 0. -1.
         21    1    1    2  505  506 -0.71790647007E+02 -0.15698130430E+03 -0.22376015068E+03  0.28260508122E+03  0.00000000000E+00 0. -1.
         21    1    1    2  506  504  0.84232220174E+01  0.78308470624E+02 -0.16766608592E+03  0.18524330921E+03  0.00000000000E+00 0.  1.
<scales pt_clust_3="60.59673" pt_clust_4="40.97733" pt_clust_5="148.71687" pt_clust_6="40.97733"></scales>
<clustering>
<clus scale="   40.977">  4  6 -1 -1</clus>
<clus scale="   60.597">  1  3  2 -1</clus>
<clus scale="  148.717">  1  5  2 -1</clus>
<clus scale="   60.597">  1  3  2 -1</clus>
</clustering>
</event>
<event>
 6    0  0.9315069E+002  0.1114853E+03  0.7546771E-02  0.1257844E+00
         21   -1    0    0  506  501  0.00000000000E+00  0.00000000000E+00  0.47716530700E+03  0.47716530700E+03  0.00000000000E+00 0. -1.
         21   -1    0    0  501  502 -0.00000000000E+00 -0.00000000000E+00 -0.34653550053E+03  0.34653550053E+03  0.00000000000E+00 0.  1.
         21    1    1    2  503  505 -0.39976338599E+01  0.50748202746E+02 -0.82861473720E+01  0.51575395265E+02  0.00000000000E+00 0.  1.
         21    1    1    2  504  502  0.58973778233E+02 -0.33089288311E+02 -0.21915398909E+03  0.22934968597E+03  0.00000000000E+00 0.  1.
         21    1    1    2  505  504 -0.15620724570E+02  0.78111660014E+02 -0.67734642134E+02  0.10456299638E+03  0.00000000000E+00 0.  1.
         21    1    1    2  506  503 -0.39355419803E+02 -0.95770574450E+02  0.42580458507E+03  0.43821272992E+03  0.00000000000E+00 0. -1.
<scales pt_clust_3="32.07886" pt_clust_4="67.62254" pt_clust_5="32.07886" pt_clust_6="104.01285"></scales>
<clustering>
<clus scale="   32.079">  3  5 -1 -1</clus>
<clus scale="   67.623">  2  4  1 -1</clus>
<clus scale="  104.013">  1  6  2 -1</clus>
<clus scale="  104.013">  1  3  2 -1</clus>
</clustering>
</event>
<event>
 6    0  0.9315069E+002  0.2504140E+03  0.7546771E-02  0.1113043E+00
         21   -1    0    0  506  501  0.00000000000E+00  0.00000000000E+00  0.21121774179E+03  0.21121774179E+03  0.00000000000E+00 0. -1.
         21   -1    0    0  501  502 -0.00000000000E+00 -0.00000000000E+00 -0.59300902991E+03  0.59300902991E+03  0.00000000000E+00 0. -1.
         21    1    1    2  503  504  0.14745032836E+02  0.92516184828E+02 -0.43267340633E+02  0.10319265097E+03  0.00000000000E+00 0. -1.
         21    1    1    2  504  505  0.57739305441E+02  0.10548004701E+03 -0.79635783161E+02  0.14422803358E+03  0.00000000000E+00 0. -1.
         21    1    1    2  505  502 -0.94154274467E+02 -0.25804712235E+03 -0.35039490114E+03  0.44523020056E+03  0.00000000000E+00 0. -1.
         21    1    1    2  506  503  0.21669936190E+02  0.60050890511E+02  0.91506736814E+02  0.11157588659E+03  0.00000000000E+00 0. -1.
<scales pt_clust_3="35.91150" pt_clust_4="35.91150" pt_clust_5="247.08674" pt_clust_6="63.84117"></scales>
<clustering>
<clus scale="   35.912">  3  4 -1 -1</clus>
<clus scale="   63.841">  1  6  2 -1</clus>
<clus scale="  247.087">  2  5  1 -1</clus>
<clus scale="   63.841">  1  3  2 -1</clus>
</clustering>
</event>
<event>
 6    0  0.9315069E+002  0.8740059E+02  0.7546771E-02  0.1309271E+00
         21   -1    0    0  506  501  0.00000000000E+00  0.00000000000E+00  0.49458515290E+02  0.49458515290E+02  0.00000000000E+00 0.  1.
         21   -1    0    0  505  502 -0.00000000000E+00 -0.00000000000E+00 -0.57445130093E+03  0.57445130093E+03  0.00000000000E+00 0.  1.
         21    1    1    2  503  504  0.74324419853E+02 -0.21377314098E+02 -0.30871532184E+03  0.31825502177E+03  0.00000000000E+00 0.  1.
         21    1    1    2  504  502  0.10881894236E+02  0.28583410400E+02 -0.12422733905E+03  0.12793693267E+03  0.00000000000E+00 0.  1.
         21    1    1    2  505  501  0.29268774617E+02  0.18044821764E+02 -0.26479367373E+02  0.43398544405E+02  0.00000000000E+00 0.  1.
         21    1    1    2  506  503 -0.11447508871E+03 -0.25250918066E+02 -0.65570757376E+02  0.13431931738E+03  0.00000000000E+00 0.  1.
<scales pt_clust_3="14000.00000" pt_clust_4="30.58475" pt_clust_5="36.30398" pt_clust_6="87.40059"></scales>
<clustering>
<clus scale="   30.585">  2  4  1 -1</clus>
<clus scale="   36.304">  1  5  2 -1</clus>
<clus scale="   87.401">  1  6  2 -1</clus>
<clus scale="   36.304">  1  3  2 -1</clus>
</clustering>
</event>
<event>
 6    0  0.9315069E+002  0.8586781E+02  0.7546771E-02  0.1313179E+00
         21   -1    0    0  506  501  0.00000000000E+00  0.00000000000E+00  0.17521880110E+03  0.17521880110E+03  0.00000000000E+00 0. -1.
         21   -1    0    0  505  502 -0.00000000000E+00 -0.00000000000E+00 -0.11488739745E+04  0.11488739745E+04  0.00000000000E+00 0.  1.
         21    1    1    2  503  504  0.11936669104E+02 -0.63343570286E+02 -0.34150690516E+03  0.34753684443E+03  0.00000000000E+00 0.  1.
         21    1    1    2  504  502  0.52504348807E+02 -0.85863224237E+01 -0.55498237119E+03  0.55752655893E+03  0.00000000000E+00 0.  1.
         21    1    1    2  505  501  0.39397798396E+00  0.12063492773E+03 -0.22221676600E+03  0.25285021673E+03  0.00000000000E+00 0.  1.
         21    1    1    2  506  503 -0.64834995896E+02 -0.48705035019E+02  0.14505086897E+03  0.16617915549E+03  0.00000000000E+00 0. -1.
<scales pt_clust_3="14000.00000" pt_clust_4="53.20180" pt_clust_5="85.86781" pt_clust_6="80.43756"></scales>
<clustering>
<clus scale="   53.202">  2  4  1 -1</clus>
<clus scale="   80.438">  1  6  2 -1</clus>
<clus scale="   85.868">  1  5  2 -1</clus>
<clus scale="   80.438">  1  3  2 -1</clus>
</clustering>
</event>
<event>
 6    0  0.9315069E+002  0.6951447E+02  0.7546771E-02  0.1361752E+00
         21   -1    0    0  505  501  0.00000000000E+00  0.00000000000E+00  0.38295097672E+03  0.38295097672E+03  0.00000000000E+00 0. -1.
         21   -1    0    0  506  502 -0.00000000000E+00 -0.00000000000E+00 -0.97830936663E+03  0.97830936663E+03  0.00000000000E+00 0. -1.
         21    1    1    2  503  502 -0.17372406423E+02  0.65941432367E+02 -0.94162917838E+03  0.94409511311E+03  0.00000000000E+00 0. -1.
         21    1    1    2  504  503  0.57986425896E+02  0.43566240657E+01  0.93774141019E+02  0.11034036109E+03  0.00000000000E+00 0. -1.
         21    1    1    2  505  504  0.47221368354E+02 -0.29947274439E+02  0.28282467835E+02  0.62662547526E+02  0.00000000000E+00 0. -1.
         21    1    1    2  506  501 -0.87835387827E+02 -0.40350781995E+02  0.22421417961E+03  0.24416232163E+03  0.00000000000E+00 0. -1.
<scales pt_clust_3="68.04183" pt_clust_4="14000.00000" pt_clust_5="55.91687" pt_clust_6="69.51447"></scales>
<clustering>
<clus scale="   55.917">  1  5  2 -1</clus>
<clus scale="   68.042">  2  3  1 -1</clus>
<clus scale="   69.514">  1  6  2 -1</clus>
<clus scale="   55.917">  1  3  2 -1</clus>
</clustering>
</event>
<event>
 6    0  0.9315069E+002  0.1686944E+03  0.7546771E-02  0.1179216E+00
         21   -1    0    0  504  501  0.00000000000E+00  0.00000000000E+00  0.16187273748E+04  0.16187273748E+04  0.00000000000E+00 0.  1.
         21   -1    0    0  501  502 -0.00000000000E+00 -0.00000000000E+00 -0.43934743363E+02  0.43934743363E+02  0.00000000000E+00 0.  1.
         21    1    1    2  503  505 -0.20506427302E+02  0.43072312200E+02  0.34351123188E+03  0.34680787774E+03  0.00000000000E+00 0.  1.
         21    1    1    2  504  503  0.94846727292E+01  0.51708985002E+02  0.44234624864E+03  0.44545929313E+03  0.00000000000E+00 0.  1.
         21    1    1    2  505  506  0.14935152227E+03  0.28723662694E+02  0.53342540251E+03  0.55468332051E+03  0.00000000000E+00 0.  1.
         21    1    1    2  506  502 -0.13832976770E+03 -0.12350495990E+03  0.25550974836E+03  0.31571162674E+03  0.00000000000E+00 0.  1.
<scales pt_clust_3="30.27845" pt_clust_4="100.57480" pt_clust_5="168.69439" pt_clust_6="14000.00000"></scales>
<clustering>
<clus scale="   30.278">  3  4 -1 -1</clus>
<clus scale="  100.575">  1  3  2 -1</clus>
<clus scale="  168.694">  1  5  2 -1</clus>
<clus scale="  100.575">  1  3  2 -1</clus>
</clustering>
</event>
<event>
 6    0  0.9315069E+002  0.7077133E+02  0.7546771E-02  0.1357490E+00
         21   -1    0    0  503  501  0.00000000000E+00  0.00000000000E+00  0.68523594934E+03  0.68523594934E+03  0.00000000000E+00 0. -1.
         21   -1    0    0  505  502 -0.00000000000E+00 -0.00000000000E+00 -0.53189222678E+02  0.53189222678E+02  0.00000000000E+00 0.  1.
         21    1    1    2  503  504 -0.47718610640E+02  0.32282603123E+02  0.37399136825E+03  0.37840292783E+03  0.00000000000E+00 0. -1.
         21    1    1    2  504  502 -0.45247952163E+02  0.68638237060E+00  0.73779346159E+02  0.86551950962E+02  0.00000000000E+00 0. -1.
         21    1    1    2  505  506  0.42396278047E+02 -0.82978719254E+02  0.21204973532E+02  0.95564444977E+02  0.00000000000E+00 0.  1.
         21    1    1    2  506  501  0.50570284756E+02  0.50009733761E+02  0.16307103872E+03  0.17790584825E+03  0.00000000000E+00 0. -1.
<scales pt_clust_3="59.40866" pt_clust_4="45.25316" pt_clust_5="70.77133" pt_clust_6="14000.00000"></scales>
<clustering>
<clus scale="   45.253">  2  4  1 -1</clus>
<clus scale="   59.409">  1  3  2 -1</clus>
<clus scale="   70.771">  2  5  1 -1</clus>
<clus scale="   59.409">  1  3  2 -1</clus>
</clustering>
</event>
<event>
 6    0  0.9315069E+002  0.4756809E+03  0.7546771E-02  0.1020329E+00
         21   -1    0    0  503  501  0.00000000000E+00  0.00000000000E+00  0.92828773992E+03  0.92828773992E+03  0.00000000000E+00 0.  1.
         21   -1    0    0  504  502 -0.00000000000E+00 -0.00000000000E+00 -0.49798952854E+03  0.49798952854E+03  0.00000000000E+00 0.  1.
         21    1    1    2  503  505  0.22494943509E+03  0.22361407071E+03 -0.12439222608E+03  0.34070357626E+03  0.00000000000E+00 0.  1.
         21    1    1    2  504  501 -0.29641585953E+03 -0.31808423765E+03  0.74027294454E+03  0.85851265363E+03  0.00000000000E+00 0.  1.
         21    1    1    2  505  506  0.27900468136E+02  0.71462034297E+02 -0.81612395071E+02  0.11200822067E+03  0.00000000000E+00 0.  1.
         21    1    1    2  506  502  0.43565956311E+02  0.23008132645E+02 -0.10397011201E+03  0.11505281791E+03  0.00000000000E+00 0. -1.
<scales pt_clust_3="105.83306" pt_clust_4="434.78724" pt_clust_5="105.83306" pt_clust_6="44.50252"></scales>
<clustering>
<clus scale="   44.503">  5  6 -1 -1</clus>
<clus scale="  105.833">  3  5 -1 -1</clus>
<clus scale="  434.787">  1  4  2 -1</clus>
<clus scale="  434.787">  1  3  2 -1</clus>
</clustering>
</event>
<event>
 6    0  0.9315069E+002  0.1008220E+03  0.7546771E-02  0.1278577E+00
         21   -1    0    0  504  501  0.00000000000E+00  0.00000000000E+00  0.22424205477E+03  0.22424205477E+03  0.00000000000E+00 0. -1.
         21   -1    0    0  503  502 -0.00000000000E+00 -0.00000000000E+00 -0.30218835161E+03  0.30218835161E+03  0.00000000000E+00 0. -1.
         21    1    1    2  503  505  0.35050696233E+02  0.13454058904E+02 -0.13341224430E+03  0.13859433588E+03  0.00000000000E+00 0. -1.
         21    1    1    2  504  506 -0.93344833685E+02  0.33998021982E+02  0.16527348323E+03  0.19283269363E+03  0.00000000000E+00 0. -1.
         21    1    1    2  505  501  0.10034962701E+03 -0.56872121163E+02 -0.95007733124E+02  0.14943545483E+03  0.00000000000E+00 0. -1.
         21    1    1    2  506  502 -0.42055489561E+02  0.94200402762E+01 -0.14799802635E+02  0.45567922040E+02  0.00000000000E+00 0.  1.
<scales pt_clust_3="37.54415" pt_clust_4="14000.00000" pt_clust_5="100.82204" pt_clust_6="37.60948"></scales>
<clustering>
<clus scale="   37.544">  2  3  1 -1</clus>
<clus scale="   37.609">  2  6  1 -1</clus>
<clus scale="  100.822">  2  5  1 -1</clus>
<clus scale="  100.822">  1  3  2 -1</clus>
</clustering>
</event>
<event>
 6    0  0.9315069E+002  0.8825565E+02  0.7546771E-02  0.1307132E+00
         21   -1    0    0  505  501  0.00000000000E+00  0.00000000000E+00  0.54703043579E+03  0.54703043579E+03  0.00000000000E+00 0. -1.
         21   -1    0    0  503  502 -0.00000000000E+00 -0.00000000000E+00 -0.13076095659E+03  0.13076095659E+03  0.00000000000E+00 0.  1.
         21    1    1    2  503  506 -0.21092730518E+02 -0.31641061166E+02 -0.98356009177E+02  0.10545124264E+03  0.00000000000E+00 0.  1.
         21    1    1    2  504  501  0.19316088739E+02  0.42747365848E+02  0.24749731248E+03  0.25190348996E+03  0.00000000000E+00 0. -1.
         21    1    1    2  505  502 -0.17827287857E+02  0.75211442359E+02  0.18153464045E+03  0.19730534442E+03  0.00000000000E+00 0. -1.
         21    1    1    2  506  504  0.19603929635E+02 -0.86317747041E+02  0.85593535456E+02  0.12313131536E+03  0.00000000000E+00 0.  1.
<scales pt_clust_3="38.02710" pt_clust_4="44.04708" pt_clust_5="88.25565" pt_clust_6="14000.00000"></scales>
<clustering>
<clus scale="   38.027">  2  3  1 -1</clus>
<clus scale="   44.047">  1  4  2 -1</clus>
<clus scale="   88.256">  1  5  2 -1</clus>
<clus scale="   44.047">  1  3  2 -1</clus>
</clustering>
</event>
<event>
 6    0  0.9315069E+002  0.1264007E+03  0.7546771E-02  0.1232896E+00
         21   -1    0    0  503  501  0.00000000000E+00  0.00000000000E+00  0.16454548539E+04  0.16454548539E+04  0.00000000000E+00 0. -1.
         21   -1    0    0  504  502 -0.00000000000E+00 -0.00000000000E+00 -0.11577729234E+03  0.11577729234E+03  0.00000000000E+00 0.  1.
         21    1    1    2  503  505  0.31307910113E+02  0.10510194045E+02  0.13974268327E+03  0.14359201559E+03  0.00000000000E+00 0. -1.
         21    1    1    2  504  501  0.92185179769E+02 -0.42757552703E+02  0.10867382112E+04  0.10914789303E+04  0.00000000000E+00 0. -1.
         21    1    1    2  505  506 -0.12275236822E+03  0.10954216293E+03  0.38190986251E+03  0.41583983990E+03  0.00000000000E+00 0. -1.
         21    1    1    2  506  502 -0.74072166286E+00 -0.77294804273E+02 -0.78713195411E+02  0.11032136043E+03  0.00000000000E+00 0.  1.
<scales pt_clust_3="33.02498" pt_clust_4="126.40068" pt_clust_5="14000.00000" pt_clust_6="77.18545"></scales>
<clustering>
<clus scale="   33.025">  1  3  2 -1</clus>
<clus scale="   77.185">  2  6  1 -1</clus>
<clus scale="  126.401">  1  4  2 -1</clus>
<clus scale="   33.025">  1  3  2 -1</clus>
</clustering>
</event>
<event>
 6    0  0.9315069E+002  0.8481378E+02  0.7546771E-02  0.1315920E+00
         21   -1    0    0  503  501  0.00000000000E+00  0.00000000000E+00  0.87060532083E+02  0.87060532083E+02  0.00000000000E+00 0.  1.
         21   -1    0    0  504  502 -0.00000000000E+00 -0.00000000000E+00 -0.29590679219E+03  0.29590679219E+03  0.00000000000E+00 0. -1.
         21    1    1    2  503  506 -0.11694134363E+02  0.27920184423E+02 -0.16658689988E+02  0.34551431647E+02  0.00000000000E+00 0. -1.
         21    1    1    2  504  505  0.75712174795E+02 -0.70712100607E+02  0.12532362656E+02  0.10435322083E+03  0.00000000000E+00 0.  1.
         21    1    1    2  505  501 -0.25727272759E+02 -0.30444739320E+02 -0.27220528754E+02  0.48267296397E+02  0.00000000000E+00 0. -1.
         21    1    1    2  506  502 -0.38290767674E+02  0.73236655504E+02 -0.17749940402E+03  0.19579537540E+03  0.00000000000E+00 0. -1.
<scales pt_clust_3="30.27027" pt_clust_4="84.81378" pt_clust_5="38.17643" pt_clust_6="14000.00000"></scales>
<clustering>
<clus scale="   30.270">  1  3  2 -1</clus>
<clus scale="   38.176">  1  5  2 -1</clus>
<clus scale="   84.814">  1  4  2 -1</clus>
<clus scale="   30.270">  1  3  2 -1</clus>
</clustering>
</event>
<event>
 6    0  0.9315069E+002  0.1122629E+03  0.7546771E-02  0.1256436E+00
         21   -1    0    0  503  501  0.00000000000E+00  0.00000000000E+00  0.18174995346E+03  0.18174995346E+03  0.00000000000E+00 0.  1.
         21   -1    0    0  504  502 -0.00000000000E+00 -0.00000000000E+00 -0.36079638880E+03  0.36079638880E+03  0.00000000000E+00 0. -1.
         21    1    1    2  503  505 -0.17849613411E+02 -0.32488093140E+02 -0.66353842559E+01  0.37657844057E+02  0.00000000000E+00 0. -1.
         21    1    1    2  504  501 -0.12965331320E+02 -0.84928807745E+02  0.11217063020E+03  0.14129137440E+03  0.00000000000E+00 0.  1.
         21    1    1    2  505  506  0.67602406190E+02  0.78723745215E+01 -0.14154973816E+02  0.69515630523E+02  0.00000000000E+00 0. -1.
         21    1    1    2  506  502 -0.36787461460E+02  0.10954452636E+03 -0.27042670747E+03  0.29408149328E+03  0.00000000000E+00 0. -1.
<scales pt_clust_3="37.06865" pt_clust_4="14000.00000" pt_clust_5="64.67718" pt_clust_6="112.26288"></scales>
<clustering>
<clus scale="   37.069">  1  3  2 -1</clus>
<clus scale="   64.677">  1  5  2 -1</clus>
<clus scale="  112.263">  2  6  1 -1</clus>
<clus scale="   37.069">  1  3  2 -1</clus>
</clustering>
</event>
<event>
 6    0  0.9315069E+002  0.6040643E+02  0.7546771E-02  0.1396134E+00
         21   -1    0    0  504  501  0.00000000000E+00  0.00000000000E+00  0.36388033255E+04  0.36388033255E+04  0.00000000000E+00 0. -1.
         21   -1    0    0  505  502 -0.00000000000E+00 -0.00000000000E+00 -0.10756381426E+03  0.10756381426E+03  0.00000000000E+00 0. -1.
         21    1    1    2  503  502  0.30962585068E+02  0.28503213257E+02  0.27952201088E+03  0.28267237114E+03  0.00000000000E+00 0. -1.
         21    1    1    2  504  503 -0.77927689402E+00  0.40398062046E+02  0.25735780329E+04  0.25738952003E+04  0.00000000000E+00 0. -1.
         21    1    1    2  505  506  0.54563449314E+02  0.24407451147E+02 -0.91835708505E+02  0.10957504748E+03  0.00000000000E+00 0. -1.
         21    1    1    2  506  501 -0.84746757488E+02 -0.93308726450E+02  0.76997517593E+03  0.78022452081E+03  0.00000000000E+00 0. -1.
<scales pt_clust_3="49.79864" pt_clust_4="40.40558" pt_clust_5="14000.00000" pt_clust_6="60.40643"></scales>
<clustering>
<clus scale="   40.406">  1  4  2 -1</clus>
<clus scale="   49.799">  1  3  2 -1</clus>
<clus scale="   60.406">  1  6  2 -1</clus>
<clus scale="   40.406">  1  3  2 -1</clus>
</clustering>
</event>
<event>
 6    0  0.9315069E+002  0.1176185E+03  0.7546771E-02  0.1247078E+00
         21   -1    0    0  504  501  0.00000000000E+00  0.00000000000E+00  0.22576437169E+03  0.22576437169E+03  0.00000000000E+00 0.  1.
         21   -1    0    0  503  502 -0.00000000000E+00 -0.00000000000E+00 -0.45069396089E+03  0.45069396089E+03  0.00000000000E+00 0.  1.
         21    1    1    2  503  506 -0.65005193011E+02 -0.11631427043E+03  0.78376967404E+01  0.13347701718E+03  0.00000000000E+00 0.  1.
         21    1    1    2  504  505  0.89494373868E+01  0.60516062108E+02  0.10333289679E+03  0.12008319516E+03  0.00000000000E+00 0.  1.
         21    1    1    2  505  502 -0.15865691400E+02  0.11772373378E+03 -0.29768536034E+03  0.32051079767E+03  0.00000000000E+00 0.  1.
         21    1    1    2  506  501  0.71921447024E+02 -0.61925525461E+02 -0.38414822382E+02  0.10238732258E+03  0.00000000000E+00 0.  1.
<scales pt_clust_3="117.61849" pt_clust_4="61.17423" pt_clust_5="14000.00000" pt_clust_6="86.95341"></scales>
<clustering>
<clus scale="   61.174">  1  4  2 -1</clus>
<clus scale="   86.953">  1  6  2 -1</clus>
<clus scale="  117.618">  1  3  2 -1</clus>
<clus scale="   61.174">  1  3  2 -1</clus>
</clustering>
</event>
<event>
 6    0  0.9315069E+002  0.9677434E+02  0.7546771E-02  0.1287229E+00
         21   -1    0    0  505  501  0.00000000000E+00  0.00000000000E+00  0.43757187221E+03  0.43757187221E+03  0.00000000000E+00 0. -1.
         21   -1    0    0  503  502 -0.00000000000E+00 -0.00000000000E+00 -0.16557777709E+03  0.16557777709E+03  0.00000000000E+00 0. -1.
         21    1    1    2  503  506 -0.64372766067E+02 -0.73186242202E+02  0.59865017980E+02  0.11438487416E+03  0.00000000000E+00 0. -1.
         21    1    1    2  504  502 -0.27490836801E+02  0.19634521450E+02 -0.12504021076E+03  0.12952341429E+03  0.00000000000E+00 0. -1.
         21    1    1    2  505  504  0.55820773431E+02  0.63873225665E+02  0.25917507012E+03  0.27270398727E+03  0.00000000000E+00 0. -1.
         21    1    1    2  506  501  0.36042829437E+02 -0.10321504912E+02  0.77994217787E+02  0.86537373577E+02  0.00000000000E+00 0.  1.
<scales pt_clust_3="96.77434" pt_clust_4="33.78255" pt_clust_5="14000.00000" pt_clust_6="33.96421"></scales>
<clustering>
<clus scale="   33.783">  2  4  1 -1</clus>
<clus scale="   33.964">  1  6  2 -1</clus>
<clus scale="   96.774">  2  3  1 -1</clus>
<clus scale="   33.964">  1  3  2 -1</clus>
</clustering>
</event>
<event>
 6    0  0.9315069E+002  0.1062428E+03  0.7546771E-02  0.1267690E+00
         21   -1    0    0  506  501  0.00000000000E+00  0.00000000000E+00  0.24423571593E+03  0.24423571593E+03  0.00000000000E+00 0.  1.
         21   -1    0    0  504  502 -0.00000000000E+00 -0.00000000000E+00 -0.29295431331E+03  0.29295431331E+03  0.00000000000E+00 0.  1.
         21    1    1    2  503  501 -0.85283770795E+02 -0.52239017661E+02  0.66741439239E+02  0.12023583592E+03  0.00000000000E+00 0.  1.
         21    1    1    2  504  503  0.72703321372E+02 -0.23746246040E+02 -0.17132657418E+03  0.18762316531E+03  0.00000000000E+00 0.  1.
         21    1    1    2  505  502  0.31145817562E+01  0.12569422444E+03 -0.30366127377E+02  0.12934774976E+03  0.00000000000E+00 0.  1.
         21    1    1    2  506  505  0.94658676670E+01 -0.49708960741E+02  0.86232664933E+02  0.99983278252E+02  0.00000000000E+00 0.  1.
<scales pt_clust_3="106.24281" pt_clust_4="77.83700" pt_clust_5="14000.00000" pt_clust_6="50.60221"></scales>
<clustering>
<clus scale="   50.602">  1  6  2 -1</clus>
<clus scale="   77.837">  2  4  1 -1</clus>
<clus scale="  106.243">  1  3  2 -1</clus>
<clus scale="   50.602">  1  3  2 -1</clus>
</clustering>
</event>
<event>
 6    0  0.9315069E+002  0.1964563E+03  0.7546771E-02  0.1152764E+00
         21   -1    0    0  505  501  0.00000000000E+00  0.00000000000E+00  0.39056579657E+03  0.39056579657E+03  0.00000000000E+00 0. -1.
         21   -1    0    0  503  502 -0.00000000000E+00 -0.00000000000E+00 -0.30880882205E+04  0.30880882205E+04  0.00000000000E+00 0. -1.
         21    1    1    2  503  501 -0.28351070063E+02 -0.32934243105E+02 -0.14638891824E+03  0.15270285828E+03  0.00000000000E+00 0.  1.
         21    1    1    2  504  502 -0.21076958427E-01 -0.10202082534E+03 -0.23631885489E+04  0.23653896860E+04  0.00000000000E+00 0. -1.
         21    1    1    2  505  506  0.36031132965E+02  0.18495657683E+03  0.36209993903E+03  0.40819547241E+03  0.00000000000E+00 0. -1.
         21    1    1    2  506  504 -0.76589859428E+01 -0.50001508377E+02 -0.55004489583E+03  0.55236600034E+03  0.00000000000E+00 0. -1.
<scales pt_clust_3="43.45627" pt_clust_4="39.82880" pt_clust_5="188.13749" pt_clust_6="39.82880"></scales>
<clustering>
<clus scale="   39.829">  4  6 -1 -1</clus>
<clus scale="   43.456">  2  3  1 -1</clus>
<clus scale="  188.137">  1  5  2 -1</clus>
<clus scale="  188.137">  1  3  2 -1</clus>
</clustering>
</event>
<event>
 6    0  0.9315069E+002  0.2100736E+03  0.7546771E-02  0.1141508E+00
         21   -1    0    0  505  501  0.00000000000E+00  0.00000000000E+00  0.11772600053E+03  0.11772600053E+03  0.00000000000E+00 0. -1.
         21   -1    0    0  504  502 -0.00000000000E+00 -0.00000000000E+00 -0.36864454921E+03  0.36864454921E+03  0.00000000000E+00 0. -1.
         21    1    1    2  503  502  0.11989092457E+03  0.70036491732E+02 -0.71833200368E+02  0.15632962817E+03  0.00000000000E+00 0. -1.
         21    1    1    2  504  506 -0.63720165589E+02 -0.53331279074E+02 -0.97371182762E+02  0.12800637509E+03  0.00000000000E+00 0. -1.
         21    1    1    2  505  503  0.30362653776E+02  0.59882069385E+02 -0.44837941906E+02  0.80735333110E+02  0.00000000000E+00 0. -1.
         21    1    1    2  506  501 -0.86533412758E+02 -0.76587282043E+02 -0.36876223641E+02  0.12129921337E+03  0.00000000000E+00 0. -1.
<scales pt_clust_3="206.36773" pt_clust_4="57.98522" pt_clust_5="38.92033" pt_clust_6="57.98522"></scales>
<clustering>
<clus scale="   38.920">  3  5 -1 -1</clus>
<clus scale="   57.985">  4  6 -1 -1</clus>
<clus scale="  206.368">  1  3  2 -1</clus>
<clus scale="  206.368">  1  3  2 -1</clus>
</clustering>
</event>
<event>
 6    0  0.9315069E+002  0.1814771E+03  0.7546771E-02  0.1166381E+00
         21   -1    0    0  506  501  0.00000000000E+00  0.00000000000E+00  0.97896436432E+03  0.97896436432E+03  0.00000000000E+00 0.  1.
         21   -1    0    0  505  502 -0.00000000000E+00 -0.00000000000E+00 -0.12986169907E+03  0.12986169907E+03  0.00000000000E+00 0.  1.
         21    1    1    2  503  504 -0.81673272237E+01  0.76940219224E+02  0.70531985399E+02  0.10469605309E+03  0.00000000000E+00 0.  1.
         21    1    1    2  504  501 -0.22789738986E+02 -0.27150807151E+02  0.65047172929E+03  0.65143688040E+03  0.00000000000E+00 0.  1.
         21    1    1    2  505  503 -0.65553625510E+02  0.91679952073E+02  0.14151847910E+03  0.18091426521E+03  0.00000000000E+00 0.  1.
         21    1    1    2  506  502  0.96510691720E+02 -0.14146936414E+03 -0.13419528540E+02  0.17177886469E+03  0.00000000000E+00 0.  1.
<scales pt_clust_3="42.15836" pt_clust_4="35.44769" pt_clust_5="42.15836" pt_clust_6="173.76316"></scales>
<clustering>
<clus scale="   35.448">  1  4  2 -1</clus>
<clus scale="   42.158">  3  5 -1 -1</clus>
<clus scale="  173.763">  2  6  1 -1</clus>
<clus scale="   35.448">  1  3  2 -1</clus>
</clustering>
</event>
<event>
 6    0  0.9315069E+002  0.1615479E+03  0.7546771E-02  0.1186960E+00
         21   -1    0    0  506  501  0.00000000000E+00  0.00000000000E+00  0.72855312078E+03  0.72855312078E+03  0.00000000000E+00 0.  1.
         21   -1    0    0  503  502 -0.00000000000E+00 -0.00000000000E+00 -0.13797642452E+04  0.13797642452E+04  0.00000000000E+00 0.  1.
         21    1    1    2  503  504  0.57786063121E+02  0.34280672926E+02  0.18430636427E+03  0.19617142895E+03  0.00000000000E+00 0.  1.
         21    1    1    2  504  501  0.27808065903E+02  0.57951183065E+02  0.75725673674E+02  0.99327769538E+02  0.00000000000E+00 0.  1.
         21    1    1    2  505  502  0.15457026091E+02  0.45440953345E+02 -0.13454127981E+04  0.13462686943E+04  0.00000000000E+00 0.  1.
         21    1    1    2  506  505 -0.10105115512E+03 -0.13767280934E+03  0.43416963573E+03  0.46654947323E+03  0.00000000000E+00 0.  1.
<scales pt_clust_3="59.41255" pt_clust_4="59.41255" pt_clust_5="47.99792" pt_clust_6="149.08950"></scales>
<clustering>
<clus scale="   47.998">  2  5  1 -1</clus>
<clus scale="   59.413">  3  4 -1 -1</clus>
<clus scale="  149.090">  1  6  2 -1</clus>
<clus scale="  149.090">  1  3  2 -1</clus>
</clustering>
</event>
<event>
 6    0  0.9315069E+002  0.2643725E+03  0.7546771E-02  0.1104544E+00
         21   -1    0    0  505  501  0.00000000000E+00  0.00000000000E+00  0.26380375036E+03  0.26380375036E+03  0.00000000000E+00 0. -1.
         21   -1    0    0  504  502 -0.00000000000E+00 -0.00000000000E+00 -0.72206270802E+03  0.72206270802E+03  0.00000000000E+00 0. -1.
         21    1    1    2  503  502 -0.41819823674E+02 -0.85153170765E+02 -0.44980739666E+03  0.45970278902E+03  0.00000000000E+00 0. -1.
         21    1    1    2  504  501 -0.13535264521E+03 -0.15559501900E+03  0.11753969291E+02  0.20656307583E+03  0.00000000000E+00 0. -1.
         21    1    1    2  505  506  0.51028840730E+02  0.80955979450E+02  0.45112103708E+02  0.10579657412E+03  0.00000000000E+00 0. -1.
         21    1    1    2  506  503  0.12614362816E+03  0.15979221032E+03 -0.65317634004E+02  0.21380401941E+03  0.00000000000E+00 0. -1.
<scales pt_clust_3="94.86812" pt_clust_4="239.80477" pt_clust_5="76.30487" pt_clust_6="76.30487"></scales>
<clustering>
<clus scale="   76.305">  5  6 -1 -1</clus>
<clus scale="   94.868">  2  3  1 -1</clus>
<clus scale="  239.805">  1  4  2 -1</clus>
<clus scale="  239.805">  1  3  2 -1</clus>
</clustering>
</event>
<event>
 6    0  0.9315069E+002  0.9767254E+02  0.7546771E-02  0.1285268E+00
         21   -1    0    0  504  501  0.00000000000E+00  0.00000000000E+00  0.58504771670E+03  0.58504771670E+03  0.00000000000E+00 0. -1.
         21   -1    0    0  503  502 -0.00000000000E+00 -0.00000000000E+00 -0.10620773643E+03  0.10620773643E+03  0.00000000000E+00 0. -1.
         21    1    1    2  503  506  0.59664290048E+02  0.27765748745E+02  0.93671548936E+02  0.11447761087E+03  0.00000000000E+00 0. -1.
         21    1    1    2  504  505 -0.12284912990E+03 -0.55659585355E+02  0.50121143069E+02  0.14388199033E+03  0.00000000000E+00 0. -1.
         21    1    1    2  505  502  0.16425440424E+02  0.26576811853E+02 -0.42340632763E+02  0.52619874611E+02  0.00000000000E+00 0. -1.
         21    1    1    2  506  501  0.46759399432E+02  0.13170247577E+01  0.37738792102E+03  0.38027597731E+03  0.00000000000E+00 0. -1.
<scales pt_clust_3="14000.00000" pt_clust_4="97.67254" pt_clust_5="31.24295" pt_clust_6="47.20443"></scales>
<clustering>
<clus scale="   31.243">  2  5  1 -1</clus>
<clus scale="   47.204">  1  6  2 -1</clus>
<clus scale="   97.673">  2  4  1 -1</clus>
<clus scale="   47.204">  1  3  2 -1</clus>
</clustering>
</event>
<event>
 6    0  0.9315069E+002  0.1612997E+03  0.7546771E-02  0.1187237E+00
         21   -1    0    0  506  501  0.00000000000E+00  0.00000000000E+00  0.43514506981E+03  0.43514506981E+03  0.00000000000E+00 0. -1.
         21   -1    0    0  504  502 -0.00000000000E+00 -0.00000000000E+00 -0.59045751427E+03  0.59045751427E+03  0.00000000000E+00 0. -1.
         21    1    1    2  503  502  0.11325775044E+01  0.76547028075E+02  0.13691867814E+03  0.15686763421E+03  0.00000000000E+00 0. -1.
         21    1    1    2  504  501  0.35044545315E+02 -0.15245946617E+03 -0.55896686880E+03  0.58044463078E+03  0.00000000000E+00 0. -1.
         21    1    1    2  505  503 -0.30324085395E+02  0.39937210447E+02  0.59222678364E+02  0.77600622201E+02  0.00000000000E+00 0. -1.
         21    1    1    2  506  505 -0.58530374241E+01  0.35975227652E+02  0.20751306783E+03  0.21068969688E+03  0.00000000000E+00 0. -1.
<scales pt_clust_3="35.39381" pt_clust_4="154.70739" pt_clust_5="35.39381" pt_clust_6="36.44825"></scales>
<clustering>
<clus scale="   36.448">  1  6  2 -1</clus>
<clus scale="   35.394">  3  5 -1 -1</clus>
<clus scale="  154.707">  2  4  1 -1</clus>
<clus scale="   36.448">  1  3  2 -1</clus>
</clustering>
</event>
<event>
 6    0  0.9315069E+002  0.1078589E+03  0.7546771E-02  0.1264587E+00
         21   -1    0    0  506  501  0.00000000000E+00  0.00000000000E+00  0.95499956932E+02  0.95499956932E+02  0.00000000000E+00 0. -1.
         21   -1    0    0  504  502 -0.00000000000E+00 -0.00000000000E+00 -0.31064922631E+03  0.31064922631E+03  0.00000000000E+00 0. -1.
         21    1    1    2  503  505  0.52667886096E+02  0.24713505296E+02 -0.58399035298E+02  0.82432462620E+02  0.00000000000E+00 0. -1.
         21    1    1    2  504  503 -0.30831321631E+02  0.15316811099E+02 -0.62779430416E+02  0.71599105994E+02  0.00000000000E+00 0. -1.
         21    1    1    2  505  501  0.25509720169E+02 -0.12694597232E+03 -0.79890409174E+02  0.15214632164E+03  0.00000000000E+00 0. -1.
         21    1    1    2  506  502 -0.47346284634E+02  0.86915655923E+02 -0.14080394494E+02  0.99971292991E+02  0.00000000000E+00 0. -1.
<scales pt_clust_3="52.56862" pt_clust_4="34.42637" pt_clust_5="14000.00000" pt_clust_6="107.85887"></scales>
<clustering>
<clus scale="   34.426">  2  4  1 -1</clus>
<clus scale="   52.569">  2  3  1 -1</clus>
<clus scale="  107.859">  1  6  2 -1</clus>
<clus scale="  107.859">  1  3  2 -1</clus>
</clustering>
</event>
<event>
 6    0  0.9315069E+002  0.9605125E+02  0.7546771E-02  0.1288826E+00
         21   -1    0    0  506  501  0.00000000000E+00  0.00000000000E+00  0.58121326464E+03  0.58121326464E+03  0.00000000000E+00 0. -1.
         21   -1    0    0  503  502 -0.00000000000E+00 -0.00000000000E+00 -0.11436136999E+03  0.11436136999E+03  0.00000000000E+00 0. -1.
         21    1    1    2  503  504  0.75673388044E+02  0.46063023637E+02 -0.60834567081E+02  0.10746677792E+03  0.00000000000E+00 0. -1.
         21    1    1    2  504  501 -0.77488534278E+02 -0.57539283651E+02  0.46088887278E+03  0.47088618068E+03  0.00000000000E+00 0. -1.
         21    1    1    2  505  502  0.27763149903E+02 -0.31324609988E+02  0.13204215478E+02  0.43890488604E+02  0.00000000000E+00 0. -1.
         21    1    1    2  506  505 -0.25948003670E+02  0.42800870002E+02  0.53593373474E+02  0.73331187415E+02  0.00000000000E+00 0.  1.
<scales pt_clust_3="96.05125" pt_clust_4="14000.00000" pt_clust_5="41.85718" pt_clust_6="45.95393"></scales>
<clustering>
<clus scale="   41.857">  2  5  1 -1</clus>
<clus scale="   45.954">  2  6  1 -1</clus>
<clus scale="   96.051">  2  3  1 -1</clus>
<clus scale="   96.051">  1  3  2 -1</clus>
</clustering>
</event>
<event>
 6    0  0.9315069E+002  0.1002579E+03  0.7546771E-02  0.1279755E+00
         21   -1    0    0  503  501  0.00000000000E+00  0.00000000000E+00  0.37448117204E+03  0.37448117204E+03  0.00000000000E+00 0. -1.
         21   -1    0    0  505  502 -0.00000000000E+00 -0.00000000000E+00 -0.25734343829E+03  0.25734343829E+03  0.00000000000E+00 0. -1.
         21    1    1    2  503  506 -0.95400896147E+02  0.73338978584E+02 -0.70987055209E+02  0.13971076828E+03  0.00000000000E+00 0. -1.
         21    1    1    2  504  501  0.35500389199E+02 -0.49043364974E+00  0.30776992790E+03  0.30981098541E+03  0.00000000000E+00 0. -1.
         21    1    1    2  505  504  0.80465605593E+02 -0.31117218810E+02 -0.53775513051E+02  0.10166022228E+03  0.00000000000E+00 0. -1.
         21    1    1    2  506  502 -0.20565098645E+02 -0.41731326125E+02 -0.65869625892E+02  0.80642634366E+02  0.00000000000E+00 0. -1.
<scales pt_clust_3="100.25786" pt_clust_4="35.50378" pt_clust_5="14000.00000" pt_clust_6="44.95313"></scales>
<clustering>
<clus scale="   35.504">  1  4  2 -1</clus>
<clus scale="   44.953">  2  6  1 -1</clus>
<clus scale="  100.258">  1  3  2 -1</clus>
<clus scale="   35.504">  1  3  2 -1</clus>
</clustering>
</event>
<event>
 6    0  0.9315069E+002  0.8966073E+02  0.7546771E-02  0.1303675E+00
         21   -1    0    0  504  501  0.00000000000E+00  0.00000000000E+00  0.23739789519E+04  0.23739789519E+04  0.00000000000E+00 0.  1.
         21   -1    0    0  506  502 -0.00000000000E+00 -0.00000000000E+00 -0.71834124473E+02  0.71834124473E+02  0.00000000000E+00 0.  1.
         21    1    1    2  503  501  0.90472824419E+02 -0.12919406185E+02  0.46932078936E+02  0.10273686314E+03  0.00000000000E+00 0. -1.
         21    1    1    2  504  505 -0.88483260900E+02 -0.14982792570E+02  0.21758942859E+04  0.21777441804E+04  0.00000000000E+00 0.  1.
         21    1    1    2  505  502 -0.13616002681E+02 -0.32031387445E+02  0.95940563012E+02  0.10205879159E+03  0.00000000000E+00 0. -1.
         21    1    1    2  506  503  0.11626439162E+02  0.59933586199E+02 -0.16622100430E+02  0.63273241303E+02  0.00000000000E+00 0.  1.
<scales pt_clust_3="14000.00000" pt_clust_4="89.66073" pt_clust_5="34.80525" pt_clust_6="41.49516"></scales>
<clustering>
<clus scale="   34.805">  2  5  1 -1</clus>
<clus scale="   41.495">  2  6  1 -1</clus>
<clus scale="   89.661">  1  4  2 -1</clus>
<clus scale="   89.661">  1  3  2 -1</clus>
</clustering>
</event>
<event>
 6    0  0.9315069E+002  0.1059862E+03  0.7546771E-02  0.1268189E+00
         21   -1    0    0  504  501  0.00000000000E+00  0.00000000000E+00  0.11044213330E+03  0.11044213330E+03  0.00000000000E+00 0.  1.
         21   -1    0    0  505  502 -0.00000000000E+00 -0.00000000000E+00 -0.94691019645E+03  0.94691019645E+03  0.00000000000E+00 0. -1.
         21    1    1    2  503  501 -0.90899111224E+02  0.45699214445E+02  0.46341690730E+02  0.11179722234E+03  0.00000000000E+00 0.  1.
         21    1    1    2  504  506  0.13341795834E+03 -0.44843991527E+02 -0.23958625155E+03  0.27787210568E+03  0.00000000000E+00 0. -1.
         21    1    1    2  505  503 -0.75731318411E+02 -0.80328224036E+01 -0.11238252122E+03  0.13575562567E+03  0.00000000000E+00 0. -1.
         21    1    1    2  506  502  0.33212471292E+02  0.71775994856E+01 -0.53084098111E+03  0.53192737606E+03  0.00000000000E+00 0. -1.
<scales pt_clust_3="105.98623" pt_clust_4="14000.00000" pt_clust_5="66.07764" pt_clust_6="33.97920"></scales>
<clustering>
<clus scale="   33.979">  2  6  1 -1</clus>
<clus scale="   66.078">  2  5  1 -1</clus>
<clus scale="  105.986">  1  3  2 -1</clus>
<clus scale="  105.986">  1  3  2 -1</clus>
</clustering>
</event>
<event>
 6    0  0.9315069E+002  0.1529722E+03  0.7546771E-02  0.1196868E+00
         21   -1    0    0  506  501  0.00000000000E+00  0.00000000000E+00  0.13990098853E+03  0.13990098853E+03  0.00000000000E+00 0.  1.
         21   -1    0    0  504  502 -0.00000000000E+00 -0.00000000000E+00 -0.13507323735E+04  0.13507323735E+04  0.00000000000E+00 0.  1.
         21    1    1    2  503  502 -0.35481234183E+02 -0.13780716827E+03 -0.10333158279E+04  0.10430682307E+04  0.00000000000E+00 0.  1.
         21    1    1    2  504  505 -0.33816455488E+02  0.20914109727E+02 -0.62532159042E+02  0.74102790514E+02  0.00000000000E+00 0. -1.
         21    1    1    2  505  501 -0.12258697456E+02  0.12045419131E+03 -0.21354664554E+03  0.24548249976E+03  0.00000000000E+00 0.  1.
         21    1    1    2  506  503  0.81556387128E+02 -0.35611327657E+01  0.98563247557E+02  0.12797984106E+03  0.00000000000E+00 0.  1.
<scales pt_clust_3="139.97554" pt_clust_4="35.35986" pt_clust_5="35.35986" pt_clust_6="81.63410"></scales>
<clustering>
<clus scale="   35.360">  4  5 -1 -1</clus>
<clus scale="   81.634">  1  6  2 -1</clus>
<clus scale="  139.976">  2  3  1 -1</clus>
<clus scale="   81.634">  1  3  2 -1</clus>
</clustering>
</event>
<event>
 6    0  0.9315069E+002  0.1093229E+03  0.7546771E-02  0.1261829E+00
         21   -1    0    0  502  501  0.00000000000E+00  0.00000000000E+00  0.94461110277E+03  0.94461110277E+03  0.00000000000E+00 0. -1.
         21   -1    0    0  504  502 -0.00000000000E+00 -0.00000000000E+00 -0.20143580803E+03  0.20143580803E+03  0.00000000000E+00 0. -1.
         21    1    1    2  503  501  0.45933623229E+02 -0.59668516185E+02  0.64690738184E+03  0.65127520316E+03  0.00000000000E+00 0. -1.
         21    1    1    2  504  505  0.17197891036E+02 -0.87742342908E+02 -0.16203707648E+03  0.18506890703E+03  0.00000000000E+00 0. -1.
         21    1    1    2  505  506 -0.18171782647E+02  0.59358811768E+02  0.52185299527E+02  0.81098629494E+02  0.00000000000E+00 0.  1.
         21    1    1    2  506  503 -0.44959731617E+02  0.88052047326E+02  0.20611968986E+03  0.22860417112E+03  0.00000000000E+00 0. -1.
<scales pt_clust_3="75.30093" pt_clust_4="92.04726" pt_clust_5="46.73692" pt_clust_6="46.73692"></scales>
<clustering>
<clus scale="   46.737">  5  6 -1 -1</clus>
<clus scale="   75.301">  1  3  2 -1</clus>
<clus scale="   92.047">  2  4  1 -1</clus>
<clus scale="   75.301">  1  3  2 -1</clus>
</clustering>
</event>
<event>
 6    0  0.9315069E+002  0.2896758E+03  0.7546771E-02  0.1090519E+00
         21   -1    0    0  503  501  0.00000000000E+00  0.00000000000E+00  0.56140325391E+03  0.56140325391E+03  0.00000000000E+00 0.  1.
         21   -1    0    0  504  502 -0.00000000000E+00 -0.00000000000E+00 -0.67400087905E+03  0.67400087905E+03  0.00000000000E+00 0.  1.
         21    1    1    2  503  506  0.38556421796E+02  0.41263462129E+02  0.38224576681E+03  0.38639500154E+03  0.00000000000E+00 0.  1.
         21    1    1    2  504  501  0.10565060824E+03  0.21206915762E+03  0.34835023955E+02  0.23947621496E+03  0.00000000000E+00 0.  1.
         21    1    1    2  505  502 -0.99111614088E+02 -0.14940711954E+03 -0.39329960881E+03  0.43223857036E+03  0.00000000000E+00 0.  1.
         21    1    1    2  506  505 -0.45095415946E+02 -0.10392550022E+03 -0.13637880710E+03  0.17729434610E+03  0.00000000000E+00 0.  1.
<scales pt_clust_3="56.47363" pt_clust_4="279.13085" pt_clust_5="60.92455" pt_clust_6="60.92455"></scales>
<clustering>
<clus scale="   56.474">  1  3  2 -1</clus>
<clus scale="   60.925">  5  6 -1 -1</clus>
<clus scale="  279.131">  1  4  2 -1</clus>
<clus scale="   56.474">  1  3  2 -1</clus>
</clustering>
</event>
<event>
 6    0  0.9315069E+002  0.1924264E+03  0.7546771E-02  0.1156291E+00
         21   -1    0    0  506  501  0.00000000000E+00  0.00000000000E+00  0.33842230414E+03  0.33842230414E+03  0.00000000000E+00 0. -1.
         21   -1    0    0  503  502 -0.00000000000E+00 -0.00000000000E+00 -0.11427800374E+04  0.11427800374E+04  0.00000000000E+00 0.  1.
         21    1    1    2  503  504  0.52429399190E+02  0.20037960548E+02 -0.47271897256E+02  0.73382518576E+02  0.00000000000E+00 0.  1.
         21    1    1    2  504  501  0.63164426829E+02  0.71012116367E+02  0.15119782857E+02  0.96234470545E+02  0.00000000000E+00 0. -1.
         21    1    1    2  505  502  0.27943927509E+02  0.25609926738E+02 -0.10097832355E+04  0.10104943909E+04  0.00000000000E+00 0.  1.
         21    1    1    2  506  505 -0.14353775353E+03 -0.11666000365E+03  0.23757761665E+03  0.30109096146E+03  0.00000000000E+00 0. -1.
<scales pt_clust_3="64.30557" pt_clust_4="64.30557" pt_clust_5="37.90424" pt_clust_6="175.90847"></scales>
<clustering>
<clus scale="   37.904">  2  5  1 -1</clus>
<clus scale="   64.306">  3  4 -1 -1</clus>
<clus scale="  175.908">  1  6  2 -1</clus>
<clus scale="  175.908">  1  3  2 -1</clus>
</clustering>
</event>
<event>
 6    0  0.9315069E+002  0.7746081E+02  0.7546771E-02  0.1336416E+00
         21   -1    0    0  506  501  0.00000000000E+00  0.00000000000E+00  0.38746995673E+03  0.38746995673E+03  0.00000000000E+00 0.  1.
         21   -1    0    0  503  502 -0.00000000000E+00 -0.00000000000E+00 -0.58907808417E+02  0.58907808417E+02  0.00000000000E+00 0.  1.
         21    1    1    2  503  505  0.47360823035E+02  0.40082563544E+02  0.47671013718E+02  0.78244392820E+02  0.00000000000E+00 0.  1.
         21    1    1    2  504  502 -0.77433498562E+02 -0.52592752139E+02  0.31402897559E+02  0.98732397176E+02  0.00000000000E+00 0.  1.
         21    1    1    2  505  501  0.29496956085E+02  0.51327736337E+02  0.18379880034E+03  0.19309740014E+03  0.00000000000E+00 0.  1.
         21    1    1    2  506  504  0.57571944201E+00 -0.38817547742E+02  0.65689436702E+02  0.76303575013E+02  0.00000000000E+00 0.  1.
<scales pt_clust_3="77.46081" pt_clust_4="14000.00000" pt_clust_5="41.06586" pt_clust_6="38.82182"></scales>
<clustering>
<clus scale="   38.822">  1  6  2 -1</clus>
<clus scale="   41.066">  1  5  2 -1</clus>
<clus scale="   77.461">  2  3  1 -1</clus>
<clus scale="   38.822">  1  3  2 -1</clus>
</clustering>
</event>
<event>
 6    0  0.9315069E+002  0.1239147E+03  0.7546771E-02  0.1236775E+00
         21   -1    0    0  502  501  0.00000000000E+00  0.00000000000E+00  0.46835304818E+03  0.46835304818E+03  0.00000000000E+00 0. -1.
         21   -1    0    0  506  502 -0.00000000000E+00 -0.00000000000E+00 -0.11173092504E+03  0.11173092504E+03  0.00000000000E+00 0. -1.
         21    1    1    2  503  501  0.30261749536E+02  0.19416616326E+02  0.12878001974E+03  0.13370516803E+03  0.00000000000E+00 0. -1.
         21    1    1    2  504  503 -0.48792190116E+02 -0.40400765446E+02  0.83675113822E+02  0.10494962762E+03  0.00000000000E+00 0. -1.
         21    1    1    2  505  504  0.11603023821E+03 -0.54698150141E+02  0.17232930550E+03  0.21483084821E+03  0.00000000000E+00 0. -1.
         21    1    1    2  506  505 -0.97499797625E+02  0.75682299260E+02 -0.28162315914E+02  0.12659832936E+03  0.00000000000E+00 0. -1.
<scales pt_clust_3="35.95523" pt_clust_4="53.37591" pt_clust_5="123.91467" pt_clust_6="14000.00000"></scales>
<clustering>
<clus scale="   35.955">  1  3  2 -1</clus>
<clus scale="   53.376">  1  4  2 -1</clus>
<clus scale="  123.915">  1  5  2 -1</clus>
<clus scale="   35.955">  1  3  2 -1</clus>
</clustering>
</event>
<event>
 6    0  0.9315069E+002  0.9395778E+02  0.7546771E-02  0.1293541E+00
         21   -1    0    0  504  501  0.00000000000E+00  0.00000000000E+00  0.52239672417E+03  0.52239672417E+03  0.00000000000E+00 0.  1.
         21   -1    0    0  503  502 -0.00000000000E+00 -0.00000000000E+00 -0.96368347018E+03  0.96368347018E+03  0.00000000000E+00 0. -1.
         21    1    1    2  503  505 -0.59471786593E+02  0.20145271709E+02 -0.33894314420E+02  0.71355097384E+02  0.00000000000E+00 0. -1.
         21    1    1    2  504  502  0.75519838109E+02 -0.36042306833E+02 -0.86338902861E+03  0.86743467106E+03  0.00000000000E+00 0. -1.
         21    1    1    2  505  506 -0.74190724716E+02 -0.89959245974E+01 -0.11430964849E+02  0.75603288623E+02  0.00000000000E+00 0. -1.
         21    1    1    2  506  501  0.58142673199E+02  0.24892959722E+02  0.46742756186E+03  0.47168713728E+03  0.00000000000E+00 0.  1.
<scales pt_clust_3="36.11545" pt_clust_4="85.29744" pt_clust_5="36.11545" pt_clust_6="63.24737"></scales>
<clustering>
<clus scale="   36.115">  3  5 -1 -1</clus>
<clus scale="   63.247">  1  6  2 -1</clus>
<clus scale="   85.297">  2  4  1 -1</clus>
<clus scale="   63.247">  1  3  2 -1</clus>
</clustering>
</event>
<event>
 6    0  0.9315069E+002  0.7339222E+02  0.7546771E-02  0.1348923E+00
         21   -1    0    0  504  501  0.00000000000E+00  0.00000000000E+00  0.22051084555E+03  0.22051084555E+03  0.00000000000E+00 0. -1.
         21   -1    0    0  503  502 -0.00000000000E+00 -0.00000000000E+00 -0.13549550790E+03  0.13549550790E+03  0.00000000000E+00 0. -1.
         21    1    1    2  503  501 -0.54668152049E+02 -0.76548403357E+02  0.12241727469E+03  0.15438346430E+03  0.00000000000E+00 0. -1.
         21    1    1    2  504  506 -0.27274005438E+02  0.62884015708E+02  0.33391996448E+02  0.76244975119E+02  0.00000000000E+00 0. -1.
         21    1    1    2  505  502  0.28234484802E+02  0.32095786333E+02 -0.47774056609E+02  0.64106833624E+02  0.00000000000E+00 0. -1.
         21    1    1    2  506  505  0.53707672685E+02 -0.18431398684E+02 -0.23019876884E+02  0.61271080408E+02  0.00000000000E+00 0. -1.
<scales pt_clust_3="14000.00000" pt_clust_4="73.39222" pt_clust_5="42.74723" pt_clust_6="68.68016"></scales>
<clustering>
<clus scale="   42.747">  2  5  1 -1</clus>
<clus scale="   68.680">  2  6  1 -1</clus>
<clus scale="   73.392">  2  4  1 -1</clus>
<clus scale="   73.392">  1  3  2 -1</clus>
</clustering>
</event>
<event>
 6    0  0.9315069E+002  0.1047157E+03  0.7546771E-02  0.1270681E+00
         21   -1    0    0  503  501  0.00000000000E+00  0.00000000000E+00  0.15858977442E+04  0.15858977442E+04  0.00000000000E+00 0.  1.
         21   -1    0    0  505  502 -0.00000000000E+00 -0.00000000000E+00 -0.18746031625E+02  0.18746031625E+02  0.00000000000E+00 0.  1.
         21    1    1    2  503  504  0.57395102590E+02  0.70767063694E+01  0.26020312610E+03  0.26655195442E+03  0.00000000000E+00 0.  1.
         21    1    1    2  504  506  0.69886706893E+02  0.19989013673E+02  0.16962908632E+03  0.18454739065E+03  0.00000000000E+00 0.  1.
         21    1    1    2  505  501 -0.84773429778E+02 -0.29605454861E+02  0.10708223017E+04  0.10745805783E+04  0.00000000000E+00 0.  1.
         21    1    1    2  506  502 -0.42508379705E+02  0.25397348194E+01  0.66497198411E+02  0.78963852455E+02  0.00000000000E+00 0.  1.
<scales pt_clust_3="37.85987" pt_clust_4="37.85987" pt_clust_5="95.72718" pt_clust_6="42.58418"></scales>
<clustering>
<clus scale="   37.860">  3  4 -1 -1</clus>
<clus scale="   42.584">  2  6  1 -1</clus>
<clus scale="   95.727">  1  5  2 -1</clus>
<clus scale="   95.727">  1  3  2 -1</clus>
</clustering>
</event>
<event>
 6    0  0.9315069E+002  0.1453086E+03  0.7546771E-02  0.1206359E+00
         21   -1    0    0  506  501  0.00000000000E+00  0.00000000000E+00  0.17449684045E+04  0.17449684045E+04  0.00000000000E+00 0.  1.
         21   -1    0    0  505  502 -0.00000000000E+00 -0.00000000000E+00 -0.10278204101E+04  0.10278204101E+04  0.00000000000E+00 0.  1.
         21    1    1    2  503  502  0.30867838134E+02 -0.37730054108E+02 -0.20415200955E+02  0.52850362762E+02  0.00000000000E+00 0.  1.
         21    1    1    2  504  501  0.14188052960E+03  0.14495915822E+03 -0.17619755677E+03  0.26867977453E+03  0.00000000000E+00 0.  1.
         21    1    1    2  505  504 -0.10063780766E+03 -0.67039308901E+02 -0.76297194631E+03  0.77249493728E+03  0.00000000000E+00 0.  1.
         21    1    1    2  506  503 -0.72110560067E+02 -0.40189795208E+02  0.16767326985E+04  0.16787637400E+04  0.00000000000E+00 0.  1.
<scales pt_clust_3="48.74813" pt_clust_4="145.30864" pt_clust_5="14000.00000" pt_clust_6="82.54515"></scales>
<clustering>
<clus scale="   48.748">  2  3  1 -1</clus>
<clus scale="   82.545">  1  6  2 -1</clus>
<clus scale="  145.309">  1  4  2 -1</clus>
<clus scale="   82.545">  1  3  2 -1</clus>
</clustering>
</event>
<event>
 6    0  0.9315069E+002  0.1113974E+03  0.7546771E-02  0.1258004E+00
         21   -1    0    0  504  501  0.00000000000E+00  0.00000000000E+00  0.89186760257E+03  0.89186760257E+03  0.00000000000E+00 0. -1.
         21   -1    0    0  506  502 -0.00000000000E+00 -0.00000000000E+00 -0.17819357119E+03  0.17819357119E+03  0.00000000000E+00 0. -1.
         21    1    1    2  503  502  0.80233309230E+02 -0.40939139024E+02  0.12677092334E+03  0.15551290627E+03  0.00000000000E+00 0. -1.
         21    1    1    2  504  503 -0.35546236013E+02 -0.17826548291E+02  0.64659157417E+02  0.75908677742E+02  0.00000000000E+00 0. -1.
         21    1    1    2  505  501 -0.13341377095E+03 -0.85504823000E+01  0.65319331308E+03  0.66673371693E+03  0.00000000000E+00 0. -1.
         21    1    1    2  506  505  0.88726697734E+02  0.67316169615E+02 -0.13094936245E+03  0.17190587282E+03  0.00000000000E+00 0. -1.
<scales pt_clust_3="86.20275" pt_clust_4="39.76582" pt_clust_5="111.39738" pt_clust_6="14000.00000"></scales>
<clustering>
<clus scale="   39.766">  1  4  2 -1</clus>
<clus scale="   86.203">  1  3  2 -1</clus>
<clus scale="  111.397">  1  5  2 -1</clus>
<clus scale="   39.766">  1  3  2 -1</clus>
</clustering>
</event>
<event>
 6    0  0.9315069E+002  0.1337352E+03  0.7546771E-02  0.1222016E+00
         21   -1    0    0  504  501  0.00000000000E+00  0.00000000000E+00  0.18551470785E+04  0.18551470785E+04  0.00000000000E+00 0. -1.
         21   -1    0    0  503  502 -0.00000000000E+00 -0.00000000000E+00 -0.67347006067E+02  0.67347006067E+02  0.00000000000E+00 0. -1.
         21    1    1    2  503  506  0.93266606855E+02  0.12230266843E+03  0.58028168910E+02  0.16438938848E+03  0.00000000000E+00 0. -1.
         21    1    1    2  504  505 -0.16862197353E+03 -0.63837072041E+02  0.11658757823E+04  0.11797350896E+04  0.00000000000E+00 0. -1.
         21    1    1    2  505  502 -0.38336584622E+01 -0.35542884456E+02  0.81728586133E+02  0.89205130816E+02  0.00000000000E+00 0.  1.
         21    1    1    2  506  501  0.79189025137E+02 -0.22922711930E+02  0.48216753504E+03  0.48916447568E+03  0.00000000000E+00 0. -1.
<scales pt_clust_3="133.73523" pt_clust_4="14000.00000" pt_clust_5="35.74904" pt_clust_6="82.80366"></scales>
<clustering>
<clus scale="   35.749">  2  5  1 -1</clus>
<clus scale="   82.804">  1  6  2 -1</clus>
<clus scale="  133.735">  2  3  1 -1</clus>
<clus scale="   82.804">  1  3  2 -1</clus>
</clustering>
</event>
<event>
 6    0  0.9315069E+002  0.1070074E+03  0.7546771E-02  0.1266214E+00
         21   -1    0    0  504  501  0.00000000000E+00  0.00000000000E+00  0.18287823964E+03  0.18287823964E+03  0.00000000000E+00 0.  1.
         21   -1    0    0  505  502 -0.00000000000E+00 -0.00000000000E+00 -0.32472760622E+03  0.32472760622E+03  0.00000000000E+00 0.  1.
         21    1    1    2  503  501  0.73331016755E+02 -0.78539912958E+02  0.12161991450E+03  0.16228789095E+03  0.00000000000E+00 0.  1.
         21    1    1    2  504  506 -0.82327204526E+02  0.62370605680E+02 -0.22267030660E+03  0.24545860445E+03  0.00000000000E+00 0.  1.
         21    1    1    2  505  503 -0.37260625240E+02  0.23863315714E+02 -0.20334232092E+02  0.48695924110E+02  0.00000000000E+00 0.  1.
         21    1    1    2  506  502  0.46256813012E+02 -0.76940084362E+01 -0.20464742383E+02  0.51163426357E+02  0.00000000000E+00 0. -1.
<scales pt_clust_3="14000.00000" pt_clust_4="107.00744" pt_clust_5="44.24717" pt_clust_6="41.92844"></scales>
<clustering>
<clus scale="   44.247">  2  5  1 -1</clus>
<clus scale="   41.928">  2  6  1 -1</clus>
<clus scale="  107.007">  2  4  1 -1</clus>
<clus scale="  107.007">  1  3  2 -1</clus>
</clustering>
</event>
<event>
 6    0  0.1824050E+003  0.7777658E+02  0.7546771E-02  0.1335482E+00
         21   -1    0    0  505  501  0.00000000000E+00  0.00000000000E+00  0.24944901155E+04  0.24944901155E+04  0.00000000000E+00 0. -1.
         21   -1    0    0  504  502 -0.00000000000E+00 -0.00000000000E+00 -0.68462590209E+03  0.68462590209E+03  0.00000000000E+00 0.  1.
         21    1    1    2  503  501  0.28153155223E+02 -0.34620641922E+02  0.69824653594E+03  0.69967093261E+03  0.00000000000E+00 0. -1.
         21    1    1    2  504  506  0.35960427239E+02 -0.68878979680E+02 -0.66823011769E+03  0.67273245526E+03  0.00000000000E+00 0.  1.
         21    1    1    2  505  502 -0.33411736993E+02 -0.33971155346E+02  0.43061134795E+02  0.64223398340E+02  0.00000000000E+00 0.  1.
         21    1    1    2  506  503 -0.30701845469E+02  0.13747077695E+03  0.17367866604E+04  0.17424892314E+04  0.00000000000E+00 0. -1.
<scales pt_clust_3="44.62274" pt_clust_4="77.77658" pt_clust_5="47.81453" pt_clust_6="14000.00000"></scales>
<clustering>
<clus scale="   44.623">  1  3  2 -1</clus>
<clus scale="   47.815">  1  5  2 -1</clus>
<clus scale="   77.777">  2  4  1 -1</clus>
<clus scale="   44.623">  1  3  2 -1</clus>
</clustering>
</event>
<event>
 6    0  0.9315069E+002  0.9508716E+02  0.7546771E-02  0.1290980E+00
         21   -1    0    0  506  501  0.00000000000E+00  0.00000000000E+00  0.96848553120E+02  0.96848553120E+02  0.00000000000E+00 0. -1.
         21   -1    0    0  503  502 -0.00000000000E+00 -0.00000000000E+00 -0.62608714567E+03  0.62608714567E+03  0.00000000000E+00 0. -1.
         21    1    1    2  503  505  0.85711912974E+02  0.25897321251E+02 -0.34619150243E+03  0.35758322056E+03  0.00000000000E+00 0. -1.
         21    1    1    2  504  501 -0.58671165931E+02 -0.15679818826E+02  0.12995310899E+02  0.62105076568E+02  0.00000000000E+00 0. -1.
         21    1    1    2  505  504  0.10187998102E+03 -0.10488864715E+02 -0.88680271806E+02  0.13547596622E+03  0.00000000000E+00 0. -1.
         21    1    1    2  506  502 -0.12892072806E+03  0.27136228971E+00 -0.10736212922E+03  0.16777143545E+03  0.00000000000E+00 0. -1.
<scales pt_clust_3="14000.00000" pt_clust_4="60.73024" pt_clust_5="80.47629" pt_clust_6="95.08716"></scales>
<clustering>
<clus scale="   60.730">  1  4  2 -1</clus>
<clus scale="   80.476">  1  5  2 -1</clus>
<clus scale="   95.087">  1  6  2 -1</clus>
<clus scale="   60.730">  1  3  2 -1</clus>
</clustering>
</event>
<event>
 6    0  0.9315069E+002  0.8832206E+02  0.7546771E-02  0.1306967E+00
         21   -1    0    0  505  501  0.00000000000E+00  0.00000000000E+00  0.96714528902E+02  0.96714528902E+02  0.00000000000E+00 0.  1.
         21   -1    0    0  503  502 -0.00000000000E+00 -0.00000000000E+00 -0.44354307702E+03  0.44354307702E+03  0.00000000000E+00 0.  1.
         21    1    1    2  503  504 -0.20167988280E+02  0.94301821506E+02 -0.21893546424E+03  0.23923277115E+03  0.00000000000E+00 0.  1.
         21    1    1    2  504  501  0.63685745591E+02 -0.41624031666E+02 -0.86566703549E+02  0.11524855039E+03  0.00000000000E+00 0.  1.
         21    1    1    2  505  506 -0.53881536233E+02  0.23189867874E+02  0.42351638442E+02  0.72350889404E+02  0.00000000000E+00 0.  1.
         21    1    1    2  506  502  0.10363778923E+02 -0.75867657714E+02 -0.83678018776E+02  0.11342539498E+03  0.00000000000E+00 0.  1.
<scales pt_clust_3="88.32206" pt_clust_4="55.14976" pt_clust_5="58.65995" pt_clust_6="14000.00000"></scales>
<clustering>
<clus scale="   58.660">  1  5  2 -1</clus>
<clus scale="   55.150">  1  4  2 -1</clus>
<clus scale="   88.322">  2  3  1 -1</clus>
<clus scale="   58.660">  1  3  2 -1</clus>
</clustering>
</event>
<event>
 6    0  0.9315069E+002  0.1211587E+03  0.7546771E-02  0.1241198E+00
         21   -1    0    0  506  501  0.00000000000E+00  0.00000000000E+00  0.29167797804E+04  0.29167797804E+04  0.00000000000E+00 0.  1.
         21   -1    0    0  503  502 -0.00000000000E+00 -0.00000000000E+00 -0.17298590462E+02  0.17298590462E+02  0.00000000000E+00 0.  1.
         21    1    1    2  503  501 -0.91342908706E+02 -0.93987412428E+02  0.11345359057E+04  0.11420809437E+04  0.00000000000E+00 0.  1.
         21    1    1    2  504  505  0.36967090779E+02  0.27056572348E+02  0.28838591845E+03  0.29200181826E+03  0.00000000000E+00 0.  1.
         21    1    1    2  505  502  0.91509784789E+02  0.75508317964E+02  0.29698373301E+03  0.31980444723E+03  0.00000000000E+00 0.  1.
         21    1    1    2  506  504 -0.37133966863E+02 -0.85774778834E+01  0.11795756328E+04  0.11801911616E+04  0.00000000000E+00 0. -1.
<scales pt_clust_3="14000.00000" pt_clust_4="40.03646" pt_clust_5="121.15873" pt_clust_6="38.11174"></scales>
<clustering>
<clus scale="   38.112">  1  6  2 -1</clus>
<clus scale="   40.036">  1  4  2 -1</clus>
<clus scale="  121.159">  2  5  1 -1</clus>
<clus scale="   38.112">  1  3  2 -1</clus>
</clustering>
</event>
<event>
 6    0  0.9315069E+002  0.9548850E+02  0.7546771E-02  0.1290080E+00
         21   -1    0    0  503  501  0.00000000000E+00  0.00000000000E+00  0.80720267163E+03  0.80720267163E+03  0.00000000000E+00 0.  1.
         21   -1    0    0  505  502 -0.00000000000E+00 -0.00000000000E+00 -0.40093570315E+02  0.40093570315E+02  0.00000000000E+00 0.  1.
         21    1    1    2  503  504  0.56259467259E+02  0.66592947570E+02  0.34050385500E+03  0.35148630641E+03  0.00000000000E+00 0.  1.
         21    1    1    2  504  506  0.45841231821E+02  0.31627507805E+02  0.86640279913E+02  0.10299638774E+03  0.00000000000E+00 0.  1.
         21    1    1    2  505  501 -0.52102184939E+02 -0.98121794593E+02  0.32041495465E+03  0.33912868857E+03  0.00000000000E+00 0.  1.
         21    1    1    2  506  502 -0.49998514141E+02 -0.98660782640E-01  0.19550011754E+02  0.53684859223E+02  0.00000000000E+00 0.  1.
<scales pt_clust_3="95.48850" pt_clust_4="42.27021" pt_clust_5="14000.00000" pt_clust_6="49.99861"></scales>
<clustering>
<clus scale="   49.999">  2  6  1 -1</clus>
<clus scale="   42.270">  2  4  1 -1</clus>
<clus scale="   95.489">  1  3  2 -1</clus>
<clus scale="   95.489">  1  3  2 -1</clus>
</clustering>
</event>
<event>
 6    0  0.9315069E+002  0.1415952E+03  0.7546771E-02  0.1211199E+00
         21   -1    0    0  502  501  0.00000000000E+00  0.00000000000E+00  0.17852529595E+03  0.17852529595E+03  0.00000000000E+00 0.  1.
         21   -1    0    0  506  502 -0.00000000000E+00 -0.00000000000E+00 -0.42100418642E+03  0.42100418642E+03  0.00000000000E+00 0. -1.
         21    1    1    2  503  504  0.10253572880E+03  0.40799530810E+02 -0.10865471673E+02  0.11088839375E+03  0.00000000000E+00 0. -1.
         21    1    1    2  504  505 -0.64600975460E+02 -0.49598571427E+02  0.49014636602E+02  0.95056503824E+02  0.00000000000E+00 0.  1.
         21    1    1    2  505  501 -0.73794390203E+02  0.48354161026E+01  0.30773575594E+02  0.80099976462E+02  0.00000000000E+00 0.  1.
         21    1    1    2  506  503  0.35859636868E+02  0.39636245143E+01 -0.31140163099E+03  0.31348460833E+03  0.00000000000E+00 0. -1.
<scales pt_clust_3="129.97142" pt_clust_4="52.66194" pt_clust_5="52.66194" pt_clust_6="36.07802"></scales>
<clustering>
<clus scale="   36.078">  2  6  1 -1</clus>
<clus scale="   52.662">  4  5 -1 -1</clus>
<clus scale="  129.971">  2  3  1 -1</clus>
<clus scale="  141.595">  1  3  2 -1</clus>
</clustering>
</event>
<event>
 6    0  0.9315069E+002  0.1210593E+03  0.7546771E-02  0.1241360E+00
         21   -1    0    0  503  501  0.00000000000E+00  0.00000000000E+00  0.43624696794E+03  0.43624696794E+03  0.00000000000E+00 0.  1.
         21   -1    0    0  504  502 -0.00000000000E+00 -0.00000000000E+00 -0.11190801501E+03  0.11190801501E+03  0.00000000000E+00 0.  1.
         21    1    1    2  503  505  0.97404126897E+02  0.24108168905E+02  0.35850388082E+02  0.10655523483E+03  0.00000000000E+00 0.  1.
         21    1    1    2  504  506  0.32196818915E+02 -0.31340018094E+02 -0.35505743959E+02  0.57266829286E+02  0.00000000000E+00 0.  1.
         21    1    1    2  505  502 -0.61416125884E+01  0.42708897939E+02  0.88944037797E+01  0.44055417226E+02  0.00000000000E+00 0.  1.
         21    1    1    2  506  501 -0.12345933322E+03 -0.35477048751E+02  0.31509990502E+03  0.34027750160E+03  0.00000000000E+00 0.  1.
<scales pt_clust_3="14000.00000" pt_clust_4="30.95386" pt_clust_5="43.14823" pt_clust_6="121.05934"></scales>
<clustering>
<clus scale="   43.148">  2  5  1 -1</clus>
<clus scale="   30.954">  2  4  1 -1</clus>
<clus scale="  121.059">  1  6  2 -1</clus>
<clus scale="  121.059">  1  3  2 -1</clus>
</clustering>
</event>
<event>
 6    0  0.9315069E+002  0.1643193E+03  0.7546771E-02  0.1183905E+00
         21   -1    0    0  506  501  0.00000000000E+00  0.00000000000E+00  0.78127371116E+03  0.78127371116E+03  0.00000000000E+00 0. -1.
         21   -1    0    0  503  502 -0.00000000000E+00 -0.00000000000E+00 -0.87106901061E+02  0.87106901061E+02  0.00000000000E+00 0. -1.
         21    1    1    2  503  505 -0.45262657025E+02  0.18064518073E+03  0.20853794619E+03  0.27958802628E+03  0.00000000000E+00 0. -1.
         21    1    1    2  504  502  0.46083043869E+02  0.32488443993E+02  0.70502687472E+02  0.90276103516E+02  0.00000000000E+00 0. -1.
         21    1    1    2  505  501  0.92988832064E+01 -0.15607460116E+03  0.41178750301E+03  0.44047099564E+03  0.00000000000E+00 0. -1.
         21    1    1    2  506  504 -0.10119270050E+02 -0.57059023557E+02  0.33386734199E+01  0.58045486782E+02  0.00000000000E+00 0. -1.
<scales pt_clust_3="14000.00000" pt_clust_4="56.38392" pt_clust_5="164.31932" pt_clust_6="45.97139"></scales>
<clustering>
<clus scale="   56.384">  2  4  1 -1</clus>
<clus scale="   45.971">  2  6  1 -1</clus>
<clus scale="  164.319">  1  5  2 -1</clus>
<clus scale="  164.319">  1  3  2 -1</clus>
</clustering>
</event>
<event>
 6    0  0.9315069E+002  0.9120234E+02  0.7546771E-02  0.1299966E+00
         21   -1    0    0  504  501  0.00000000000E+00  0.00000000000E+00  0.23852140846E+03  0.23852140846E+03  0.00000000000E+00 0.  1.
         21   -1    0    0  503  502 -0.00000000000E+00 -0.00000000000E+00 -0.17872548396E+03  0.17872548396E+03  0.00000000000E+00 0.  1.
         21    1    1    2  503  506 -0.13414432187E+02  0.40916331850E+02 -0.50690082447E+02  0.66509981667E+02  0.00000000000E+00 0.  1.
         21    1    1    2  504  502 -0.78564841300E+02 -0.56599773682E+02  0.19099929572E+02  0.98695369592E+02  0.00000000000E+00 0.  1.
         21    1    1    2  505  501  0.22779236093E+02 -0.27417295786E+02  0.14835947192E+03  0.15258156708E+03  0.00000000000E+00 0.  1.
         21    1    1    2  506  505  0.69200037394E+02  0.43100737617E+02 -0.56973394546E+02  0.99459974083E+02  0.00000000000E+00 0.  1.
<scales pt_clust_3="40.09853" pt_clust_4="14000.00000" pt_clust_5="35.64550" pt_clust_6="91.20234"></scales>
<clustering>
<clus scale="   35.646">  1  5  2 -1</clus>
<clus scale="   40.099">  2  3  1 -1</clus>
<clus scale="   91.202">  2  6  1 -1</clus>
<clus scale="   35.646">  1  3  2 -1</clus>
</clustering>
</event>
<event>
 6    0  0.9315069E+002  0.1014110E+03  0.7546771E-02  0.1277356E+00
         21   -1    0    0  504  501  0.00000000000E+00  0.00000000000E+00  0.29938452093E+03  0.29938452093E+03  0.00000000000E+00 0.  1.
         21   -1    0    0  505  502 -0.00000000000E+00 -0.00000000000E+00 -0.28432641150E+03  0.28432641150E+03  0.00000000000E+00 0. -1.
         21    1    1    2  503  506 -0.69953988380E+02  0.27609735291E+02 -0.16644035766E+02  0.77025203016E+02  0.00000000000E+00 0.  1.
         21    1    1    2  504  502 -0.11717598154E+02 -0.72901575778E+02  0.18325362428E+01  0.73860003022E+02  0.00000000000E+00 0.  1.
         21    1    1    2  505  503 -0.28453632937E+02  0.45258773935E+02 -0.18435663393E+03  0.19195138530E+03  0.00000000000E+00 0. -1.
         21    1    1    2  506  501  0.11012521947E+03  0.33066552673E-01  0.21422624288E+03  0.24087434109E+03  0.00000000000E+00 0.  1.
<scales pt_clust_3="101.41101" pt_clust_4="60.26051" pt_clust_5="53.45995" pt_clust_6="14000.00000"></scales>
<clustering>
<clus scale="   53.460">  2  5  1 -1</clus>
<clus scale="   60.261">  2  4  1 -1</clus>
<clus scale="  101.411">  2  3  1 -1</clus>
<clus scale="  101.411">  1  3  2 -1</clus>
</clustering>
</event>
<event>
 6    0  0.9315069E+002  0.2151153E+03  0.7546771E-02  0.1137578E+00
         21   -1    0    0  506  501  0.00000000000E+00  0.00000000000E+00  0.61435729619E+03  0.61435729619E+03  0.00000000000E+00 0. -1.
         21   -1    0    0  501  502 -0.00000000000E+00 -0.00000000000E+00 -0.27144505559E+03  0.27144505559E+03  0.00000000000E+00 0. -1.
         21    1    1    2  503  504 -0.59138344144E+02  0.67753779022E+02  0.15315944509E+03  0.17761118754E+03  0.00000000000E+00 0. -1.
         21    1    1    2  504  505  0.20009378934E+02  0.22030637445E+03  0.21376662359E+03  0.30762224111E+03  0.00000000000E+00 0. -1.
         21    1    1    2  505  502  0.52927363404E+02 -0.15462300701E+03 -0.14607673675E+03  0.21919852443E+03  0.00000000000E+00 0. -1.
         21    1    1    2  506  503 -0.13798398194E+02 -0.13343714646E+03  0.12206290867E+03  0.18137039869E+03  0.00000000000E+00 0. -1.
<scales pt_clust_3="81.42183" pt_clust_4="81.42183" pt_clust_5="173.11142" pt_clust_6="134.14868"></scales>
<clustering>
<clus scale="   81.422">  3  4 -1 -1</clus>
<clus scale="  134.149">  1  6  2 -1</clus>
<clus scale="  173.111">  2  5  1 -1</clus>
<clus scale="  134.149">  1  3  2 -1</clus>
</clustering>
</event>
<event>
 6    0  0.9315069E+002  0.1021594E+03  0.7546771E-02  0.1275820E+00
         21   -1    0    0  504  501  0.00000000000E+00  0.00000000000E+00  0.12229683545E+04  0.12229683545E+04  0.00000000000E+00 0.  1.
         21   -1    0    0  506  502 -0.00000000000E+00 -0.00000000000E+00 -0.58278484153E+03  0.58278484153E+03  0.00000000000E+00 0. -1.
         21    1    1    2  503  501  0.38226079927E+02  0.58815026117E+00  0.11722505782E+04  0.11728738198E+04  0.00000000000E+00 0.  1.
         21    1    1    2  504  502 -0.63721165720E+01  0.11967448102E+03 -0.33935259957E+03  0.35989272306E+03  0.00000000000E+00 0. -1.
         21    1    1    2  505  503 -0.59209574567E+01 -0.96919202671E+02 -0.23085669536E+02  0.99806501399E+02  0.00000000000E+00 0.  1.
         21    1    1    2  506  505 -0.25933005898E+02 -0.23343428613E+02 -0.16962879618E+03  0.17318015171E+03  0.00000000000E+00 0. -1.
<scales pt_clust_3="38.21069" pt_clust_4="102.15935" pt_clust_5="14000.00000" pt_clust_6="34.89178"></scales>
<clustering>
<clus scale="   34.892">  2  6  1 -1</clus>
<clus scale="   38.211">  1  3  2 -1</clus>
<clus scale="  102.159">  2  4  1 -1</clus>
<clus scale="   38.211">  1  3  2 -1</clus>
</clustering>
</event>
<event>
 6    0  0.9315069E+002  0.1455252E+03  0.7546771E-02  0.1206082E+00
         21   -1    0    0  504  501  0.00000000000E+00  0.00000000000E+00  0.12057477487E+04  0.12057477487E+04  0.00000000000E+00 0.  1.
         21   -1    0    0  506  502 -0.00000000000E+00 -0.00000000000E+00 -0.20461438946E+02  0.20461438946E+02  0.00000000000E+00 0.  1.
         21    1    1    2  503  502  0.60903889698E+02 -0.21175732269E+02  0.30358708477E+03  0.31035916848E+03  0.00000000000E+00 0.  1.
         21    1    1    2  504  503  0.62929154952E+02 -0.20418773947E+02  0.54562443126E+03  0.54962080097E+03  0.00000000000E+00 0.  1.
         21    1    1    2  505  501 -0.29322585030E+02  0.36514692106E+02  0.15486475625E+03  0.16179069646E+03  0.00000000000E+00 0. -1.
         21    1    1    2  506  505 -0.94510459620E+02  0.50798141096E+01  0.18121003745E+03  0.20443852172E+03  0.00000000000E+00 0.  1.
<scales pt_clust_3="36.14700" pt_clust_4="135.66631" pt_clust_5="45.11122" pt_clust_6="45.11122"></scales>
<clustering>
<clus scale="   36.147">  3  4 -1 -1</clus>
<clus scale="   45.111">  5  6 -1 -1</clus>
<clus scale="  135.666">  1  3  2 -1</clus>
<clus scale="  135.666">  1  3  2 -1</clus>
</clustering>
</event>
<event>
 6    0  0.9315069E+002  0.9201076E+02  0.7546771E-02  0.1298054E+00
         21   -1    0    0  504  501  0.00000000000E+00  0.00000000000E+00  0.33828512316E+03  0.33828512316E+03  0.00000000000E+00 0. -1.
         21   -1    0    0  506  502 -0.00000000000E+00 -0.00000000000E+00 -0.24592844038E+03  0.24592844038E+03  0.00000000000E+00 0.  1.
         21    1    1    2  503  501  0.93412046046E+02  0.12157776985E+02  0.29955739508E+03  0.31401951346E+03  0.00000000000E+00 0. -1.
         21    1    1    2  504  505 -0.65691969537E+02 -0.30991792984E+02 -0.57108841680E+02  0.92397759129E+02  0.00000000000E+00 0.  1.
         21    1    1    2  505  502 -0.50639229401E+02 -0.74973260030E+01 -0.12419209619E+03  0.13432876910E+03  0.00000000000E+00 0.  1.
         21    1    1    2  506  503  0.22919152892E+02  0.26331342002E+02 -0.25899774433E+02  0.43467521859E+02  0.00000000000E+00 0. -1.
<scales pt_clust_3="14000.00000" pt_clust_4="92.01076" pt_clust_5="37.61482" pt_clust_6="34.90884"></scales>
<clustering>
<clus scale="   34.909">  2  6  1 -1</clus>
<clus scale="   37.615">  2  5  1 -1</clus>
<clus scale="   92.011">  2  4  1 -1</clus>
<clus scale="   92.011">  1  3  2 -1</clus>
</clustering>
</event>
<event>
 6    0  0.9315069E+002  0.1993691E+03  0.7546771E-02  0.1150272E+00
         21   -1    0    0  503  501  0.00000000000E+00  0.00000000000E+00  0.30729542418E+03  0.30729542418E+03  0.00000000000E+00 0.  1.
         21   -1    0    0  506  502 -0.00000000000E+00 -0.00000000000E+00 -0.39952626288E+03  0.39952626288E+03  0.00000000000E+00 0. -1.
         21    1    1    2  503  505  0.12203628862E+03 -0.13246200363E+03  0.23605114466E+03  0.29691611785E+03  0.00000000000E+00 0.  1.
         21    1    1    2  504  502 -0.36534553968E+02  0.62616340159E+02 -0.19989298050E+03  0.21263297802E+03  0.00000000000E+00 0. -1.
         21    1    1    2  505  504 -0.66146385107E+02  0.95500249275E+02 -0.11126177356E+03  0.16085653275E+03  0.00000000000E+00 0. -1.
         21    1    1    2  506  501 -0.19355349545E+02 -0.25654585801E+02 -0.17127229300E+02  0.36416058437E+02  0.00000000000E+00 0.  1.
<scales pt_clust_3="180.59656" pt_clust_4="65.33444" pt_clust_5="65.33444" pt_clust_6="32.13701"></scales>
<clustering>
<clus scale="   32.137">  2  6  1 -1</clus>
<clus scale="   65.334">  4  5 -1 -1</clus>
<clus scale="  180.597">  1  3  2 -1</clus>
<clus scale="  180.597">  1  3  2 -1</clus>
</clustering>
</event>
<event>
 6    0  0.9315069E+002  0.1550177E+03  0.7546771E-02  0.1194439E+00
         21   -1    0    0  503  501  0.00000000000E+00  0.00000000000E+00  0.12004065355E+03  0.12004065355E+03  0.00000000000E+00 0.  1.
         21   -1    0    0  505  502 -0.00000000000E+00 -0.00000000000E+00 -0.24424945221E+03  0.24424945221E+03  0.00000000000E+00 0. -1.
         21    1    1    2  503  504 -0.57595180514E+02 -0.24240224179E+02  0.27212470677E+01  0.62547569675E+02  0.00000000000E+00 0. -1.
         21    1    1    2  504  502 -0.76616913941E+02 -0.53505858973E+01 -0.49295508381E+02  0.91262409665E+02  0.00000000000E+00 0. -1.
         21    1    1    2  505  506 -0.10541766768E+02 -0.30047461857E+02 -0.36839738543E+02  0.48694405700E+02  0.00000000000E+00 0. -1.
         21    1    1    2  506  501  0.14475386122E+03  0.59638271933E+02 -0.40794798802E+02  0.16178572071E+03  0.00000000000E+00 0.  1.
<scales pt_clust_3="45.70411" pt_clust_4="45.70411" pt_clust_5="31.84303" pt_clust_6="146.39209"></scales>
<clustering>
<clus scale="   31.843">  2  5  1 -1</clus>
<clus scale="   45.704">  3  4 -1 -1</clus>
<clus scale="  146.392">  2  6  1 -1</clus>
<clus scale="  155.018">  1  3  2 -1</clus>
</clustering>
</event>
<event>
 6    0  0.9315069E+002  0.1907270E+03  0.7546771E-02  0.1157807E+00
         21   -1    0    0  504  501  0.00000000000E+00  0.00000000000E+00  0.31349680437E+03  0.31349680437E+03  0.00000000000E+00 0. -1.
         21   -1    0    0  503  502 -0.00000000000E+00 -0.00000000000E+00 -0.39238174399E+03  0.39238174399E+03  0.00000000000E+00 0. -1.
         21    1    1    2  503  506 -0.14404349625E+03  0.11494493469E+03 -0.74266511995E+02  0.19868664179E+03  0.00000000000E+00 0. -1.
         21    1    1    2  504  505  0.12754555353E+03 -0.10408890955E+03  0.17384606450E+03  0.23942602920E+03  0.00000000000E+00 0. -1.
         21    1    1    2  505  502  0.64666366894E+02 -0.42144757317E+02 -0.19355496930E+03  0.20837813157E+03  0.00000000000E+00 0. -1.
         21    1    1    2  506  501 -0.48168424179E+02  0.31288732181E+02  0.15090477178E+02  0.59387745797E+02  0.00000000000E+00 0. -1.
<scales pt_clust_3="38.56169" pt_clust_4="177.78056" pt_clust_5="77.18756" pt_clust_6="38.56169"></scales>
<clustering>
<clus scale="   38.562">  3  6 -1 -1</clus>
<clus scale="   77.188">  2  5  1 -1</clus>
<clus scale="  177.781">  1  4  2 -1</clus>
<clus scale="  177.781">  1  3  2 -1</clus>
</clustering>
</event>
<event>
 6    0  0.9315069E+002  0.1913393E+03  0.7546771E-02  0.1157259E+00
         21   -1    0    0  504  501  0.00000000000E+00  0.00000000000E+00  0.22567688512E+04  0.22567688512E+04  0.00000000000E+00 0. -1.
         21   -1    0    0  505  502 -0.00000000000E+00 -0.00000000000E+00 -0.12003164570E+03  0.12003164570E+03  0.00000000000E+00 0.  1.
         21    1    1    2  503  501  0.22818020066E+02 -0.44426929428E+02  0.45547276960E+01  0.50151367305E+02  0.00000000000E+00 0. -1.
         21    1    1    2  504  506  0.13957508263E+02  0.32430681995E+02  0.16513277107E+04  0.16517051097E+04  0.00000000000E+00 0. -1.
         21    1    1    2  505  503 -0.24188049669E+02 -0.14266844814E+03 -0.24087706388E+02  0.14669548542E+03  0.00000000000E+00 0.  1.
         21    1    1    2  506  502 -0.12587478660E+02  0.15466469558E+03  0.50494247348E+03  0.52824853450E+03  0.00000000000E+00 0. -1.
<scales pt_clust_3="34.05721" pt_clust_4="35.30667" pt_clust_5="34.05721" pt_clust_6="182.34620"></scales>
<clustering>
<clus scale="   34.057">  3  5 -1 -1</clus>
<clus scale="   35.307">  1  4  2 -1</clus>
<clus scale="  182.346">  1  6  2 -1</clus>
<clus scale="   35.307">  1  3  2 -1</clus>
</clustering>
</event>
<event>
 6    0  0.9315069E+002  0.7061201E+02  0.7546771E-02  0.1358024E+00
         21   -1    0    0  504  501  0.00000000000E+00  0.00000000000E+00  0.10168978576E+04  0.10168978576E+04  0.00000000000E+00 0. -1.
         21   -1    0    0  506  502 -0.00000000000E+00 -0.00000000000E+00 -0.96065955703E+02  0.96065955703E+02  0.00000000000E+00 0. -1.
         21    1    1    2  503  505  0.21760097279E+02 -0.54472630224E+02  0.49597067705E+02  0.76815613010E+02  0.00000000000E+00 0. -1.
         21    1    1    2  504  503 -0.57713210977E+02 -0.20333084177E+02  0.88490626980E+03  0.88701936583E+03  0.00000000000E+00 0. -1.
         21    1    1    2  505  502  0.51041075831E+02 -0.17886629137E+02  0.90545418661E+00  0.54091984352E+02  0.00000000000E+00 0. -1.
         21    1    1    2  506  501 -0.15087962132E+02  0.92692343538E+02 -0.14576889843E+02  0.95036850060E+02  0.00000000000E+00 0. -1.
<scales pt_clust_3="70.61201" pt_clust_4="60.55072" pt_clust_5="54.08441" pt_clust_6="14000.00000"></scales>
<clustering>
<clus scale="   54.084">  2  5  1 -1</clus>
<clus scale="   60.551">  1  4  2 -1</clus>
<clus scale="   70.612">  1  3  2 -1</clus>
<clus scale="   60.551">  1  3  2 -1</clus>
</clustering>
</event>
<event>
 6    0  0.9315069E+002  0.4304973E+03  0.7546771E-02  0.1033703E+00
         21   -1    0    0  505  501  0.00000000000E+00  0.00000000000E+00  0.28461838567E+03  0.28461838567E+03  0.00000000000E+00 0.  1.
         21   -1    0    0  506  502 -0.00000000000E+00 -0.00000000000E+00 -0.95415782043E+03  0.95415782043E+03  0.00000000000E+00 0. -1.
         21    1    1    2  503  502  0.19623716086E+03 -0.56278943448E+02 -0.80665043735E+02  0.21950670163E+03  0.00000000000E+00 0.  1.
         21    1    1    2  504  501 -0.48665218835E+02  0.30800871884E+02  0.24818605278E+02  0.62713319167E+02  0.00000000000E+00 0. -1.
         21    1    1    2  505  503  0.23589339120E+03 -0.12199520373E+03 -0.69178235521E+02  0.27443423623E+03  0.00000000000E+00 0.  1.
         21    1    1    2  506  504 -0.38346533322E+03  0.14747327529E+03 -0.54451476078E+03  0.68212194908E+03  0.00000000000E+00 0. -1.
<scales pt_clust_3="48.07142" pt_clust_4="57.59338" pt_clust_5="48.07142" pt_clust_6="426.99156"></scales>
<clustering>
<clus scale="   48.071">  3  5 -1 -1</clus>
<clus scale="   57.593">  1  4  2 -1</clus>
<clus scale="  426.992">  2  6  1 -1</clus>
<clus scale="   57.593">  1  3  2 -1</clus>
</clustering>
</event>
<event>
 6    0  0.9315069E+002  0.2025192E+03  0.7546771E-02  0.1147631E+00
         21   -1    0    0  505  501  0.00000000000E+00  0.00000000000E+00  0.91780470820E+03  0.91780470820E+03  0.00000000000E+00 0.  1.
         21   -1    0    0  504  502 -0.00000000000E+00 -0.00000000000E+00 -0.12877954254E+03  0.12877954254E+03  0.00000000000E+00 0.  1.
         21    1    1    2  503  506 -0.14971593113E+02  0.24829504156E+03  0.31320633578E+03  0.39996597985E+03  0.00000000000E+00 0.  1.
         21    1    1    2  504  503 -0.16915514412E+02 -0.74222693655E+02 -0.33696953713E+02  0.83250390814E+02  0.00000000000E+00 0.  1.
         21    1    1    2  505  502 -0.51895318796E+02 -0.89478135615E+01  0.14991029337E+03  0.15889079123E+03  0.00000000000E+00 0. -1.
         21    1    1    2  506  501  0.83782426321E+02 -0.16512453434E+03  0.35960549023E+03  0.40447708885E+03  0.00000000000E+00 0.  1.
<scales pt_clust_3="14000.00000" pt_clust_4="76.79945" pt_clust_5="52.66106" pt_clust_6="202.51923"></scales>
<clustering>
<clus scale="   52.661">  1  5  2 -1</clus>
<clus scale="   76.799">  2  4  1 -1</clus>
<clus scale="  202.519">  1  6  2 -1</clus>
<clus scale="   52.661">  1  3  2 -1</clus>
</clustering>
</event>
<event>
 6    0  0.9315069E+002  0.1139648E+03  0.7546771E-02  0.1253399E+00
         21   -1    0    0  503  501  0.00000000000E+00  0.00000000000E+00  0.21822152053E+03  0.21822152053E+03  0.00000000000E+00 0. -1.
         21   -1    0    0  504  502 -0.00000000000E+00 -0.00000000000E+00 -0.24297087903E+03  0.24297087903E+03  0.00000000000E+00 0. -1.
         21    1    1    2  503  502  0.39495586125E+02 -0.72176107337E+01  0.80014495299E+02  0.89522704863E+02  0.00000000000E+00 0. -1.
         21    1    1    2  504  505  0.37227714176E+02 -0.49489285880E+02 -0.86537015252E+02  0.10641309660E+03  0.00000000000E+00 0. -1.
         21    1    1    2  505  506 -0.14133114757E+03 -0.17161552282E+02 -0.65045246705E+02  0.15652442707E+03  0.00000000000E+00 0. -1.
         21    1    1    2  506  501  0.64607847273E+02  0.73868448896E+02  0.46818408160E+02  0.10873217102E+03  0.00000000000E+00 0. -1.
<scales pt_clust_3="40.14966" pt_clust_4="64.15776" pt_clust_5="113.96475" pt_clust_6="14000.00000"></scales>
<clustering>
<clus scale="   40.150">  1  3  2 -1</clus>
<clus scale="   64.158">  2  4  1 -1</clus>
<clus scale="  113.965">  2  5  1 -1</clus>
<clus scale="   40.150">  1  3  2 -1</clus>
</clustering>
</event>
<event>
 6    0  0.9315069E+002  0.8979671E+02  0.7546771E-02  0.1303345E+00
         21   -1    0    0  505  501  0.00000000000E+00  0.00000000000E+00  0.26301279412E+03  0.26301279412E+03  0.00000000000E+00 0.  1.
         21   -1    0    0  506  502 -0.00000000000E+00 -0.00000000000E+00 -0.11647355552E+04  0.11647355552E+04  0.00000000000E+00 0.  1.
         21    1    1    2  503  502  0.33345152022E+02 -0.52043955759E+02 -0.83136089489E+03  0.83365545044E+03  0.00000000000E+00 0.  1.
         21    1    1    2  504  503 -0.70718533158E+02 -0.33317494558E+02 -0.27621038359E+03  0.28705982369E+03  0.00000000000E+00 0.  1.
         21    1    1    2  505  504  0.54841959218E+02  0.11350806072E+03  0.23252617091E+03  0.26449979300E+03  0.00000000000E+00 0.  1.
         21    1    1    2  506  501 -0.17468578082E+02 -0.28146610399E+02 -0.26677653508E+02  0.42533282190E+02  0.00000000000E+00 0. -1.
<scales pt_clust_3="61.87432" pt_clust_4="14000.00000" pt_clust_5="89.79671" pt_clust_6="33.12677"></scales>
<clustering>
<clus scale="   33.127">  1  6  2 -1</clus>
<clus scale="   61.874">  2  3  1 -1</clus>
<clus scale="   89.797">  1  5  2 -1</clus>
<clus scale="   33.127">  1  3  2 -1</clus>
</clustering>
</event>
<event>
 6    0  0.9315069E+002  0.1389045E+03  0.7546771E-02  0.1214811E+00
         21   -1    0    0  506  501  0.00000000000E+00  0.00000000000E+00  0.52898940274E+03  0.52898940274E+03  0.00000000000E+00 0. -1.
         21   -1    0    0  504  502 -0.00000000000E+00 -0.00000000000E+00 -0.11885121838E+03  0.11885121838E+03  0.00000000000E+00 0. -1.
         21    1    1    2  503  501 -0.95808503818E+01  0.50001373890E+02  0.14925318850E+03  0.15769731882E+03  0.00000000000E+00 0. -1.
         21    1    1    2  504  503  0.12930179825E+03  0.39539491949E+02  0.29312090467E+03  0.32280364188E+03  0.00000000000E+00 0. -1.
         21    1    1    2  505  502 -0.37490793324E+02 -0.63896011430E+01  0.15446022291E+02  0.41048339691E+02  0.00000000000E+00 0.  1.
         21    1    1    2  506  505 -0.82230154547E+02 -0.83151264696E+02 -0.47681931107E+02  0.12629132073E+03  0.00000000000E+00 0. -1.
<scales pt_clust_3="50.96454" pt_clust_4="138.90453" pt_clust_5="38.03139" pt_clust_6="14000.00000"></scales>
<clustering>
<clus scale="   38.031">  2  5  1 -1</clus>
<clus scale="   50.965">  1  3  2 -1</clus>
<clus scale="  138.905">  1  4  2 -1</clus>
<clus scale="   50.965">  1  3  2 -1</clus>
</clustering>
</event>
<event>
 6    0  0.9315069E+002  0.1406818E+03  0.7546771E-02  0.1212414E+00
         21   -1    0    0  506  501  0.00000000000E+00  0.00000000000E+00  0.76436823774E+03  0.76436823774E+03  0.00000000000E+00 0.  1.
         21   -1    0    0  504  502 -0.00000000000E+00 -0.00000000000E+00 -0.36360395780E+03  0.36360395780E+03  0.00000000000E+00 0. -1.
         21    1    1    2  503  501 -0.77679605618E+02  0.20337914977E+02  0.26558565699E+03  0.27745899357E+03  0.00000000000E+00 0.  1.
         21    1    1    2  504  503  0.12092287503E+03  0.64948914445E+02 -0.33880356638E+03  0.36555240361E+03  0.00000000000E+00 0. -1.
         21    1    1    2  505  502 -0.46176220163E+01 -0.48694824961E+02  0.25066795914E+03  0.25539564238E+03  0.00000000000E+00 0.  1.
         21    1    1    2  506  505 -0.38625647397E+02 -0.36592004462E+02  0.22331423020E+03  0.22956515597E+03  0.00000000000E+00 0.  1.
<scales pt_clust_3="80.29789" pt_clust_4="135.67363" pt_clust_5="35.67019" pt_clust_6="35.67019"></scales>
<clustering>
<clus scale="   35.670">  5  6 -1 -1</clus>
<clus scale="   80.298">  1  3  2 -1</clus>
<clus scale="  135.674">  2  4  1 -1</clus>
<clus scale="   80.298">  1  3  2 -1</clus>
</clustering>
</event>
<event>
 6    0  0.9315069E+002  0.1724185E+03  0.7546771E-02  0.1175349E+00
         21   -1    0    0  504  501  0.00000000000E+00  0.00000000000E+00  0.91159081796E+03  0.91159081796E+03  0.00000000000E+00 0.  1.
         21   -1    0    0  506  502 -0.00000000000E+00 -0.00000000000E+00 -0.36114478724E+03  0.36114478724E+03  0.00000000000E+00 0.  1.
         21    1    1    2  503  501 -0.11750087781E+03  0.13218025329E+03  0.67159876022E+03  0.69449475907E+03  0.00000000000E+00 0.  1.
         21    1    1    2  504  505  0.53818044381E+02 -0.16005317844E+03  0.16159052536E+03  0.23371970331E+03  0.00000000000E+00 0.  1.
         21    1    1    2  505  502  0.35734103501E+02  0.14584440949E+02  0.17719426655E+02  0.42468931606E+02  0.00000000000E+00 0.  1.
         21    1    1    2  506  503  0.27948729926E+02  0.13288484197E+02 -0.30046268151E+03  0.30205221121E+03  0.00000000000E+00 0.  1.
<scales pt_clust_3="14000.00000" pt_clust_4="172.41848" pt_clust_5="44.98175" pt_clust_6="30.94698"></scales>
<clustering>
<clus scale="   30.947">  2  6  1 -1</clus>
<clus scale="   44.982">  2  5  1 -1</clus>
<clus scale="  172.418">  2  4  1 -1</clus>
<clus scale="  172.418">  1  3  2 -1</clus>
</clustering>
</event>
<event>
 6    0  0.9315069E+002  0.9138097E+02  0.7546771E-02  0.1299542E+00
         21   -1    0    0  504  501  0.00000000000E+00  0.00000000000E+00  0.80078814023E+02  0.80078814023E+02  0.00000000000E+00 0. -1.
         21   -1    0    0  506  502 -0.00000000000E+00 -0.00000000000E+00 -0.76435435431E+03  0.76435435431E+03  0.00000000000E+00 0.  1.
         21    1    1    2  503  502 -0.15258821808E+02 -0.63471691805E+02 -0.16949285820E+03  0.18162961290E+03  0.00000000000E+00 0. -1.
         21    1    1    2  504  503  0.70094680252E+02 -0.35415329304E+02  0.44578817272E+02  0.90303824386E+02  0.00000000000E+00 0. -1.
         21    1    1    2  505  501 -0.24920522997E+02  0.78682706294E+02 -0.32202608835E+03  0.33243465871E+03  0.00000000000E+00 0.  1.
         21    1    1    2  506  505 -0.29915335447E+02  0.20204314816E+02 -0.23733541101E+03  0.24006507233E+03  0.00000000000E+00 0. -1.
<scales pt_clust_3="65.28007" pt_clust_4="79.15454" pt_clust_5="30.19858" pt_clust_6="30.19858"></scales>
<clustering>
<clus scale="   30.199">  5  6 -1 -1</clus>
<clus scale="   65.280">  2  3  1 -1</clus>
<clus scale="   79.155">  1  4  2 -1</clus>
<clus scale="   79.155">  1  3  2 -1</clus>
</clustering>
</event>
<event>
 6    0  0.9315069E+002  0.1070875E+03  0.7546771E-02  0.1266060E+00
         21   -1    0    0  504  501  0.00000000000E+00  0.00000000000E+00  0.49638958245E+03  0.49638958245E+03  0.00000000000E+00 0. -1.
         21   -1    0    0  503  502 -0.00000000000E+00 -0.00000000000E+00 -0.54572263373E+02  0.54572263373E+02  0.00000000000E+00 0. -1.
         21    1    1    2  503  501  0.44019726166E+02  0.82634306037E+02  0.60899464777E+02  0.11169113499E+03  0.00000000000E+00 0. -1.
         21    1    1    2  504  505 -0.14192976833E+02  0.39844569468E+02  0.12707048562E+03  0.13392512320E+03  0.00000000000E+00 0. -1.
         21    1    1    2  505  506 -0.67257705487E+02 -0.10789440646E+03  0.21296034652E+03  0.24802602904E+03  0.00000000000E+00 0. -1.
         21    1    1    2  506  502  0.37430956154E+02 -0.14584469050E+02  0.40887022160E+02  0.57319558592E+02  0.00000000000E+00 0. -1.
<scales pt_clust_3="14000.00000" pt_clust_4="40.41493" pt_clust_5="107.08750" pt_clust_6="40.17192"></scales>
<clustering>
<clus scale="   40.172">  2  6  1 -1</clus>
<clus scale="   40.415">  1  4  2 -1</clus>
<clus scale="  107.088">  1  5  2 -1</clus>
<clus scale="   40.415">  1  3  2 -1</clus>
</clustering>
</event>
<event>
 6    0  0.9315069E+002  0.2608057E+03  0.7546771E-02  0.1106660E+00
         21   -1    0    0  504  501  0.00000000000E+00  0.00000000000E+00  0.14056698679E+04  0.14056698679E+04  0.00000000000E+00 0. -1.
         21   -1    0    0  505  502 -0.00000000000E+00 -0.00000000000E+00 -0.21603333166E+04  0.21603333166E+04  0.00000000000E+00 0. -1.
         21    1    1    2  503  501 -0.11546067865E+03  0.28452106080E+02  0.13335389642E+04  0.13388304074E+04  0.00000000000E+00 0. -1.
         21    1    1    2  504  506  0.37862641104E+02  0.66100432800E+02 -0.66273260684E+01  0.76464163231E+02  0.00000000000E+00 0.  1.
         21    1    1    2  505  503 -0.14868661543E+03 -0.22940778532E+03 -0.92736652381E+03  0.96682175765E+03  0.00000000000E+00 0. -1.
         21    1    1    2  506  502  0.22628465297E+03  0.13485524644E+03 -0.11542085630E+04  0.11838868563E+04  0.00000000000E+00 0. -1.
<scales pt_clust_3="121.64824" pt_clust_4="76.17642" pt_clust_5="14000.00000" pt_clust_6="260.80570"></scales>
<clustering>
<clus scale="   76.176">  1  4  2 -1</clus>
<clus scale="  121.648">  1  3  2 -1</clus>
<clus scale="  260.806">  2  6  1 -1</clus>
<clus scale="   76.176">  1  3  2 -1</clus>
</clustering>
</event>
<event>
 6    0  0.9315069E+002  0.8065438E+02  0.7546771E-02  0.1327205E+00
         21   -1    0    0  506  501  0.00000000000E+00  0.00000000000E+00  0.84686435054E+03  0.84686435054E+03  0.00000000000E+00 0.  1.
         21   -1    0    0  505  502 -0.00000000000E+00 -0.00000000000E+00 -0.33387164024E+03  0.33387164024E+03  0.00000000000E+00 0.  1.
         21    1    1    2  503  501 -0.79917193359E+02 -0.10774497330E+02  0.78941820463E+03  0.79352627518E+03  0.00000000000E+00 0.  1.
         21    1    1    2  504  502  0.36531309538E+02 -0.15137943151E+02 -0.18121788602E+03  0.18548211804E+03  0.00000000000E+00 0.  1.
         21    1    1    2  505  503  0.74238422038E+02  0.58351171132E+02 -0.11829257358E+03  0.15135830153E+03  0.00000000000E+00 0.  1.
         21    1    1    2  506  504 -0.30852538217E+02 -0.32438730650E+02  0.23084965266E+02  0.50369296024E+02  0.00000000000E+00 0.  1.
<scales pt_clust_3="14000.00000" pt_clust_4="39.54357" pt_clust_5="80.65438" pt_clust_6="43.60855"></scales>
<clustering>
<clus scale="   39.544">  2  4  1 -1</clus>
<clus scale="   43.609">  2  6  1 -1</clus>
<clus scale="   80.654">  2  5  1 -1</clus>
<clus scale="   80.654">  1  3  2 -1</clus>
</clustering>
</event>
<event>
 6    0  0.9315069E+002  0.1747922E+03  0.7546771E-02  0.1172941E+00
         21   -1    0    0  503  501  0.00000000000E+00  0.00000000000E+00  0.22937590107E+04  0.22937590107E+04  0.00000000000E+00 0.  1.
         21   -1    0    0  505  502 -0.00000000000E+00 -0.00000000000E+00 -0.37466577612E+03  0.37466577612E+03  0.00000000000E+00 0.  1.
         21    1    1    2  503  502 -0.79370343334E+02 -0.17131219158E+03 -0.11136652343E+02  0.18913366546E+03  0.00000000000E+00 0.  1.
         21    1    1    2  504  506  0.62572892270E+02  0.51326626700E+02 -0.12458167439E+03  0.14856104149E+03  0.00000000000E+00 0.  1.
         21    1    1    2  505  504  0.57800640512E+01  0.86397543529E+02 -0.12421453179E+03  0.15141728626E+03  0.00000000000E+00 0.  1.
         21    1    1    2  506  501  0.11017387013E+02  0.33588021350E+02  0.21790260931E+04  0.21793127936E+04  0.00000000000E+00 0.  1.
<scales pt_clust_3="161.57022" pt_clust_4="64.22014" pt_clust_5="64.22014" pt_clust_6="35.34880"></scales>
<clustering>
<clus scale="   35.349">  1  6  2 -1</clus>
<clus scale="   64.220">  4  5 -1 -1</clus>
<clus scale="  161.570">  1  3  2 -1</clus>
<clus scale="   35.349">  1  3  2 -1</clus>
</clustering>
</event>
<event>
 6    0  0.9315069E+002  0.2219659E+03  0.7546771E-02  0.1132426E+00
         21   -1    0    0  506  501  0.00000000000E+00  0.00000000000E+00  0.36568518056E+03  0.36568518056E+03  0.00000000000E+00 0. -1.
         21   -1    0    0  505  502 -0.00000000000E+00 -0.00000000000E+00 -0.23016327966E+04  0.23016327966E+04  0.00000000000E+00 0.  1.
         21    1    1    2  503  502  0.79362693211E+02 -0.21004903452E+02 -0.10098858047E+03  0.13014736428E+03  0.00000000000E+00 0.  1.
         21    1    1    2  504  501  0.32681162628E+02 -0.23787754429E+02  0.31016285636E+03  0.31278573036E+03  0.00000000000E+00 0. -1.
         21    1    1    2  505  504 -0.20508688155E+03 -0.85739895153E+01 -0.20966596290E+04  0.21066835885E+04  0.00000000000E+00 0.  1.
         21    1    1    2  506  503  0.93043025713E+02  0.53366647397E+02 -0.48462262966E+02  0.11770129405E+03  0.00000000000E+00 0.  1.
<scales pt_clust_3="79.96700" pt_clust_4="40.42172" pt_clust_5="202.35239" pt_clust_6="79.96700"></scales>
<clustering>
<clus scale="   40.422">  1  4  2 -1</clus>
<clus scale="   79.967">  3  6 -1 -1</clus>
<clus scale="  202.352">  2  5  1 -1</clus>
<clus scale="   40.422">  1  3  2 -1</clus>
</clustering>
</event>
<event>
 6    0  0.9315069E+002  0.1357729E+03  0.7546771E-02  0.1219133E+00
         21   -1    0    0  504  501  0.00000000000E+00  0.00000000000E+00  0.38452347765E+03  0.38452347765E+03  0.00000000000E+00 0. -1.
         21   -1    0    0  503  502 -0.00000000000E+00 -0.00000000000E+00 -0.82135297033E+03  0.82135297033E+03  0.00000000000E+00 0. -1.
         21    1    1    2  503  505 -0.27237755770E+02 -0.39801700564E+02 -0.27483719753E+02  0.55510589608E+02  0.00000000000E+00 0. -1.
         21    1    1    2  504  506 -0.54212002998E+02  0.19462538704E+03 -0.28340819852E+03  0.34804911944E+03  0.00000000000E+00 0. -1.
         21    1    1    2  505  501  0.21315487900E+02 -0.80516122526E+02  0.32800695983E+03  0.33841655058E+03  0.00000000000E+00 0. -1.
         21    1    1    2  506  502  0.60134270868E+02 -0.74307563950E+02 -0.45394453423E+03  0.46390018835E+03  0.00000000000E+00 0. -1.
<scales pt_clust_3="48.22936" pt_clust_4="135.77292" pt_clust_5="83.50046" pt_clust_6="14000.00000"></scales>
<clustering>
<clus scale="   48.229">  2  3  1 -1</clus>
<clus scale="   83.500">  1  5  2 -1</clus>
<clus scale="  135.773">  1  4  2 -1</clus>
<clus scale="   83.500">  1  3  2 -1</clus>
</clustering>
</event>
<event>
 6    0  0.9315069E+002  0.1706072E+03  0.7546771E-02  0.1177216E+00
         21   -1    0    0  505  501  0.00000000000E+00  0.00000000000E+00  0.64216713027E+03  0.64216713027E+03  0.00000000000E+00 0. -1.
         21   -1    0    0  504  502 -0.00000000000E+00 -0.00000000000E+00 -0.23261664406E+03  0.23261664406E+03  0.00000000000E+00 0.  1.
         21    1    1    2  503  501 -0.68062761959E+01 -0.73024590825E+02 -0.58347943220E+02  0.93719788406E+02  0.00000000000E+00 0.  1.
         21    1    1    2  504  503  0.86742424065E+02 -0.94522679651E+02 -0.97060573836E+02  0.16087119100E+03  0.00000000000E+00 0.  1.
         21    1    1    2  505  506 -0.81303781250E+02  0.12576695390E+03  0.55808446031E+03  0.57782860467E+03  0.00000000000E+00 0. -1.
         21    1    1    2  506  502  0.13676333816E+01  0.41780316575E+02  0.68745429546E+01  0.42364190243E+02  0.00000000000E+00 0. -1.
<scales pt_clust_3="57.02159" pt_clust_4="57.02159" pt_clust_5="151.34046" pt_clust_6="41.80269"></scales>
<clustering>
<clus scale="   41.803">  2  6  1 -1</clus>
<clus scale="   57.022">  3  4 -1 -1</clus>
<clus scale="  151.340">  1  5  2 -1</clus>
<clus scale="  151.340">  1  3  2 -1</clus>
</clustering>
</event>
<event>
 6    0  0.9315069E+002  0.1613083E+03  0.7546771E-02  0.1187228E+00
         21   -1    0    0  505  501  0.00000000000E+00  0.00000000000E+00  0.17999294731E+04  0.17999294731E+04  0.00000000000E+00 0. -1.
         21   -1    0    0  503  502 -0.00000000000E+00 -0.00000000000E+00 -0.42766528246E+02  0.42766528246E+02  0.00000000000E+00 0. -1.
         21    1    1    2  503  504  0.16353039121E+03  0.75416811972E+02  0.23985769028E+03  0.29993598644E+03  0.00000000000E+00 0. -1.
         21    1    1    2  504  501  0.31659964410E+02  0.38521281187E+01  0.18072971364E+03  0.18352226468E+03  0.00000000000E+00 0. -1.
         21    1    1    2  505  506 -0.15102776975E+03 -0.95862379943E+02  0.12265314039E+04  0.12395072682E+04  0.00000000000E+00 0. -1.
         21    1    1    2  506  502 -0.44162585868E+02  0.16593439852E+02  0.11004413705E+03  0.11973048207E+03  0.00000000000E+00 0.  1.
<scales pt_clust_3="14000.00000" pt_clust_4="31.89345" pt_clust_5="161.30830" pt_clust_6="45.18077"></scales>
<clustering>
<clus scale="   31.893">  1  4  2 -1</clus>
<clus scale="   45.181">  2  6  1 -1</clus>
<clus scale="  161.308">  1  5  2 -1</clus>
<clus scale="   31.893">  1  3  2 -1</clus>
</clustering>
</event>
<event>
 6    0  0.9315069E+002  0.1234725E+03  0.7546771E-02  0.1237476E+00
         21   -1    0    0  505  501  0.00000000000E+00  0.00000000000E+00  0.11370577618E+04  0.11370577618E+04  0.00000000000E+00 0.  1.
         21   -1    0    0  503  502 -0.00000000000E+00 -0.00000000000E+00 -0.55714178240E+02  0.55714178240E+02  0.00000000000E+00 0.  1.
         21    1    1    2  503  504  0.51409874624E+02 -0.58523165274E+02  0.47240897668E+02  0.91102351753E+02  0.00000000000E+00 0. -1.
         21    1    1    2  504  501  0.14620976314E+03 -0.19492890622E+02  0.37322160406E+03  0.40131238874E+03  0.00000000000E+00 0.  1.
         21    1    1    2  505  506 -0.72708755476E+02  0.58785874591E+02  0.39574173441E+03  0.40663726161E+03  0.00000000000E+00 0.  1.
         21    1    1    2  506  502 -0.12491088229E+03  0.19230181305E+02  0.26513934740E+03  0.29371993791E+03  0.00000000000E+00 0.  1.
<scales pt_clust_3="77.89696" pt_clust_4="123.47247" pt_clust_5="81.14835" pt_clust_6="14000.00000"></scales>
<clustering>
<clus scale="   77.897">  2  3  1 -1</clus>
<clus scale="   81.148">  1  5  2 -1</clus>
<clus scale="  123.472">  1  4  2 -1</clus>
<clus scale="   81.148">  1  3  2 -1</clus>
</clustering>
</event>
<event>
 6    0  0.9315069E+002  0.1789906E+03  0.7546771E-02  0.1168784E+00
         21   -1    0    0  506  501  0.00000000000E+00  0.00000000000E+00  0.37277020321E+03  0.37277020321E+03  0.00000000000E+00 0.  1.
         21   -1    0    0  503  502 -0.00000000000E+00 -0.00000000000E+00 -0.26570554858E+03  0.26570554858E+03  0.00000000000E+00 0.  1.
         21    1    1    2  503  501 -0.16682461780E+03 -0.68407457991E+02  0.71301851524E+02  0.19389168998E+03  0.00000000000E+00 0.  1.
         21    1    1    2  504  502 -0.42016014776E+01  0.46075125399E+02 -0.16800507906E+03  0.17425922422E+03  0.00000000000E+00 0.  1.
         21    1    1    2  505  504  0.74885445789E+02  0.12134330979E+00  0.60023288918E+02  0.95972078897E+02  0.00000000000E+00 0.  1.
         21    1    1    2  506  505  0.96140773492E+02  0.22210989282E+02  0.14374459325E+03  0.17435275869E+03  0.00000000000E+00 0.  1.
<scales pt_clust_3="173.87403" pt_clust_4="46.26630" pt_clust_5="37.01642" pt_clust_6="37.01642"></scales>
<clustering>
<clus scale="   37.016">  5  6 -1 -1</clus>
<clus scale="   46.266">  2  4  1 -1</clus>
<clus scale="  173.874">  2  3  1 -1</clus>
<clus scale="  178.991">  1  3  2 -1</clus>
</clustering>
</event>
<event>
 6    0  0.9315069E+002  0.9686166E+02  0.7546771E-02  0.1287037E+00
         21   -1    0    0  505  501  0.00000000000E+00  0.00000000000E+00  0.14920768656E+04  0.14920768656E+04  0.00000000000E+00 0.  1.
         21   -1    0    0  504  502 -0.00000000000E+00 -0.00000000000E+00 -0.10965354122E+03  0.10965354122E+03  0.00000000000E+00 0.  1.
         21    1    1    2  503  502  0.41461733651E+02  0.30949844440E+02 -0.69559603247E+02  0.86692021733E+02  0.00000000000E+00 0.  1.
         21    1    1    2  504  506 -0.36351603880E+02 -0.12892572132E+03  0.12462766618E+03  0.18296266259E+03  0.00000000000E+00 0.  1.
         21    1    1    2  505  503  0.20978879498E+02  0.65617269413E+02  0.93160767585E+03  0.93415127315E+03  0.00000000000E+00 0.  1.
         21    1    1    2  506  501 -0.26089009268E+02  0.32358607469E+02  0.39574758556E+03  0.39792444931E+03  0.00000000000E+00 0. -1.
<scales pt_clust_3="51.72832" pt_clust_4="14000.00000" pt_clust_5="96.86166" pt_clust_6="41.56580"></scales>
<clustering>
<clus scale="   41.566">  1  6  2 -1</clus>
<clus scale="   51.728">  2  3  1 -1</clus>
<clus scale="   96.862">  1  5  2 -1</clus>
<clus scale="   41.566">  1  3  2 -1</clus>
</clustering>
</event>
<event>
 6    0  0.9315069E+002  0.2216390E+03  0.7546771E-02  0.1132667E+00
         21   -1    0    0  504  501  0.00000000000E+00  0.00000000000E+00  0.10765910497E+03  0.10765910497E+03  0.00000000000E+00 0.  1.
         21   -1    0    0  503  502 -0.00000000000E+00 -0.00000000000E+00 -0.17596951181E+04  0.17596951181E+04  0.00000000000E+00 0.  1.
         21    1    1    2  503  505  0.78806613394E+02 -0.68972397528E+02 -0.10516902923E+04  0.10568917375E+04  0.00000000000E+00 0.  1.
         21    1    1    2  504  506  0.35140762837E+02 -0.13348959709E+02  0.89042810566E+01  0.38630999977E+02  0.00000000000E+00 0.  1.
         21    1    1    2  505  501 -0.45254467064E+02 -0.17693643172E+03 -0.36915182302E+03  0.41185863606E+03  0.00000000000E+00 0.  1.
         21    1    1    2  506  502 -0.68692909167E+02  0.25925778895E+03 -0.24009817892E+03  0.35997284956E+03  0.00000000000E+00 0.  1.
<scales pt_clust_3="105.81976" pt_clust_4="37.59080" pt_clust_5="14000.00000" pt_clust_6="221.63899"></scales>
<clustering>
<clus scale="   37.591">  1  4  2 -1</clus>
<clus scale="  105.820">  2  3  1 -1</clus>
<clus scale="  221.639">  1  6  2 -1</clus>
<clus scale="   37.591">  1  3  2 -1</clus>
</clustering>
</event>
<event>
 6    0  0.9315069E+002  0.1000493E+03  0.7546771E-02  0.1280192E+00
         21   -1    0    0  506  501  0.00000000000E+00  0.00000000000E+00  0.17703969430E+04  0.17703969430E+04  0.00000000000E+00 0.  1.
         21   -1    0    0  503  502 -0.00000000000E+00 -0.00000000000E+00 -0.76463752772E+03  0.76463752772E+03  0.00000000000E+00 0. -1.
         21    1    1    2  503  504  0.87060966191E+02 -0.18169930702E+03 -0.32845321604E+03  0.38532553138E+03  0.00000000000E+00 0. -1.
         21    1    1    2  504  501 -0.81645361224E+02  0.57276673480E+02  0.16655173930E+04  0.16685007548E+04  0.00000000000E+00 0.  1.
         21    1    1    2  505  502  0.10961073786E+02  0.41690632908E+02 -0.38092509943E+03  0.38335647300E+03  0.00000000000E+00 0. -1.
         21    1    1    2  506  505 -0.16376678754E+02  0.82732000636E+02  0.49620337745E+02  0.97851711554E+02  0.00000000000E+00 0. -1.
<scales pt_clust_3="100.04927" pt_clust_4="14000.00000" pt_clust_5="43.10747" pt_clust_6="86.78972"></scales>
<clustering>
<clus scale="   43.107">  2  5  1 -1</clus>
<clus scale="   86.790">  2  6  1 -1</clus>
<clus scale="  100.049">  2  3  1 -1</clus>
<clus scale="  100.049">  1  3  2 -1</clus>
</clustering>
</event>
<event>
 6    0  0.9315069E+002  0.1206166E+03  0.7546771E-02  0.1242083E+00
         21   -1    0    0  506  501  0.00000000000E+00  0.00000000000E+00  0.53042616327E+03  0.53042616327E+03  0.00000000000E+00 0. -1.
         21   -1    0    0  505  502 -0.00000000000E+00 -0.00000000000E+00 -0.25300372341E+03  0.25300372341E+03  0.00000000000E+00 0. -1.
         21    1    1    2  503  504 -0.12619995103E+02  0.39225329983E+02 -0.20431187132E+01  0.41256091947E+02  0.00000000000E+00 0. -1.
         21    1    1    2  504  501 -0.15469147017E+02 -0.11988722642E+03  0.47396736720E+03  0.48913935309E+03  0.00000000000E+00 0. -1.
         21    1    1    2  505  503  0.20960440851E+02 -0.33258125566E+02 -0.18958599880E+02  0.43644833672E+02  0.00000000000E+00 0. -1.
         21    1    1    2  506  502  0.71287012686E+01  0.11392002200E+03 -0.17554320874E+03  0.20938960798E+03  0.00000000000E+00 0. -1.
<scales pt_clust_3="37.49907" pt_clust_4="120.61655" pt_clust_5="39.31212" pt_clust_6="14000.00000"></scales>
<clustering>
<clus scale="   39.312">  2  5  1 -1</clus>
<clus scale="   37.499">  2  3  1 -1</clus>
<clus scale="  120.617">  1  4  2 -1</clus>
<clus scale="  120.617">  1  3  2 -1</clus>
</clustering>
</event>
<event>
 6    0  0.9315069E+002  0.7871785E+02  0.7546771E-02  0.1332730E+00
         21   -1    0    0  503  501  0.00000000000E+00  0.00000000000E+00  0.46093729737E+03  0.46093729737E+03  0.00000000000E+00 0.  1.
         21   -1    0    0  504  502 -0.00000000000E+00 -0.00000000000E+00 -0.52657172984E+02  0.52657172984E+02  0.00000000000E+00 0.  1.
         21    1    1    2  503  506 -0.39220055461E+02  0.14520566421E+02  0.16145370806E+03  0.16678237151E+03  0.00000000000E+00 0.  1.
         21    1    1    2  504  501  0.75968520824E+02  0.44346315372E+02  0.14505167865E+03  0.16964021140E+03  0.00000000000E+00 0.  1.
         21    1    1    2  505  502  0.41027518347E+02 -0.36546544506E+02  0.11861465248E+02  0.56210332990E+02  0.00000000000E+00 0.  1.
         21    1    1    2  506  505 -0.77775983710E+02 -0.22320337287E+02  0.89913272427E+02  0.12096155446E+03  0.00000000000E+00 0.  1.
<scales pt_clust_3="41.82176" pt_clust_4="14000.00000" pt_clust_5="50.50915" pt_clust_6="78.71785"></scales>
<clustering>
<clus scale="   41.822">  1  3  2 -1</clus>
<clus scale="   50.509">  2  5  1 -1</clus>
<clus scale="   78.718">  2  6  1 -1</clus>
<clus scale="   41.822">  1  3  2 -1</clus>
</clustering>
</event>
<event>
 6    0  0.9315069E+002  0.1194179E+03  0.7546771E-02  0.1244060E+00
         21   -1    0    0  505  501  0.00000000000E+00  0.00000000000E+00  0.32553749120E+03  0.32553749120E+03  0.00000000000E+00 0. -1.
         21   -1    0    0  503  502 -0.00000000000E+00 -0.00000000000E+00 -0.74830599430E+03  0.74830599430E+03  0.00000000000E+00 0. -1.
         21    1    1    2  503  501 -0.29625273040E+01 -0.10874140277E+03  0.51341049303E+02  0.12028870516E+03  0.00000000000E+00 0. -1.
         21    1    1    2  504  506 -0.40541672547E+02  0.13092874768E+03  0.10431096158E+03  0.17224035790E+03  0.00000000000E+00 0. -1.
         21    1    1    2  505  504  0.10649579699E+02  0.28305101481E+02  0.97824023571E+02  0.10239205001E+03  0.00000000000E+00 0. -1.
         21    1    1    2  506  502  0.32854620152E+02 -0.50492446391E+02 -0.67624453756E+03  0.67892237243E+03  0.00000000000E+00 0. -1.
<scales pt_clust_3="119.41788" pt_clust_4="14000.00000" pt_clust_5="30.24223" pt_clust_6="60.13422"></scales>
<clustering>
<clus scale="   30.242">  1  5  2 -1</clus>
<clus scale="   60.134">  2  6  1 -1</clus>
<clus scale="  119.418">  1  3  2 -1</clus>
<clus scale="   30.242">  1  3  2 -1</clus>
</clustering>
</event>
<event>
 6    0  0.9315069E+002  0.1848136E+03  0.7546771E-02  0.1163224E+00
         21   -1    0    0  506  501  0.00000000000E+00  0.00000000000E+00  0.88814270975E+02  0.88814270975E+02  0.00000000000E+00 0. -1.
         21   -1    0    0  503  502 -0.00000000000E+00 -0.00000000000E+00 -0.75938202651E+03  0.75938202651E+03  0.00000000000E+00 0. -1.
         21    1    1    2  503  505 -0.26020094451E+02 -0.18346928554E+03 -0.22202530218E+03  0.28919415426E+03  0.00000000000E+00 0. -1.
         21    1    1    2  504  502 -0.20946783517E+02  0.22501779021E+02 -0.26509154643E+03  0.26686818054E+03  0.00000000000E+00 0. -1.
         21    1    1    2  505  501  0.16391054814E+02 -0.26721116324E+02 -0.57599203952E+01  0.31872580983E+02  0.00000000000E+00 0. -1.
         21    1    1    2  506  504  0.30575823154E+02  0.18768862284E+03 -0.17769098653E+03  0.26026138170E+03  0.00000000000E+00 0. -1.
<scales pt_clust_3="184.81356" pt_clust_4="30.74244" pt_clust_5="30.19954" pt_clust_6="14000.00000"></scales>
<clustering>
<clus scale="   30.742">  2  4  1 -1</clus>
<clus scale="   30.200">  1  5  2 -1</clus>
<clus scale="  184.814">  2  3  1 -1</clus>
<clus scale="   30.200">  1  3  2 -1</clus>
</clustering>
</event>
<event>
 6    0  0.9315069E+002  0.1266216E+03  0.7546771E-02  0.1232556E+00
         21   -1    0    0  503  501  0.00000000000E+00  0.00000000000E+00  0.60822701347E+03  0.60822701347E+03  0.00000000000E+00 0.  1.
         21   -1    0    0  501  502 -0.00000000000E+00 -0.00000000000E+00 -0.71673466580E+03  0.71673466580E+03  0.00000000000E+00 0.  1.
         21    1    1    2  503  504  0.28108082593E+02 -0.28043275164E+02  0.54226960383E+03  0.54372126391E+03  0.00000000000E+00 0.  1.
         21    1    1    2  504  506  0.10166999249E+03 -0.39297116565E+02 -0.49424946279E+01  0.10911223120E+03  0.00000000000E+00 0. -1.
         21    1    1    2  505  502 -0.29679600463E+02  0.27575669053E+02 -0.41972282408E+03  0.42167350552E+03  0.00000000000E+00 0.  1.
         21    1    1    2  506  505 -0.10009847462E+03  0.39764722676E+02 -0.22611193745E+03  0.25045467863E+03  0.00000000000E+00 0.  1.
<scales pt_clust_3="39.70503" pt_clust_4="14000.00000" pt_clust_5="39.91963" pt_clust_6="126.62164"></scales>
<clustering>
<clus scale="   39.705">  1  3  2 -1</clus>
<clus scale="   39.920">  2  5  1 -1</clus>
<clus scale="  126.622">  2  6  1 -1</clus>
<clus scale="   39.705">  1  3  2 -1</clus>
</clustering>
</event>
<event>
 6    0  0.9315069E+002  0.9575192E+02  0.7546771E-02  0.1289491E+00
         21   -1    0    0  504  501  0.00000000000E+00  0.00000000000E+00  0.29496753308E+03  0.29496753308E+03  0.00000000000E+00 0.  1.
         21   -1    0    0  505  502 -0.00000000000E+00 -0.00000000000E+00 -0.68116617191E+03  0.68116617191E+03  0.00000000000E+00 0. -1.
         21    1    1    2  503  501  0.37480642317E+02 -0.48572748115E+01  0.27277461861E+03  0.27538043544E+03  0.00000000000E+00 0.  1.
         21    1    1    2  504  502  0.17078319986E+02 -0.28255570492E+02 -0.87982427086E+02  0.93973154429E+02  0.00000000000E+00 0. -1.
         21    1    1    2  505  506  0.72191383395E+02  0.25413979091E+02 -0.25470782428E+03  0.26595778221E+03  0.00000000000E+00 0. -1.
         21    1    1    2  506  503 -0.12675034570E+03  0.76988662122E+01 -0.31628300607E+03  0.34082233290E+03  0.00000000000E+00 0. -1.
<scales pt_clust_3="37.83952" pt_clust_4="33.01585" pt_clust_5="14000.00000" pt_clust_6="95.75192"></scales>
<clustering>
<clus scale="   33.016">  2  4  1 -1</clus>
<clus scale="   37.840">  1  3  2 -1</clus>
<clus scale="   95.752">  1  6  2 -1</clus>
<clus scale="   37.840">  1  3  2 -1</clus>
</clustering>
</event>
<event>
 6    0  0.9315069E+002  0.9185911E+02  0.7546771E-02  0.1298411E+00
         21   -1    0    0  506  501  0.00000000000E+00  0.00000000000E+00  0.65087350539E+03  0.65087350539E+03  0.00000000000E+00 0. -1.
         21   -1    0    0  503  502 -0.00000000000E+00 -0.00000000000E+00 -0.22099318626E+03  0.22099318626E+03  0.00000000000E+00 0. -1.
         21    1    1    2  503  505 -0.13842359140E+02 -0.27618242213E+02  0.10034218032E+02  0.32481744734E+02  0.00000000000E+00 0. -1.
         21    1    1    2  504  501  0.10131738644E+03 -0.16840125829E+02  0.49810977600E+03  0.50858839112E+03  0.00000000000E+00 0. -1.
         21    1    1    2  505  504 -0.46524938591E+02  0.69144686423E+02  0.10917850147E+03  0.13735174827E+03  0.00000000000E+00 0.  1.
         21    1    1    2  506  502 -0.40950088708E+02 -0.24686318382E+02 -0.18744217637E+03  0.19344480753E+03  0.00000000000E+00 0. -1.
<scales pt_clust_3="30.89301" pt_clust_4="14000.00000" pt_clust_5="91.85911" pt_clust_6="73.07636"></scales>
<clustering>
<clus scale="   30.893">  2  3  1 -1</clus>
<clus scale="   73.076">  2  6  1 -1</clus>
<clus scale="   91.859">  2  5  1 -1</clus>
<clus scale="   91.859">  1  3  2 -1</clus>
</clustering>
</event>
<event>
 6    0  0.9315069E+002  0.2057786E+03  0.7546771E-02  0.1144953E+00
         21   -1    0    0  505  501  0.00000000000E+00  0.00000000000E+00  0.15682996608E+04  0.15682996608E+04  0.00000000000E+00 0.  1.
         21   -1    0    0  504  502 -0.00000000000E+00 -0.00000000000E+00 -0.11544780518E+03  0.11544780518E+03  0.00000000000E+00 0. -1.
         21    1    1    2  503  501  0.97069714850E+02 -0.39675122616E+01  0.30423507502E+03  0.31937008558E+03  0.00000000000E+00 0. -1.
         21    1    1    2  504  503 -0.18699783116E+03  0.80006171627E+02 -0.46613974468E+01  0.20344754848E+03  0.00000000000E+00 0. -1.
         21    1    1    2  505  506  0.70753734939E+02 -0.19998262769E+02  0.67806585832E+03  0.68204056312E+03  0.00000000000E+00 0.  1.
         21    1    1    2  506  502  0.19174381367E+02 -0.56040396596E+02  0.47521231975E+03  0.47888926883E+03  0.00000000000E+00 0.  1.
<scales pt_clust_3="97.15076" pt_clust_4="196.23016" pt_clust_5="55.60785" pt_clust_6="55.60785"></scales>
<clustering>
<clus scale="   55.608">  5  6 -1 -1</clus>
<clus scale="   97.151">  1  3  2 -1</clus>
<clus scale="  196.230">  2  4  1 -1</clus>
<clus scale="   97.151">  1  3  2 -1</clus>
</clustering>
</event>
<event>
 6    0  0.9315069E+002  0.2507594E+03  0.7546771E-02  0.1112826E+00
         21   -1    0    0  503  501  0.00000000000E+00  0.00000000000E+00  0.33591938028E+03  0.33591938028E+03  0.00000000000E+00 0.  1.
         21   -1    0    0  506  502 -0.00000000000E+00 -0.00000000000E+00 -0.52323641358E+03  0.52323641358E+03  0.00000000000E+00 0.  1.
         21    1    1    2  503  502  0.47848809233E+02  0.45294461757E+02  0.16292324410E+03  0.17574151552E+03  0.00000000000E+00 0.  1.
         21    1    1    2  504  501  0.18958003658E+03 -0.12794371208E+03  0.23120987097E+02  0.22987988989E+03  0.00000000000E+00 0.  1.
         21    1    1    2  505  504 -0.14642348113E+03  0.53574043105E+02 -0.27683927270E+03  0.31772629232E+03  0.00000000000E+00 0.  1.
         21    1    1    2  506  505 -0.91005364683E+02  0.29075207220E+02 -0.96521991788E+02  0.13580809613E+03  0.00000000000E+00 0.  1.
<scales pt_clust_3="65.88700" pt_clust_4="244.51756" pt_clust_5="43.52323" pt_clust_6="43.52323"></scales>
<clustering>
<clus scale="   43.523">  5  6 -1 -1</clus>
<clus scale="   65.887">  1  3  2 -1</clus>
<clus scale="  244.518">  1  4  2 -1</clus>
<clus scale="   65.887">  1  3  2 -1</clus>
</clustering>
</event>
<event>
 6    0  0.9315069E+002  0.1395219E+03  0.7546771E-02  0.1213974E+00
         21   -1    0    0  505  501  0.00000000000E+00  0.00000000000E+00  0.89577582944E+03  0.89577582944E+03  0.00000000000E+00 0. -1.
         21   -1    0    0  503  502 -0.00000000000E+00 -0.00000000000E+00 -0.54457663206E+03  0.54457663206E+03  0.00000000000E+00 0. -1.
         21    1    1    2  503  504 -0.85982014068E+02  0.85375790114E+02 -0.27281107709E+03  0.29850932324E+03  0.00000000000E+00 0. -1.
         21    1    1    2  504  501  0.12283203854E+03  0.21643117149E+02  0.73246151010E+03  0.74300470926E+03  0.00000000000E+00 0. -1.
         21    1    1    2  505  506  0.83527351723E+01 -0.76415929352E+02  0.13173722937E+03  0.15252494893E+03  0.00000000000E+00 0. -1.
         21    1    1    2  506  502 -0.45202759645E+02 -0.30602977911E+02 -0.24018846501E+03  0.24631348006E+03  0.00000000000E+00 0. -1.
<scales pt_clust_3="139.52191" pt_clust_4="14000.00000" pt_clust_5="77.76883" pt_clust_6="54.58784"></scales>
<clustering>
<clus scale="   54.588">  2  6  1 -1</clus>
<clus scale="   77.769">  1  5  2 -1</clus>
<clus scale="  139.522">  2  3  1 -1</clus>
<clus scale="   77.769">  1  3  2 -1</clus>
</clustering>
</event>
<event>
 6    0  0.9315069E+002  0.8903468E+02  0.7546771E-02  0.1305206E+00
         21   -1    0    0  506  501  0.00000000000E+00  0.00000000000E+00  0.18714787743E+03  0.18714787743E+03  0.00000000000E+00 0. -1.
         21   -1    0    0  504  502 -0.00000000000E+00 -0.00000000000E+00 -0.11889104977E+04  0.11889104977E+04  0.00000000000E+00 0. -1.
         21    1    1    2  503  501 -0.29372574077E+02  0.88802562302E+02  0.13150547601E+03  0.16137637188E+03  0.00000000000E+00 0. -1.
         21    1    1    2  504  503 -0.12361005112E+02  0.31921541664E+02 -0.42750522457E+02  0.54766654452E+02  0.00000000000E+00 0. -1.
         21    1    1    2  505  502 -0.49950280800E+02 -0.86577532531E+02 -0.10488066614E+04  0.10535587847E+04  0.00000000000E+00 0. -1.
         21    1    1    2  506  505  0.91683859989E+02 -0.34146571435E+02 -0.41710912412E+02  0.10635656415E+03  0.00000000000E+00 0. -1.
<scales pt_clust_3="14000.00000" pt_clust_4="34.23126" pt_clust_5="83.84027" pt_clust_6="89.03468"></scales>
<clustering>
<clus scale="   34.231">  2  4  1 -1</clus>
<clus scale="   83.840">  2  5  1 -1</clus>
<clus scale="   89.035">  2  6  1 -1</clus>
<clus scale="   89.035">  1  3  2 -1</clus>
</clustering>
</event>
<event>
 6    0  0.9315069E+002  0.1092081E+03  0.7546771E-02  0.1262043E+00
         21   -1    0    0  506  501  0.00000000000E+00  0.00000000000E+00  0.54533564144E+03  0.54533564144E+03  0.00000000000E+00 0.  1.
         21   -1    0    0  504  502 -0.00000000000E+00 -0.00000000000E+00 -0.35272415910E+03  0.35272415910E+03  0.00000000000E+00 0. -1.
         21    1    1    2  503  502 -0.92661329169E+02 -0.57025063420E+02 -0.31722632713E+03  0.33536625114E+03  0.00000000000E+00 0. -1.
         21    1    1    2  504  501  0.11281858154E+03  0.53040427365E+02  0.31679885478E+03  0.34044505235E+03  0.00000000000E+00 0.  1.
         21    1    1    2  505  503 -0.21940847901E+02  0.38144802170E+02  0.24687261613E+02  0.50456789683E+02  0.00000000000E+00 0.  1.
         21    1    1    2  506  505  0.17835955287E+01 -0.34160166115E+02  0.16835169307E+03  0.17179170737E+03  0.00000000000E+00 0.  1.
<scales pt_clust_3="109.20811" pt_clust_4="14000.00000" pt_clust_5="40.98044" pt_clust_6="34.20670"></scales>
<clustering>
<clus scale="   34.207">  1  6  2 -1</clus>
<clus scale="   40.980">  1  5  2 -1</clus>
<clus scale="  109.208">  2  3  1 -1</clus>
<clus scale="   34.207">  1  3  2 -1</clus>
</clustering>
</event>
<event>
 6    0  0.9315069E+002  0.1660826E+03  0.7546771E-02  0.1181996E+00
         21   -1    0    0  503  501  0.00000000000E+00  0.00000000000E+00  0.71709770302E+03  0.71709770302E+03  0.00000000000E+00 0. -1.
         21   -1    0    0  506  502 -0.00000000000E+00 -0.00000000000E+00 -0.76132692809E+02  0.76132692809E+02  0.00000000000E+00 0. -1.
         21    1    1    2  503  504 -0.36983142184E+01 -0.48227828504E+02  0.10742688035E+03  0.11781398725E+03  0.00000000000E+00 0. -1.
         21    1    1    2  504  502  0.91137276424E+02 -0.96429602437E+02  0.19837403296E+03  0.23865650700E+03  0.00000000000E+00 0. -1.
         21    1    1    2  505  501 -0.90250009353E+02  0.10856900797E+03  0.36403844639E+03  0.39045650735E+03  0.00000000000E+00 0. -1.
         21    1    1    2  506  505  0.28110471480E+01  0.36088422973E+02 -0.28874349492E+02  0.46303394231E+02  0.00000000000E+00 0. -1.
<scales pt_clust_3="42.36708" pt_clust_4="42.36708" pt_clust_5="150.32552" pt_clust_6="36.19774"></scales>
<clustering>
<clus scale="   36.198">  2  6  1 -1</clus>
<clus scale="   42.367">  3  4 -1 -1</clus>
<clus scale="  150.326">  1  5  2 -1</clus>
<clus scale="  150.326">  1  3  2 -1</clus>
</clustering>
</event>
<event>
 6    0  0.9315069E+002  0.2142584E+03  0.7546771E-02  0.1138237E+00
         21   -1    0    0  502  501  0.00000000000E+00  0.00000000000E+00  0.21517114317E+03  0.21517114317E+03  0.00000000000E+00 0.  1.
         21   -1    0    0  503  502 -0.00000000000E+00 -0.00000000000E+00 -0.38137356569E+03  0.38137356569E+03  0.00000000000E+00 0.  1.
         21    1    1    2  503  506  0.44929321453E+02  0.16979312819E+02 -0.91403829502E+02  0.10325502912E+03  0.00000000000E+00 0.  1.
         21    1    1    2  504  501  0.15293813275E+02 -0.21359971578E+03  0.84779306409E+02  0.23031775898E+03  0.00000000000E+00 0.  1.
         21    1    1    2  505  504 -0.50401220754E+02  0.11112963721E+03 -0.81179437925E+02  0.14656118334E+03  0.00000000000E+00 0.  1.
         21    1    1    2  506  505 -0.98219139738E+01  0.85490765755E+02 -0.78398461495E+02  0.11641073743E+03  0.00000000000E+00 0.  1.
<scales pt_clust_3="48.03063" pt_clust_4="210.95957" pt_clust_5="31.45169" pt_clust_6="31.45169"></scales>
<clustering>
<clus scale="   31.452">  5  6 -1 -1</clus>
<clus scale="   48.031">  2  3  1 -1</clus>
<clus scale="  210.960">  1  4  2 -1</clus>
<clus scale="  210.960">  1  3  2 -1</clus>
</clustering>
</event>
<event>
 6    0  0.9315069E+002  0.7839096E+02  0.7546771E-02  0.1333681E+00
         21   -1    0    0  504  501  0.00000000000E+00  0.00000000000E+00  0.74561683670E+02  0.74561683670E+02  0.00000000000E+00 0.  1.
         21   -1    0    0  505  502 -0.00000000000E+00 -0.00000000000E+00 -0.47030265485E+03  0.47030265485E+03  0.00000000000E+00 0.  1.
         21    1    1    2  503  506  0.62522317638E+02  0.32417503068E+01 -0.27512974574E+03  0.28216294253E+03  0.00000000000E+00 0.  1.
         21    1    1    2  504  502  0.33859235950E+02  0.24475244704E+01 -0.17571968350E+02  0.38225806817E+02  0.00000000000E+00 0.  1.
         21    1    1    2  505  503 -0.16306715616E+02  0.62528867438E+02 -0.10021672948E+03  0.11924412398E+03  0.00000000000E+00 0.  1.
         21    1    1    2  506  501 -0.80074837972E+02 -0.68218142215E+02 -0.28225276130E+01  0.10523146519E+03  0.00000000000E+00 0.  1.
<scales pt_clust_3="14000.00000" pt_clust_4="33.94758" pt_clust_5="63.89703" pt_clust_6="78.39096"></scales>
<clustering>
<clus scale="   33.948">  1  4  2 -1</clus>
<clus scale="   63.897">  2  5  1 -1</clus>
<clus scale="   78.391">  1  6  2 -1</clus>
<clus scale="   33.948">  1  3  2 -1</clus>
</clustering>
</event>
<event>
 6    0  0.9315069E+002  0.8012518E+02  0.7546771E-02  0.1328697E+00
         21   -1    0    0  506  501  0.00000000000E+00  0.00000000000E+00  0.84403652312E+03  0.84403652312E+03  0.00000000000E+00 0. -1.
         21   -1    0    0  505  502 -0.00000000000E+00 -0.00000000000E+00 -0.26729544957E+03  0.26729544957E+03  0.00000000000E+00 0. -1.
         21    1    1    2  503  502  0.11701682263E+03  0.25704627096E+02 -0.21580233484E+03  0.24682850799E+03  0.00000000000E+00 0. -1.
         21    1    1    2  504  501 -0.45398176570E+02 -0.15274143605E+02  0.75869656351E+03  0.76020705691E+03  0.00000000000E+00 0. -1.
         21    1    1    2  505  504 -0.26100338774E+02 -0.24728642600E+02 -0.12220660152E+02  0.37974701888E+02  0.00000000000E+00 0.  1.
         21    1    1    2  506  503 -0.45518307291E+02  0.14298159109E+02  0.46067505034E+02  0.66321705894E+02  0.00000000000E+00 0. -1.
<scales pt_clust_3="80.12518" pt_clust_4="48.00054" pt_clust_5="35.95460" pt_clust_6="14000.00000"></scales>
<clustering>
<clus scale="   35.955">  2  5  1 -1</clus>
<clus scale="   48.001">  1  4  2 -1</clus>
<clus scale="   80.125">  2  3  1 -1</clus>
<clus scale="   48.001">  1  3  2 -1</clus>
</clustering>
</event>
<event>
 6    0  0.9315069E+002  0.7890832E+02  0.7546771E-02  0.1332178E+00
         21   -1    0    0  503  501  0.00000000000E+00  0.00000000000E+00  0.13716346619E+03  0.13716346619E+03  0.00000000000E+00 0. -1.
         21   -1    0    0  506  502 -0.00000000000E+00 -0.00000000000E+00 -0.19782393986E+03  0.19782393986E+03  0.00000000000E+00 0. -1.
         21    1    1    2  503  502 -0.17298551333E+02  0.30328259657E+02 -0.51619309772E+02  0.62318507310E+02  0.00000000000E+00 0. -1.
         21    1    1    2  504  505 -0.98208443888E+02  0.39624719858E+01  0.22507375747E+00  0.98288607139E+02  0.00000000000E+00 0. -1.
         21    1    1    2  505  501  0.59722952181E+02 -0.47057724215E+02  0.50779811824E+02  0.91432213768E+02  0.00000000000E+00 0. -1.
         21    1    1    2  506  504  0.55784043040E+02  0.12766992572E+02 -0.60046049477E+02  0.82948077826E+02  0.00000000000E+00 0. -1.
<scales pt_clust_3="34.91480" pt_clust_4="78.90832" pt_clust_5="14000.00000" pt_clust_6="54.79403"></scales>
<clustering>
<clus scale="   34.915">  2  3  1 -1</clus>
<clus scale="   54.794">  2  6  1 -1</clus>
<clus scale="   78.908">  2  4  1 -1</clus>
<clus scale="   78.908">  1  3  2 -1</clus>
</clustering>
</event>
<event>
 6    0  0.9315069E+002  0.1343275E+03  0.7546771E-02  0.1221172E+00
         21   -1    0    0  505  501  0.00000000000E+00  0.00000000000E+00  0.77355704517E+03  0.77355704517E+03  0.00000000000E+00 0.  1.
         21   -1    0    0  504  502 -0.00000000000E+00 -0.00000000000E+00 -0.55328786145E+02  0.55328786145E+02  0.00000000000E+00 0.  1.
         21    1    1    2  503  501  0.31589138933E+02 -0.47125534702E+01  0.24952394263E+03  0.25155969432E+03  0.00000000000E+00 0. -1.
         21    1    1    2  504  506  0.30794092161E+02  0.40369372539E+01  0.24375500468E+02  0.39480856088E+02  0.00000000000E+00 0. -1.
         21    1    1    2  505  502 -0.13205935889E+03  0.92734122532E+02  0.36111287091E+03  0.39552723963E+03  0.00000000000E+00 0.  1.
         21    1    1    2  506  503  0.69676127792E+02 -0.92058506315E+02  0.83215945019E+02  0.14231804128E+03  0.00000000000E+00 0.  1.
<scales pt_clust_3="32.57543" pt_clust_4="31.05758" pt_clust_5="134.32751" pt_clust_6="14000.00000"></scales>
<clustering>
<clus scale="   31.058">  2  4  1 -1</clus>
<clus scale="   32.575">  1  3  2 -1</clus>
<clus scale="  134.328">  1  5  2 -1</clus>
<clus scale="   32.575">  1  3  2 -1</clus>
</clustering>
</event>
<event>
 6    0  0.9315069E+002  0.2334083E+03  0.7546771E-02  0.1124264E+00
         21   -1    0    0  504  501  0.00000000000E+00  0.00000000000E+00  0.95910742564E+03  0.95910742564E+03  0.00000000000E+00 0.  1.
         21   -1    0    0  503  502 -0.00000000000E+00 -0.00000000000E+00 -0.21553251956E+03  0.21553251956E+03  0.00000000000E+00 0.  1.
         21    1    1    2  503  501  0.77110466096E+02 -0.79473549274E+02  0.42443914949E+03  0.43864639590E+03  0.00000000000E+00 0.  1.
         21    1    1    2  504  506 -0.31305152218E+02  0.74280808401E+02  0.18234182403E+03  0.19936446986E+03  0.00000000000E+00 0. -1.
         21    1    1    2  505  502 -0.96668036875E+02 -0.21644281682E+03 -0.50099043252E+02  0.24228519649E+03  0.00000000000E+00 0.  1.
         21    1    1    2  506  505  0.50862722997E+02  0.22163555769E+03  0.18689297581E+03  0.29434388295E+03  0.00000000000E+00 0.  1.
<scales pt_clust_3="70.48601" pt_clust_4="80.60801" pt_clust_5="233.40835" pt_clust_6="14000.00000"></scales>
<clustering>
<clus scale="   80.608">  1  4  2 -1</clus>
<clus scale="   70.486">  1  3  2 -1</clus>
<clus scale="  233.408">  2  5  1 -1</clus>
<clus scale="   80.608">  1  3  2 -1</clus>
</clustering>
</event>
<event>
 6    0  0.9315069E+002  0.9757799E+02  0.7546771E-02  0.1285473E+00
         21   -1    0    0  506  501  0.00000000000E+00  0.00000000000E+00  0.48197481118E+02  0.48197481118E+02  0.00000000000E+00 0.  1.
         21   -1    0    0  503  502 -0.00000000000E+00 -0.00000000000E+00 -0.18519410362E+04  0.18519410362E+04  0.00000000000E+00 0. -1.
         21    1    1    2  503  504 -0.27155816236E+02 -0.61617509500E+02 -0.14360056732E+04  0.14375835451E+04  0.00000000000E+00 0. -1.
         21    1    1    2  504  501  0.79584067525E+02  0.93697046728E+02 -0.50164676654E+02  0.13277520534E+03  0.00000000000E+00 0.  1.
         21    1    1    2  505  502 -0.53356096301E+02  0.24546722524E+01 -0.21542563565E+03  0.22194842402E+03  0.00000000000E+00 0. -1.
         21    1    1    2  506  505  0.92784501205E+00 -0.34534209480E+02 -0.10214756958E+03  0.10783134280E+03  0.00000000000E+00 0. -1.
<scales pt_clust_3="97.57799" pt_clust_4="14000.00000" pt_clust_5="53.28939" pt_clust_6="34.54667"></scales>
<clustering>
<clus scale="   34.547">  1  6  2 -1</clus>
<clus scale="   53.289">  2  5  1 -1</clus>
<clus scale="   97.578">  2  3  1 -1</clus>
<clus scale="   34.547">  1  3  2 -1</clus>
</clustering>
</event>
<event>
 6    0  0.9315069E+002  0.1409078E+03  0.7546771E-02  0.1212113E+00
         21   -1    0    0  505  501  0.00000000000E+00  0.00000000000E+00  0.73355041080E+03  0.73355041080E+03  0.00000000000E+00 0.  1.
         21   -1    0    0  504  502 -0.00000000000E+00 -0.00000000000E+00 -0.28540304190E+03  0.28540304190E+03  0.00000000000E+00 0.  1.
         21    1    1    2  503  506 -0.95453523314E+02  0.38803908507E+02  0.41158053086E+03  0.42428251415E+03  0.00000000000E+00 0.  1.
         21    1    1    2  504  503  0.60205655868E+02 -0.32186486849E+02 -0.21074018697E+03  0.22152227278E+03  0.00000000000E+00 0.  1.
         21    1    1    2  505  502  0.73932117096E+02  0.26120064383E+01 -0.39318067920E+02  0.83777628165E+02  0.00000000000E+00 0.  1.
         21    1    1    2  506  501 -0.38684249651E+02 -0.92294280967E+01  0.28662509292E+03  0.28937103761E+03  0.00000000000E+00 0.  1.
<scales pt_clust_3="33.70153" pt_clust_4="68.26925" pt_clust_5="130.04733" pt_clust_6="33.70153"></scales>
<clustering>
<clus scale="   33.702">  3  6 -1 -1</clus>
<clus scale="   68.269">  2  4  1 -1</clus>
<clus scale="  130.047">  2  5  1 -1</clus>
<clus scale="  140.908">  1  3  2 -1</clus>
</clustering>
</event>
<event>
 6    0  0.9315069E+002  0.9262974E+02  0.7546771E-02  0.1296606E+00
         21   -1    0    0  504  501  0.00000000000E+00  0.00000000000E+00  0.12722540974E+03  0.12722540974E+03  0.00000000000E+00 0.  1.
         21   -1    0    0  501  502 -0.00000000000E+00 -0.00000000000E+00 -0.44346617199E+03  0.44346617199E+03  0.00000000000E+00 0.  1.
         21    1    1    2  503  505 -0.51912258529E+01 -0.46633286337E+02 -0.27489719016E+02  0.54381034120E+02  0.00000000000E+00 0.  1.
         21    1    1    2  504  506  0.43400928222E+02 -0.78786395164E+02  0.13879111858E+02  0.91014099894E+02  0.00000000000E+00 0.  1.
         21    1    1    2  505  502 -0.16250295151E+02  0.30811906439E+02 -0.32398608575E+03  0.32585338641E+03  0.00000000000E+00 0.  1.
         21    1    1    2  506  503 -0.21959407218E+02  0.94607775062E+02  0.21355930656E+02  0.99443061305E+02  0.00000000000E+00 0.  1.
<scales pt_clust_3="37.57973" pt_clust_4="92.62974" pt_clust_5="34.83455" pt_clust_6="14000.00000"></scales>
<clustering>
<clus scale="   34.835">  2  5  1 -1</clus>
<clus scale="   37.580">  2  3  1 -1</clus>
<clus scale="   92.630">  1  4  2 -1</clus>
<clus scale="   92.630">  1  3  2 -1</clus>
</clustering>
</event>
<event>
 6    0  0.9315069E+002  0.1436861E+03  0.7546771E-02  0.1208453E+00
         21   -1    0    0  506  501  0.00000000000E+00  0.00000000000E+00  0.96494311325E+02  0.96494311325E+02  0.00000000000E+00 0. -1.
         21   -1    0    0  505  502 -0.00000000000E+00 -0.00000000000E+00 -0.11408844576E+04  0.11408844576E+04  0.00000000000E+00 0. -1.
         21    1    1    2  503  504 -0.82460015541E+02  0.15053773118E+03 -0.32862476147E+03  0.37074991102E+03  0.00000000000E+00 0. -1.
         21    1    1    2  504  501 -0.78370895862E+01 -0.82178741641E+02  0.28536896632E+02  0.87344833965E+02  0.00000000000E+00 0. -1.
         21    1    1    2  505  503  0.44319651781E+02  0.62856304477E+02 -0.41117193734E+03  0.41830313004E+03  0.00000000000E+00 0. -1.
         21    1    1    2  506  502  0.45977453347E+02 -0.13121529401E+03 -0.33313034407E+03  0.36098089387E+03  0.00000000000E+00 0. -1.
<scales pt_clust_3="143.68610" pt_clust_4="79.86241" pt_clust_5="76.90999" pt_clust_6="14000.00000"></scales>
<clustering>
<clus scale="   76.910">  2  5  1 -1</clus>
<clus scale="   79.862">  1  4  2 -1</clus>
<clus scale="  143.686">  1  3  2 -1</clus>
<clus scale="   79.862">  1  3  2 -1</clus>
</clustering>
</event>
<event>
 6    0  0.9315069E+002  0.1232452E+03  0.7546771E-02  0.1237838E+00
         21   -1    0    0  506  501  0.00000000000E+00  0.00000000000E+00  0.35846986678E+03  0.35846986678E+03  0.00000000000E+00 0. -1.
         21   -1    0    0  503  502 -0.00000000000E+00 -0.00000000000E+00 -0.49109228642E+03  0.49109228642E+03  0.00000000000E+00 0. -1.
         21    1    1    2  503  501  0.63572911724E+02  0.25277649320E+02 -0.59276479273E+02  0.90521686104E+02  0.00000000000E+00 0. -1.
         21    1    1    2  504  505  0.47596888313E+02 -0.24324252584E+02  0.15142497201E+02  0.55555632139E+02  0.00000000000E+00 0. -1.
         21    1    1    2  505  502  0.18538209340E+02  0.32956244263E+02 -0.38039146832E+03  0.38226620098E+03  0.00000000000E+00 0. -1.
         21    1    1    2  506  504 -0.12970800938E+03 -0.33909641000E+02  0.29190303075E+03  0.32121863397E+03  0.00000000000E+00 0. -1.
<scales pt_clust_3="123.24516" pt_clust_4="54.17850" pt_clust_5="37.81242" pt_clust_6="14000.00000"></scales>
<clustering>
<clus scale="   37.812">  2  5  1 -1</clus>
<clus scale="   54.178">  2  4  1 -1</clus>
<clus scale="  123.245">  2  3  1 -1</clus>
<clus scale="  123.245">  1  3  2 -1</clus>
</clustering>
</event>
<event>
 6    0  0.9315069E+002  0.1507009E+03  0.7546771E-02  0.1199614E+00
         21   -1    0    0  506  501  0.00000000000E+00  0.00000000000E+00  0.10807261253E+03  0.10807261253E+03  0.00000000000E+00 0.  1.
         21   -1    0    0  505  502 -0.00000000000E+00 -0.00000000000E+00 -0.74660290291E+03  0.74660290291E+03  0.00000000000E+00 0.  1.
         21    1    1    2  503  502  0.29230967864E+01 -0.43356868438E+02 -0.29801648636E+03  0.30116804060E+03  0.00000000000E+00 0. -1.
         21    1    1    2  504  501  0.38894601639E+02  0.43045844877E+02 -0.27999107242E+02  0.64418047193E+02  0.00000000000E+00 0.  1.
         21    1    1    2  505  504  0.13610450092E+03  0.54116535063E+02 -0.25577277736E+03  0.29474183310E+03  0.00000000000E+00 0.  1.
         21    1    1    2  506  503 -0.17792219935E+03 -0.53805511502E+02 -0.56741919410E+02  0.19434759455E+03  0.00000000000E+00 0.  1.
<scales pt_clust_3="43.45529" pt_clust_4="54.98695" pt_clust_5="150.70094" pt_clust_6="14000.00000"></scales>
<clustering>
<clus scale="   43.455">  2  3  1 -1</clus>
<clus scale="   54.987">  1  4  2 -1</clus>
<clus scale="  150.701">  2  5  1 -1</clus>
<clus scale="   54.987">  1  3  2 -1</clus>
</clustering>
</event>
<event>
 6    0  0.9315069E+002  0.8590074E+02  0.7546771E-02  0.1313094E+00
         21   -1    0    0  504  501  0.00000000000E+00  0.00000000000E+00  0.70884741730E+02  0.70884741730E+02  0.00000000000E+00 0. -1.
         21   -1    0    0  503  502 -0.00000000000E+00 -0.00000000000E+00 -0.49040576440E+03  0.49040576440E+03  0.00000000000E+00 0. -1.
         21    1    1    2  503  505 -0.35086904228E+02 -0.23005137769E+02 -0.26962341628E+03  0.27286830856E+03  0.00000000000E+00 0. -1.
         21    1    1    2  504  506 -0.34775284303E+02  0.58845130600E+01 -0.10119218331E+01  0.35284159025E+02  0.00000000000E+00 0. -1.
         21    1    1    2  505  501 -0.37228692692E+02 -0.41755445301E+02 -0.11247843186E+03  0.12562201402E+03  0.00000000000E+00 0. -1.
         21    1    1    2  506  502  0.10709088122E+03  0.58876070010E+02 -0.36407252695E+02  0.12751602452E+03  0.00000000000E+00 0. -1.
<scales pt_clust_3="42.74285" pt_clust_4="35.26965" pt_clust_5="14000.00000" pt_clust_6="85.90074"></scales>
<clustering>
<clus scale="   35.270">  1  4  2 -1</clus>
<clus scale="   42.743">  2  3  1 -1</clus>
<clus scale="   85.901">  1  6  2 -1</clus>
<clus scale="   35.270">  1  3  2 -1</clus>
</clustering>
</event>
<event>
 6    0  0.9315069E+002  0.1727900E+03  0.7546771E-02  0.1174969E+00
         21   -1    0    0  502  501  0.00000000000E+00  0.00000000000E+00  0.68795815290E+03  0.68795815290E+03  0.00000000000E+00 0.  1.
         21   -1    0    0  504  502 -0.00000000000E+00 -0.00000000000E+00 -0.45576693800E+03  0.45576693800E+03  0.00000000000E+00 0.  1.
         21    1    1    2  503  505  0.38277408736E+02 -0.32688767067E+02 -0.20997665327E+02  0.54540053732E+02  0.00000000000E+00 0.  1.
         21    1    1    2  504  506 -0.56610422089E+01 -0.38134084861E+02 -0.22573427230E+03  0.22900265832E+03  0.00000000000E+00 0.  1.
         21    1    1    2  505  501 -0.11532637053E+03  0.10846769922E+03  0.64863229855E+03  0.66767452567E+03  0.00000000000E+00 0.  1.
         21    1    1    2  506  503  0.82710004005E+02 -0.37644847290E+02 -0.16970914602E+03  0.19250785317E+03  0.00000000000E+00 0.  1.
<scales pt_clust_3="51.45445" pt_clust_4="38.55199" pt_clust_5="157.40893" pt_clust_6="51.45445"></scales>
<clustering>
<clus scale="   38.552">  2  4  1 -1</clus>
<clus scale="   51.454">  3  6 -1 -1</clus>
<clus scale="  157.409">  1  5  2 -1</clus>
<clus scale="  157.409">  1  3  2 -1</clus>
</clustering>
</event>
<event>
 6    0  0.9315069E+002  0.6497465E+02  0.7546771E-02  0.1378067E+00
         21   -1    0    0  503  501  0.00000000000E+00  0.00000000000E+00  0.35372169521E+03  0.35372169521E+03  0.00000000000E+00 0.  1.
         21   -1    0    0  504  502 -0.00000000000E+00 -0.00000000000E+00 -0.12471569748E+03  0.12471569748E+03  0.00000000000E+00 0.  1.
         21    1    1    2  503  506  0.50824608697E+02 -0.27426115565E+02  0.12286954815E+03  0.13576545410E+03  0.00000000000E+00 0.  1.
         21    1    1    2  504  501 -0.79340949978E+02 -0.16174903674E+02  0.15028957382E+03  0.17071487882E+03  0.00000000000E+00 0.  1.
         21    1    1    2  505  502 -0.20421534443E+02 -0.27007084339E+02 -0.73702486020E+02  0.81107817866E+02  0.00000000000E+00 0.  1.
         21    1    1    2  506  505  0.48937875724E+02  0.70608103577E+02  0.29549361780E+02  0.90849241894E+02  0.00000000000E+00 0.  1.
<scales pt_clust_3="57.23296" pt_clust_4="64.97465" pt_clust_5="33.85885" pt_clust_6="14000.00000"></scales>
<clustering>
<clus scale="   33.859">  2  5  1 -1</clus>
<clus scale="   57.233">  1  3  2 -1</clus>
<clus scale="   64.975">  1  4  2 -1</clus>
<clus scale="   57.233">  1  3  2 -1</clus>
</clustering>
</event>
<event>
 6    0  0.9315069E+002  0.1096519E+03  0.7546771E-02  0.1261216E+00
         21   -1    0    0  505  501  0.00000000000E+00  0.00000000000E+00  0.28892737582E+04  0.28892737582E+04  0.00000000000E+00 0.  1.
         21   -1    0    0  506  502 -0.00000000000E+00 -0.00000000000E+00 -0.14423585550E+03  0.14423585550E+03  0.00000000000E+00 0. -1.
         21    1    1    2  503  502  0.42349331046E+02  0.87684759568E+02 -0.10292263883E+02  0.97918402747E+02  0.00000000000E+00 0. -1.
         21    1    1    2  504  501 -0.21299797934E+02 -0.36683939933E+02  0.26161420813E+04  0.26164859607E+04  0.00000000000E+00 0.  1.
         21    1    1    2  505  503 -0.10038652288E+03 -0.19928115880E+02  0.19291038408E+03  0.21837811261E+03  0.00000000000E+00 0. -1.
         21    1    1    2  506  504  0.79336989772E+02 -0.31072703755E+02 -0.53722298837E+02  0.10072713764E+03  0.00000000000E+00 0. -1.
<scales pt_clust_3="109.65190" pt_clust_4="42.41925" pt_clust_5="14000.00000" pt_clust_6="84.72603"></scales>
<clustering>
<clus scale="   42.419">  1  4  2 -1</clus>
<clus scale="   84.726">  2  6  1 -1</clus>
<clus scale="  109.652">  2  3  1 -1</clus>
<clus scale="   42.419">  1  3  2 -1</clus>
</clustering>
</event>
<event>
 6    0  0.9315069E+002  0.9433088E+02  0.7546771E-02  0.1292690E+00
         21   -1    0    0  506  501  0.00000000000E+00  0.00000000000E+00  0.70227970132E+02  0.70227970132E+02  0.00000000000E+00 0.  1.
         21   -1    0    0  505  502 -0.00000000000E+00 -0.00000000000E+00 -0.82848099112E+03  0.82848099112E+03  0.00000000000E+00 0.  1.
         21    1    1    2  503  504 -0.11690453520E+03 -0.59127205771E+02 -0.17568329867E+03  0.21915135921E+03  0.00000000000E+00 0.  1.
         21    1    1    2  504  502  0.17115017751E+02  0.56736254122E+02 -0.55160553273E+03  0.55477976720E+03  0.00000000000E+00 0.  1.
         21    1    1    2  505  501  0.35563330826E+02 -0.24968183856E+02  0.89458849956E+01  0.44364282513E+02  0.00000000000E+00 0.  1.
         21    1    1    2  506  503  0.64226186624E+02  0.27359135505E+02 -0.39910074587E+02  0.80413552324E+02  0.00000000000E+00 0.  1.
<scales pt_clust_3="94.33088" pt_clust_4="58.78413" pt_clust_5="43.45297" pt_clust_6="14000.00000"></scales>
<clustering>
<clus scale="   43.453">  1  5  2 -1</clus>
<clus scale="   58.784">  2  4  1 -1</clus>
<clus scale="   94.331">  2  3  1 -1</clus>
<clus scale="   43.453">  1  3  2 -1</clus>
</clustering>
</event>
<event>
 6    0  0.9315069E+002  0.1819589E+03  0.7546771E-02  0.1165921E+00
         21   -1    0    0  503  501  0.00000000000E+00  0.00000000000E+00  0.24145091377E+03  0.24145091377E+03  0.00000000000E+00 0.  1.
         21   -1    0    0  501  502 -0.00000000000E+00 -0.00000000000E+00 -0.17012711813E+03  0.17012711813E+03  0.00000000000E+00 0.  1.
         21    1    1    2  503  504  0.20498284988E+02  0.29169116273E+02  0.31543341537E+02  0.47602514922E+02  0.00000000000E+00 0. -1.
         21    1    1    2  504  505 -0.11293158063E+03 -0.13665373599E+02  0.29758860630E+02  0.11758347727E+03  0.00000000000E+00 0.  1.
         21    1    1    2  505  506 -0.74772821230E+02  0.12926130280E+02 -0.54785453451E+01  0.76079393384E+02  0.00000000000E+00 0.  1.
         21    1    1    2  506  502  0.16720611688E+03 -0.28429872955E+02  0.15500138817E+02  0.17031264633E+03  0.00000000000E+00 0.  1.
<scales pt_clust_3="35.65133" pt_clust_4="33.49908" pt_clust_5="33.49908" pt_clust_6="177.27589"></scales>
<clustering>
<clus scale="   33.499">  4  5 -1 -1</clus>
<clus scale="   35.651">  1  3  2 -1</clus>
<clus scale="  177.276">  2  6  1 -1</clus>
<clus scale="   35.651">  1  3  2 -1</clus>
</clustering>
</event>
<event>
 6    0  0.9315069E+002  0.1508041E+03  0.7546771E-02  0.1199488E+00
         21   -1    0    0  502  501  0.00000000000E+00  0.00000000000E+00  0.15101498824E+03  0.15101498824E+03  0.00000000000E+00 0.  1.
         21   -1    0    0  504  502 -0.00000000000E+00 -0.00000000000E+00 -0.40398297765E+03  0.40398297765E+03  0.00000000000E+00 0.  1.
         21    1    1    2  503  501  0.81066274039E+02 -0.57886721705E+02  0.31786844292E+02  0.10456106735E+03  0.00000000000E+00 0. -1.
         21    1    1    2  504  505 -0.93256862516E+02  0.29766460353E+02 -0.21948748470E+03  0.24032819333E+03  0.00000000000E+00 0.  1.
         21    1    1    2  505  506 -0.23970635680E+02  0.10264772927E+03 -0.70971992235E+02  0.12707545547E+03  0.00000000000E+00 0.  1.
         21    1    1    2  506  503  0.36161224157E+02 -0.74527467923E+02  0.57046432280E+01  0.83033249737E+02  0.00000000000E+00 0.  1.
<scales pt_clust_3="45.68893" pt_clust_4="97.89221" pt_clust_5="142.23801" pt_clust_6="45.68893"></scales>
<clustering>
<clus scale="   45.689">  3  6 -1 -1</clus>
<clus scale="   97.892">  2  4  1 -1</clus>
<clus scale="  142.238">  2  5  1 -1</clus>
<clus scale="  150.804">  1  3  2 -1</clus>
</clustering>
</event>
<event>
 6    0  0.9315069E+002  0.1364204E+03  0.7546771E-02  0.1218228E+00
         21   -1    0    0  506  501  0.00000000000E+00  0.00000000000E+00  0.30662221167E+02  0.30662221167E+02  0.00000000000E+00 0. -1.
         21   -1    0    0  503  502 -0.00000000000E+00 -0.00000000000E+00 -0.94563718088E+03  0.94563718088E+03  0.00000000000E+00 0. -1.
         21    1    1    2  503  505  0.14504279099E+03 -0.95432019151E+01 -0.49234160874E+03  0.51335050756E+03  0.00000000000E+00 0. -1.
         21    1    1    2  504  501 -0.82978738297E+02  0.85732753233E+01 -0.16700406354E+03  0.18667975064E+03  0.00000000000E+00 0. -1.
         21    1    1    2  505  504 -0.18335923902E+02  0.40827679128E+02 -0.92945869769E+02  0.10316026462E+03  0.00000000000E+00 0. -1.
         21    1    1    2  506  502 -0.43728128792E+02 -0.39857752537E+02 -0.16268341766E+03  0.17310887922E+03  0.00000000000E+00 0. -1.
<scales pt_clust_3="121.99330" pt_clust_4="44.72357" pt_clust_5="44.72357" pt_clust_6="59.16747"></scales>
<clustering>
<clus scale="   44.724">  4  5 -1 -1</clus>
<clus scale="   59.167">  2  6  1 -1</clus>
<clus scale="  121.993">  2  3  1 -1</clus>
<clus scale="  136.420">  1  3  2 -1</clus>
</clustering>
</event>
<event>
 6    0  0.9315069E+002  0.8457784E+02  0.7546771E-02  0.1316540E+00
         21   -1    0    0  506  501  0.00000000000E+00  0.00000000000E+00  0.54159464166E+03  0.54159464166E+03  0.00000000000E+00 0. -1.
         21   -1    0    0  504  502 -0.00000000000E+00 -0.00000000000E+00 -0.41939098606E+03  0.41939098606E+03  0.00000000000E+00 0. -1.
         21    1    1    2  503  505  0.48523685094E+02  0.60423075950E+02 -0.12166593530E+03  0.14425011589E+03  0.00000000000E+00 0. -1.
         21    1    1    2  504  501 -0.32682304039E+02 -0.33760904216E+02 -0.13769687848E+02  0.48964639835E+02  0.00000000000E+00 0.  1.
         21    1    1    2  505  502 -0.12272144190E+02  0.58426032481E+02 -0.24796179774E+03  0.25504756406E+03  0.00000000000E+00 0. -1.
         21    1    1    2  506  503 -0.35692368653E+01 -0.85088204214E+02  0.50560107649E+03  0.51272330793E+03  0.00000000000E+00 0. -1.
<scales pt_clust_3="14000.00000" pt_clust_4="46.98863" pt_clust_5="49.54494" pt_clust_6="84.57784"></scales>
<clustering>
<clus scale="   46.989">  2  4  1 -1</clus>
<clus scale="   49.545">  2  5  1 -1</clus>
<clus scale="   84.578">  1  6  2 -1</clus>
<clus scale="   84.578">  1  3  2 -1</clus>
</clustering>
</event>
<event>
 6    0  0.9315069E+002  0.1387905E+03  0.7546771E-02  0.1214966E+00
         21   -1    0    0  506  501  0.00000000000E+00  0.00000000000E+00  0.13115599864E+03  0.13115599864E+03  0.00000000000E+00 0.  1.
         21   -1    0    0  504  502 -0.00000000000E+00 -0.00000000000E+00 -0.21005495733E+03  0.21005495733E+03  0.00000000000E+00 0. -1.
         21    1    1    2  503  502 -0.75525601110E+02 -0.87658556525E+02 -0.77234443033E+02  0.13911613187E+03  0.00000000000E+00 0. -1.
         21    1    1    2  504  505  0.60582453248E+02  0.61867641334E+02 -0.39202282781E+02  0.95050816203E+02  0.00000000000E+00 0.  1.
         21    1    1    2  505  501  0.47823961119E+02  0.41821468377E+02  0.21132130844E+02  0.66953218207E+02  0.00000000000E+00 0.  1.
         21    1    1    2  506  503 -0.32880813257E+02 -0.16030553186E+02  0.16405636277E+02  0.40090789685E+02  0.00000000000E+00 0. -1.
<scales pt_clust_3="125.88653" pt_clust_4="46.33314" pt_clust_5="46.33314" pt_clust_6="36.58041"></scales>
<clustering>
<clus scale="   36.580">  1  6  2 -1</clus>
<clus scale="   46.333">  4  5 -1 -1</clus>
<clus scale="  125.887">  2  3  1 -1</clus>
<clus scale="   36.580">  1  3  2 -1</clus>
</clustering>
</event>
<event>
 6    0  0.9315069E+002  0.8405813E+02  0.7546771E-02  0.1317914E+00
         21   -1    0    0  505  501  0.00000000000E+00  0.00000000000E+00  0.32373548076E+02  0.32373548076E+02  0.00000000000E+00 0. -1.
         21   -1    0    0  504  502 -0.00000000000E+00 -0.00000000000E+00 -0.13707230602E+04  0.13707230602E+04  0.00000000000E+00 0. -1.
         21    1    1    2  503  502  0.90235876081E+02  0.83169774138E+02 -0.18546831303E+03  0.22239204078E+03  0.00000000000E+00 0. -1.
         21    1    1    2  504  506 -0.11173672619E+02 -0.38690603593E+02 -0.97663421919E+03  0.97746417421E+03  0.00000000000E+00 0. -1.
         21    1    1    2  505  503 -0.26736103168E+02 -0.17691189649E+02 -0.24025911065E+02  0.40062973009E+02  0.00000000000E+00 0. -1.
         21    1    1    2  506  501 -0.52326100294E+02 -0.26787980896E+02 -0.15222106884E+03  0.16317742029E+03  0.00000000000E+00 0. -1.
<scales pt_clust_3="84.05813" pt_clust_4="40.68928" pt_clust_5="32.05928" pt_clust_6="14000.00000"></scales>
<clustering>
<clus scale="   32.059">  1  5  2 -1</clus>
<clus scale="   40.689">  2  4  1 -1</clus>
<clus scale="   84.058">  1  3  2 -1</clus>
<clus scale="   32.059">  1  3  2 -1</clus>
</clustering>
</event>
<event>
 6    0  0.9315069E+002  0.1786099E+03  0.7546771E-02  0.1169155E+00
         21   -1    0    0  506  501  0.00000000000E+00  0.00000000000E+00  0.42987973888E+02  0.42987973888E+02  0.00000000000E+00 0. -1.
         21   -1    0    0  505  502 -0.00000000000E+00 -0.00000000000E+00 -0.76348409613E+03  0.76348409613E+03  0.00000000000E+00 0.  1.
         21    1    1    2  503  502 -0.72249766423E+02 -0.64922358150E+02 -0.20073296832E+03  0.22299925091E+03  0.00000000000E+00 0.  1.
         21    1    1    2  504  501  0.51073711471E+02  0.54604484226E+02 -0.79906588173E+02  0.10943142389E+03  0.00000000000E+00 0. -1.
         21    1    1    2  505  504  0.44109902555E+02  0.85702066989E+02 -0.21026260656E+03  0.23130259728E+03  0.00000000000E+00 0. -1.
         21    1    1    2  506  503 -0.22933847603E+02 -0.75384193065E+02 -0.22959395919E+03  0.24273879794E+03  0.00000000000E+00 0.  1.
<scales pt_clust_3="178.13103" pt_clust_4="49.47565" pt_clust_5="49.47565" pt_clust_6="49.20677"></scales>
<clustering>
<clus scale="   49.207">  3  6 -1 -1</clus>
<clus scale="   49.476">  4  5 -1 -1</clus>
<clus scale="  178.131">  2  3  1 -1</clus>
<clus scale="  178.610">  1  3  2 -1</clus>
</clustering>
</event>
<event>
 6    0  0.9315069E+002  0.1207300E+03  0.7546771E-02  0.1241898E+00
         21   -1    0    0  506  501  0.00000000000E+00  0.00000000000E+00  0.61488539740E+02  0.61488539740E+02  0.00000000000E+00 0. -1.
         21   -1    0    0  503  502 -0.00000000000E+00 -0.00000000000E+00 -0.84572881052E+03  0.84572881052E+03  0.00000000000E+00 0. -1.
         21    1    1    2  503  504  0.10501448198E+03  0.20259478273E+02 -0.45659007093E+03  0.46894880399E+03  0.00000000000E+00 0. -1.
         21    1    1    2  504  501  0.33809509271E+02  0.65807286565E+02 -0.34199824904E+02  0.81506502229E+02  0.00000000000E+00 0. -1.
         21    1    1    2  505  502  0.96480188310E+01 -0.43101328826E+02 -0.98689036533E+02  0.10812185138E+03  0.00000000000E+00 0. -1.
         21    1    1    2  506  505 -0.14847201008E+03 -0.42965436012E+02 -0.19476133841E+03  0.24864019266E+03  0.00000000000E+00 0. -1.
<scales pt_clust_3="120.73000" pt_clust_4="71.37413" pt_clust_5="44.16796" pt_clust_6="14000.00000"></scales>
<clustering>
<clus scale="   44.168">  2  5  1 -1</clus>
<clus scale="   71.374">  1  4  2 -1</clus>
<clus scale="  120.730">  2  3  1 -1</clus>
<clus scale="   71.374">  1  3  2 -1</clus>
</clustering>
</event>
<event>
 6    0  0.9315069E+002  0.1172466E+03  0.7546771E-02  0.1247710E+00
         21   -1    0    0  504  501  0.00000000000E+00  0.00000000000E+00  0.36269732401E+03  0.36269732401E+03  0.00000000000E+00 0. -1.
         21   -1    0    0  505  502 -0.00000000000E+00 -0.00000000000E+00 -0.27000589549E+03  0.27000589549E+03  0.00000000000E+00 0. -1.
         21    1    1    2  503  502  0.15941224162E+02 -0.92089008497E+02 -0.70934044294E+02  0.11732922378E+03  0.00000000000E+00 0. -1.
         21    1    1    2  504  503 -0.88085838348E+02  0.84670145379E+02  0.31410165538E+03  0.33702818628E+03  0.00000000000E+00 0. -1.
         21    1    1    2  505  506  0.22189854968E+02  0.26898419988E+02 -0.94980480466E+02  0.10117908050E+03  0.00000000000E+00 0. -1.
         21    1    1    2  506  501  0.49954759218E+02 -0.19479556869E+02 -0.55495702090E+02  0.77166728937E+02  0.00000000000E+00 0. -1.
<scales pt_clust_3="14000.00000" pt_clust_4="117.24655" pt_clust_5="34.86997" pt_clust_6="59.21952"></scales>
<clustering>
<clus scale="   34.870">  2  5  1 -1</clus>
<clus scale="   59.220">  2  6  1 -1</clus>
<clus scale="  117.247">  1  4  2 -1</clus>
<clus scale="  117.247">  1  3  2 -1</clus>
</clustering>
</event>
<event>
 6    0  0.9315069E+002  0.8529145E+02  0.7546771E-02  0.1314672E+00
         21   -1    0    0  503  501  0.00000000000E+00  0.00000000000E+00  0.20682189744E+03  0.20682189744E+03  0.00000000000E+00 0.  1.
         21   -1    0    0  505  502 -0.00000000000E+00 -0.00000000000E+00 -0.95309553641E+03  0.95309553641E+03  0.00000000000E+00 0. -1.
         21    1    1    2  503  506 -0.80488344321E+00  0.45206325478E+02  0.18094773896E+03  0.18651097537E+03  0.00000000000E+00 0.  1.
         21    1    1    2  504  501 -0.60303363439E+02  0.28097011705E+02 -0.69426169497E+02  0.96155762801E+02  0.00000000000E+00 0.  1.
         21    1    1    2  505  504  0.29913391654E+02  0.42628229705E+02 -0.42270457099E+03  0.42590037720E+03  0.00000000000E+00 0.  1.
         21    1    1    2  506  502  0.31194855229E+02 -0.11593156689E+03 -0.43509063745E+03  0.45135031847E+03  0.00000000000E+00 0. -1.
<scales pt_clust_3="45.21349" pt_clust_4="85.29145" pt_clust_5="54.63627" pt_clust_6="14000.00000"></scales>
<clustering>
<clus scale="   45.213">  1  3  2 -1</clus>
<clus scale="   54.636">  2  5  1 -1</clus>
<clus scale="   85.291">  1  4  2 -1</clus>
<clus scale="   45.213">  1  3  2 -1</clus>
</clustering>
</event>
<event>
 6    0  0.9315069E+002  0.6711961E+02  0.7546771E-02  0.1370171E+00
         21   -1    0    0  504  501  0.00000000000E+00  0.00000000000E+00  0.28293917182E+03  0.28293917182E+03  0.00000000000E+00 0.  1.
         21   -1    0    0  505  502 -0.00000000000E+00 -0.00000000000E+00 -0.44905925685E+03  0.44905925685E+03  0.00000000000E+00 0. -1.
         21    1    1    2  503  502  0.91397377978E+02  0.97465073605E+02 -0.17906324544E+03  0.22342015832E+03  0.00000000000E+00 0. -1.
         21    1    1    2  504  503 -0.51911323138E+02 -0.40325314155E+02  0.24713717112E+03  0.25572973581E+03  0.00000000000E+00 0.  1.
         21    1    1    2  505  506 -0.14248044957E+02 -0.28195354661E+02 -0.19655153167E+03  0.19907408021E+03  0.00000000000E+00 0. -1.
         21    1    1    2  506  501 -0.25238009883E+02 -0.28944404789E+02 -0.37642479042E+02  0.53774454343E+02  0.00000000000E+00 0.  1.
<scales pt_clust_3="67.11961" pt_clust_4="14000.00000" pt_clust_5="31.59090" pt_clust_6="43.99483"></scales>
<clustering>
<clus scale="   31.591">  2  5  1 -1</clus>
<clus scale="   43.995">  2  6  1 -1</clus>
<clus scale="   67.120">  2  3  1 -1</clus>
<clus scale="   67.120">  1  3  2 -1</clus>
</clustering>
</event>
<event>
 6    0  0.9315069E+002  0.2426804E+03  0.7546771E-02  0.1118020E+00
         21   -1    0    0  503  501  0.00000000000E+00  0.00000000000E+00  0.89967776350E+02  0.89967776350E+02  0.00000000000E+00 0.  1.
         21   -1    0    0  505  502 -0.00000000000E+00 -0.00000000000E+00 -0.10437953512E+04  0.10437953512E+04  0.00000000000E+00 0.  1.
         21    1    1    2  503  506  0.13838136506E+03 -0.21715960200E+03 -0.26148004857E+03  0.36698707162E+03  0.00000000000E+00 0.  1.
         21    1    1    2  504  502  0.34103095461E+02  0.12730866033E+02 -0.87229363063E+02  0.94520145209E+02  0.00000000000E+00 0.  1.
         21    1    1    2  505  501 -0.11465294167E+03  0.19114359979E+03 -0.39101369193E+03  0.45008097055E+03  0.00000000000E+00 0.  1.
         21    1    1    2  506  504 -0.57831518851E+02  0.13285136169E+02 -0.21410447131E+03  0.22217494020E+03  0.00000000000E+00 0.  1.
<scales pt_clust_3="14000.00000" pt_clust_4="36.40187" pt_clust_5="242.68041" pt_clust_6="52.58229"></scales>
<clustering>
<clus scale="   36.402">  2  4  1 -1</clus>
<clus scale="   52.582">  2  6  1 -1</clus>
<clus scale="  242.680">  2  5  1 -1</clus>
<clus scale="  242.680">  1  3  2 -1</clus>
</clustering>
</event>
<event>
 6    0  0.1143297E+003  0.8331939E+02  0.7546771E-02  0.1319887E+00
         21   -1    0    0  505  501  0.00000000000E+00  0.00000000000E+00  0.82641713847E+03  0.82641713847E+03  0.00000000000E+00 0.  1.
         21   -1    0    0  506  502 -0.00000000000E+00 -0.00000000000E+00 -0.42091276703E+03  0.42091276703E+03  0.00000000000E+00 0. -1.
         21    1    1    2  503  501 -0.48714340891E+01  0.71996293602E+02  0.15428266262E+03  0.17032421187E+03  0.00000000000E+00 0.  1.
         21    1    1    2  504  502 -0.69483052456E+02 -0.25678425299E+02  0.13830869063E+02  0.75356280717E+02  0.00000000000E+00 0.  1.
         21    1    1    2  505  504  0.84385328681E+02  0.41050747926E+01  0.61488929763E+03  0.62066624178E+03  0.00000000000E+00 0.  1.
         21    1    1    2  506  503 -0.10030842136E+02 -0.50422943096E+02 -0.37749845789E+03  0.38098317114E+03  0.00000000000E+00 0. -1.
<scales pt_clust_3="62.66147" pt_clust_4="83.31939" pt_clust_5="14000.00000" pt_clust_6="51.41100"></scales>
<clustering>
<clus scale="   51.411">  2  6  1 -1</clus>
<clus scale="   62.661">  2  3  1 -1</clus>
<clus scale="   83.319">  2  4  1 -1</clus>
<clus scale="   83.319">  1  3  2 -1</clus>
</clustering>
</event>
<event>
 6    0  0.9315069E+002  0.1480937E+03  0.7546771E-02  0.1202835E+00
         21   -1    0    0  504  501  0.00000000000E+00  0.00000000000E+00  0.27452461755E+03  0.27452461755E+03  0.00000000000E+00 0.  1.
         21   -1    0    0  506  502 -0.00000000000E+00 -0.00000000000E+00 -0.12937065425E+04  0.12937065425E+04  0.00000000000E+00 0.  1.
         21    1    1    2  503  505  0.11202315917E+03 -0.88135048124E+01  0.41056536410E+01  0.11244430821E+03  0.00000000000E+00 0.  1.
         21    1    1    2  504  503 -0.16153424820E+03  0.63506564506E+02  0.17861315253E+03  0.24905632964E+03  0.00000000000E+00 0.  1.
         21    1    1    2  505  502  0.42514909605E+02 -0.18620129298E+01 -0.27247559529E+03  0.27577877848E+03  0.00000000000E+00 0. -1.
         21    1    1    2  506  501  0.69961794250E+01 -0.52831046764E+02 -0.92942513588E+03  0.93095174377E+03  0.00000000000E+00 0.  1.
<scales pt_clust_3="148.09368" pt_clust_4="14000.00000" pt_clust_5="42.55567" pt_clust_6="71.20141"></scales>
<clustering>
<clus scale="   42.556">  2  5  1 -1</clus>
<clus scale="   71.201">  2  6  1 -1</clus>
<clus scale="  148.094">  2  3  1 -1</clus>
<clus scale="  148.094">  1  3  2 -1</clus>
</clustering>
</event>
<event>
 6    0  0.9315069E+002  0.8650551E+02  0.7546771E-02  0.1311542E+00
         21   -1    0    0  506  501  0.00000000000E+00  0.00000000000E+00  0.26638997605E+03  0.26638997605E+03  0.00000000000E+00 0.  1.
         21   -1    0    0  505  502 -0.00000000000E+00 -0.00000000000E+00 -0.14762323057E+03  0.14762323057E+03  0.00000000000E+00 0.  1.
         21    1    1    2  503  501 -0.89539513164E+02 -0.34296993589E+02  0.14223095320E+03  0.17153207349E+03  0.00000000000E+00 0.  1.
         21    1    1    2  504  502  0.54005465048E+02  0.34952748934E+02 -0.84432641056E+02  0.10614685953E+03  0.00000000000E+00 0.  1.
         21    1    1    2  505  503 -0.32688446142E+02 -0.30057014848E+02  0.80632849608E+01  0.45132861832E+02  0.00000000000E+00 0.  1.
         21    1    1    2  506  504  0.68222494259E+02  0.29401259503E+02  0.52905148376E+02  0.91201411765E+02  0.00000000000E+00 0.  1.
<scales pt_clust_3="14000.00000" pt_clust_4="32.48867" pt_clust_5="44.40674" pt_clust_6="86.50551"></scales>
<clustering>
<clus scale="   44.407">  2  5  1 -1</clus>
<clus scale="   32.489">  2  4  1 -1</clus>
<clus scale="   86.506">  2  6  1 -1</clus>
<clus scale="   86.506">  1  3  2 -1</clus>
</clustering>
</event>
<event>
 6    0  0.9315069E+002  0.1998946E+03  0.7546771E-02  0.1149828E+00
         21   -1    0    0  506  501  0.00000000000E+00  0.00000000000E+00  0.47429311221E+02  0.47429311221E+02  0.00000000000E+00 0. -1.
         21   -1    0    0  503  502 -0.00000000000E+00 -0.00000000000E+00 -0.18297176568E+04  0.18297176568E+04  0.00000000000E+00 0. -1.
         21    1    1    2  503  505 -0.48444234210E+01 -0.31079786456E+02 -0.20458405532E+03  0.20698806066E+03  0.00000000000E+00 0.  1.
         21    1    1    2  504  502 -0.35423791456E+02  0.22797010030E+02 -0.68844702705E+03  0.68973462847E+03  0.00000000000E+00 0. -1.
         21    1    1    2  505  501 -0.13576345441E+03 -0.11401977821E+03 -0.56128509656E+03  0.58861972869E+03  0.00000000000E+00 0. -1.
         21    1    1    2  506  504  0.17603166929E+03  0.12230255464E+03 -0.32797216669E+03  0.39180455024E+03  0.00000000000E+00 0. -1.
<scales pt_clust_3="31.45507" pt_clust_4="38.69157" pt_clust_5="199.89458" pt_clust_6="14000.00000"></scales>
<clustering>
<clus scale="   31.455">  2  3  1 -1</clus>
<clus scale="   38.692">  2  4  1 -1</clus>
<clus scale="  199.895">  2  5  1 -1</clus>
<clus scale="  199.895">  1  3  2 -1</clus>
</clustering>
</event>
<event>
 6    0  0.9315069E+002  0.9493621E+02  0.7546771E-02  0.1291320E+00
         21   -1    0    0  505  501  0.00000000000E+00  0.00000000000E+00  0.21805846296E+03  0.21805846296E+03  0.00000000000E+00 0.  1.
         21   -1    0    0  506  502 -0.00000000000E+00 -0.00000000000E+00 -0.12807487661E+03  0.12807487661E+03  0.00000000000E+00 0.  1.
         21    1    1    2  503  504  0.65312379703E+02  0.32262858700E+02 -0.86425618358E+00  0.72851533496E+02  0.00000000000E+00 0.  1.
         21    1    1    2  504  501 -0.80315201943E+02 -0.14332889028E+02  0.11387696845E+03  0.14008542863E+03  0.00000000000E+00 0.  1.
         21    1    1    2  505  502 -0.13669872556E+02 -0.67410764161E+02 -0.31017594389E+02  0.75453082787E+02  0.00000000000E+00 0. -1.
         21    1    1    2  506  503  0.28672694796E+02  0.49480794489E+02  0.79884684789E+01  0.57743294665E+02  0.00000000000E+00 0.  1.
<scales pt_clust_3="34.19016" pt_clust_4="86.74012" pt_clust_5="68.78282" pt_clust_6="34.19016"></scales>
<clustering>
<clus scale="   34.190">  3  6 -1 -1</clus>
<clus scale="   68.783">  2  5  1 -1</clus>
<clus scale="   86.740">  1  4  2 -1</clus>
<clus scale="   86.740">  1  3  2 -1</clus>
</clustering>
</event>
<event>
 6    0  0.9315069E+002  0.7835941E+02  0.7546771E-02  0.1333773E+00
         21   -1    0    0  504  501  0.00000000000E+00  0.00000000000E+00  0.23247053500E+03  0.23247053500E+03  0.00000000000E+00 0. -1.
         21   -1    0    0  503  502 -0.00000000000E+00 -0.00000000000E+00 -0.11303473246E+04  0.11303473246E+04  0.00000000000E+00 0.  1.
         21    1    1    2  503  501 -0.96620676645E+02 -0.30155413285E+02 -0.44842200513E+02  0.11070558727E+03  0.00000000000E+00 0. -1.
         21    1    1    2  504  506  0.38985592392E+02 -0.41968430839E+02  0.16076661616E+03  0.17066672339E+03  0.00000000000E+00 0. -1.
         21    1    1    2  505  502  0.32576474342E+02 -0.34396597464E+01 -0.10001345155E+04  0.10006708285E+04  0.00000000000E+00 0.  1.
         21    1    1    2  506  505  0.25058609911E+02  0.75563503870E+02 -0.13666689732E+02  0.80774720402E+02  0.00000000000E+00 0. -1.
<scales pt_clust_3="14000.00000" pt_clust_4="58.22834" pt_clust_5="32.75756" pt_clust_6="78.35941"></scales>
<clustering>
<clus scale="   32.758">  2  5  1 -1</clus>
<clus scale="   58.228">  1  4  2 -1</clus>
<clus scale="   78.359">  1  6  2 -1</clus>
<clus scale="   58.228">  1  3  2 -1</clus>
</clustering>
</event>
<event>
 6    0  0.9315069E+002  0.1712265E+03  0.7546771E-02  0.1176575E+00
         21   -1    0    0  502  501  0.00000000000E+00  0.00000000000E+00  0.77606819709E+02  0.77606819709E+02  0.00000000000E+00 0.  1.
         21   -1    0    0  506  502 -0.00000000000E+00 -0.00000000000E+00 -0.59051945670E+03  0.59051945670E+03  0.00000000000E+00 0.  1.
         21    1    1    2  503  501  0.10113010275E+03  0.11148754185E+03 -0.11427663754E+03  0.18898655920E+03  0.00000000000E+00 0.  1.
         21    1    1    2  504  503 -0.25600237874E+02 -0.94795047504E+02 -0.89881000590E+02  0.13311674379E+03  0.00000000000E+00 0.  1.
         21    1    1    2  505  504 -0.69345779863E+02 -0.53184469483E+02 -0.94983010277E+02  0.12907051259E+03  0.00000000000E+00 0.  1.
         21    1    1    2  506  505 -0.61840850102E+01  0.36491975136E+02 -0.21377198859E+03  0.21695246083E+03  0.00000000000E+00 0. -1.
<scales pt_clust_3="160.19912" pt_clust_4="58.53674" pt_clust_5="58.53674" pt_clust_6="37.01226"></scales>
<clustering>
<clus scale="   37.012">  2  6  1 -1</clus>
<clus scale="   58.537">  4  5 -1 -1</clus>
<clus scale="  160.199">  1  3  2 -1</clus>
<clus scale="  160.199">  1  3  2 -1</clus>
</clustering>
</event>
<event>
 6    0  0.9315069E+002  0.1839940E+03  0.7546771E-02  0.1163993E+00
         21   -1    0    0  503  501  0.00000000000E+00  0.00000000000E+00  0.20188855925E+04  0.20188855925E+04  0.00000000000E+00 0.  1.
         21   -1    0    0  504  502 -0.00000000000E+00 -0.00000000000E+00 -0.29421159760E+03  0.29421159760E+03  0.00000000000E+00 0.  1.
         21    1    1    2  503  505 -0.11103610539E+01 -0.39799036395E+02  0.15341872742E+04  0.15347038114E+04  0.00000000000E+00 0.  1.
         21    1    1    2  504  506  0.12453101907E+02 -0.40349416110E+02 -0.14598800970E+03  0.15197254392E+03  0.00000000000E+00 0.  1.
         21    1    1    2  505  502  0.29765320690E+02 -0.14137555158E+03 -0.70868025708E+02  0.16092016023E+03  0.00000000000E+00 0.  1.
         21    1    1    2  506  501 -0.41108061542E+02  0.22152400408E+03  0.40734275608E+03  0.46550067459E+03  0.00000000000E+00 0.  1.
<scales pt_clust_3="39.81452" pt_clust_4="42.46037" pt_clust_5="14000.00000" pt_clust_6="183.99396"></scales>
<clustering>
<clus scale="   39.815">  1  3  2 -1</clus>
<clus scale="   42.460">  2  4  1 -1</clus>
<clus scale="  183.994">  1  6  2 -1</clus>
<clus scale="   39.815">  1  3  2 -1</clus>
</clustering>
</event>
<event>
 6    0  0.9315069E+002  0.1457636E+03  0.7546771E-02  0.1205777E+00
         21   -1    0    0  506  501  0.00000000000E+00  0.00000000000E+00  0.10377530318E+03  0.10377530318E+03  0.00000000000E+00 0. -1.
         21   -1    0    0  504  502 -0.00000000000E+00 -0.00000000000E+00 -0.97880654145E+03  0.97880654145E+03  0.00000000000E+00 0. -1.
         21    1    1    2  503  502 -0.82246585655E+02 -0.11294229536E+03 -0.86010179187E+03  0.87137566831E+03  0.00000000000E+00 0. -1.
         21    1    1    2  504  501  0.13481885062E+02  0.29840863817E+02  0.60413266535E+02  0.68716818549E+02  0.00000000000E+00 0. -1.
         21    1    1    2  505  503  0.24573289612E+02  0.69081495538E+02 -0.55968726926E+02  0.92242061891E+02  0.00000000000E+00 0.  1.
         21    1    1    2  506  505  0.44191410981E+02  0.14019936005E+02 -0.19373986006E+02  0.50247295886E+02  0.00000000000E+00 0. -1.
<scales pt_clust_3="135.11020" pt_clust_4="32.74505" pt_clust_5="43.45565" pt_clust_6="43.45565"></scales>
<clustering>
<clus scale="   32.745">  1  4  2 -1</clus>
<clus scale="   43.456">  5  6 -1 -1</clus>
<clus scale="  135.110">  2  3  1 -1</clus>
<clus scale="   32.745">  1  3  2 -1</clus>
</clustering>
</event>
<event>
 6    0  0.9315069E+002  0.1033167E+03  0.7546771E-02  0.1273472E+00
         21   -1    0    0  502  501  0.00000000000E+00  0.00000000000E+00  0.14359894415E+03  0.14359894415E+03  0.00000000000E+00 0.  1.
         21   -1    0    0  503  502 -0.00000000000E+00 -0.00000000000E+00 -0.11076288515E+04  0.11076288515E+04  0.00000000000E+00 0.  1.
         21    1    1    2  503  504 -0.10579607794E+02 -0.38037718726E+02 -0.56612930142E+03  0.56750434542E+03  0.00000000000E+00 0.  1.
         21    1    1    2  504  505  0.10435188004E+02  0.47966106613E+02 -0.22899871730E+03  0.23420088184E+03  0.00000000000E+00 0.  1.
         21    1    1    2  505  506  0.66871317714E+02  0.50966588103E+02 -0.28801009147E+03  0.30003196333E+03  0.00000000000E+00 0.  1.
         21    1    1    2  506  501 -0.66726897924E+02 -0.60894975990E+02  0.11910820285E+03  0.14949060504E+03  0.00000000000E+00 0.  1.
<scales pt_clust_3="39.48159" pt_clust_4="36.98254" pt_clust_5="36.98254" pt_clust_6="91.27812"></scales>
<clustering>
<clus scale="   36.983">  4  5 -1 -1</clus>
<clus scale="   39.482">  2  3  1 -1</clus>
<clus scale="   91.278">  1  6  2 -1</clus>
<clus scale="   91.278">  1  3  2 -1</clus>
</clustering>
</event>
<event>
 6    0  0.9315069E+002  0.1709341E+03  0.7546771E-02  0.1176877E+00
         21   -1    0    0  503  501  0.00000000000E+00  0.00000000000E+00  0.24296689706E+03  0.24296689706E+03  0.00000000000E+00 0. -1.
         21   -1    0    0  506  502 -0.00000000000E+00 -0.00000000000E+00 -0.58110863314E+03  0.58110863314E+03  0.00000000000E+00 0. -1.
         21    1    1    2  503  504 -0.16447002386E+02  0.86799765145E+02 -0.12165711820E+03  0.15035011648E+03  0.00000000000E+00 0. -1.
         21    1    1    2  504  502 -0.18519205144E+02  0.77598605973E+02 -0.23451651084E+03  0.24771455037E+03  0.00000000000E+00 0. -1.
         21    1    1    2  505  501  0.27879028430E+02 -0.12356774942E+02  0.19225918346E+03  0.19466258947E+03  0.00000000000E+00 0. -1.
         21    1    1    2  506  505  0.70871791002E+01 -0.15204159618E+03 -0.17422729051E+03  0.23134827389E+03  0.00000000000E+00 0. -1.
<scales pt_clust_3="55.64159" pt_clust_4="55.64159" pt_clust_5="30.49476" pt_clust_6="160.84802"></scales>
<clustering>
<clus scale="   30.495">  1  5  2 -1</clus>
<clus scale="   55.642">  3  4 -1 -1</clus>
<clus scale="  160.848">  1  6  2 -1</clus>
<clus scale="   30.495">  1  3  2 -1</clus>
</clustering>
</event>
<event>
 6    0  0.9315069E+002  0.8807225E+02  0.7546771E-02  0.1307588E+00
         21   -1    0    0  503  501  0.00000000000E+00  0.00000000000E+00  0.14043022513E+02  0.14043022513E+02  0.00000000000E+00 0.  1.
         21   -1    0    0  506  502 -0.00000000000E+00 -0.00000000000E+00 -0.25721965940E+04  0.25721965940E+04  0.00000000000E+00 0.  1.
         21    1    1    2  503  504 -0.28109150417E+02 -0.17567131241E+02 -0.13781792533E+03  0.14174804753E+03  0.00000000000E+00 0.  1.
         21    1    1    2  504  502 -0.94349514241E+02  0.22981393299E+02 -0.14682284402E+04  0.14714362806E+04  0.00000000000E+00 0.  1.
         21    1    1    2  505  501  0.42025591704E+02 -0.22777124695E+02 -0.57954713509E+02  0.75124540500E+02  0.00000000000E+00 0.  1.
         21    1    1    2  506  505  0.80433072954E+02  0.17362862636E+02 -0.89415249238E+03  0.89793074780E+03  0.00000000000E+00 0.  1.
<scales pt_clust_3="33.14707" pt_clust_4="88.07225" pt_clust_5="41.58783" pt_clust_6="14000.00000"></scales>
<clustering>
<clus scale="   33.147">  1  3  2 -1</clus>
<clus scale="   41.588">  1  5  2 -1</clus>
<clus scale="   88.072">  2  4  1 -1</clus>
<clus scale="   33.147">  1  3  2 -1</clus>
</clustering>
</event>
<event>
 6    0  0.9315069E+002  0.1612933E+03  0.7546771E-02  0.1187244E+00
         21   -1    0    0  506  501  0.00000000000E+00  0.00000000000E+00  0.42669630131E+03  0.42669630131E+03  0.00000000000E+00 0. -1.
         21   -1    0    0  503  502 -0.00000000000E+00 -0.00000000000E+00 -0.25707274914E+03  0.25707274914E+03  0.00000000000E+00 0.  1.
         21    1    1    2  503  505  0.11653877393E+03 -0.49523733033E+02 -0.16777810142E+03  0.21019842358E+03  0.00000000000E+00 0.  1.
         21    1    1    2  504  502 -0.92555730517E+02  0.39531392536E+02  0.13877189276E+03  0.17142617206E+03  0.00000000000E+00 0. -1.
         21    1    1    2  505  501  0.76315260054E+02  0.67393732910E+02  0.48739642462E+02  0.11287819497E+03  0.00000000000E+00 0.  1.
         21    1    1    2  506  504 -0.10029830347E+03 -0.57401392413E+02  0.14989011836E+03  0.18926625984E+03  0.00000000000E+00 0. -1.
<scales pt_clust_3="129.43831" pt_clust_4="89.80934" pt_clust_5="101.81323" pt_clust_6="89.80934"></scales>
<clustering>
<clus scale="   89.809">  4  6 -1 -1</clus>
<clus scale="  101.813">  1  5  2 -1</clus>
<clus scale="  129.438">  2  3  1 -1</clus>
<clus scale="  101.813">  1  3  2 -1</clus>
</clustering>
</event>
<event>
 6    0  0.9315069E+002  0.1670728E+03  0.7546771E-02  0.1180935E+00
         21   -1    0    0  506  501  0.00000000000E+00  0.00000000000E+00  0.12070408061E+03  0.12070408061E+03  0.00000000000E+00 0. -1.
         21   -1    0    0  504  502 -0.00000000000E+00 -0.00000000000E+00 -0.43034226027E+03  0.43034226027E+03  0.00000000000E+00 0. -1.
         21    1    1    2  503  502  0.26229069781E+02  0.10665636192E+03 -0.28874799685E+02  0.11356627006E+03  0.00000000000E+00 0. -1.
         21    1    1    2  504  505 -0.30764869836E+01 -0.51632979149E+02 -0.18154656763E+03  0.18877125186E+03  0.00000000000E+00 0.  1.
         21    1    1    2  505  501 -0.31210553285E+02 -0.12641848771E+03 -0.11659798342E+03  0.17478793554E+03  0.00000000000E+00 0. -1.
         21    1    1    2  506  503  0.80579704877E+01  0.71395104945E+02  0.17381171082E+02  0.73920883428E+02  0.00000000000E+00 0. -1.
<scales pt_clust_3="37.42735" pt_clust_4="51.72455" pt_clust_5="160.53635" pt_clust_6="37.42735"></scales>
<clustering>
<clus scale="   37.427">  3  6 -1 -1</clus>
<clus scale="   51.725">  2  4  1 -1</clus>
<clus scale="  160.536">  2  5  1 -1</clus>
<clus scale="  167.073">  1  3  2 -1</clus>
</clustering>
</event>
<event>
 6    0  0.9315069E+002  0.7754957E+02  0.7546771E-02  0.1336153E+00
         21   -1    0    0  503  501  0.00000000000E+00  0.00000000000E+00  0.70462213082E+03  0.70462213082E+03  0.00000000000E+00 0. -1.
         21   -1    0    0  504  502 -0.00000000000E+00 -0.00000000000E+00 -0.43887519311E+03  0.43887519311E+03  0.00000000000E+00 0.  1.
         21    1    1    2  503  506 -0.84864222212E+01  0.29668779013E+02  0.28501999526E+03  0.28668563534E+03  0.00000000000E+00 0. -1.
         21    1    1    2  504  505  0.14856457385E+02  0.76642376637E+02 -0.41769634647E+03  0.42492941305E+03  0.00000000000E+00 0.  1.
         21    1    1    2  505  501 -0.64966076697E+02 -0.42344302490E+02  0.15205786944E+03  0.17069044125E+03  0.00000000000E+00 0. -1.
         21    1    1    2  506  502  0.58596041534E+02 -0.63966853160E+02  0.24636541948E+03  0.26119183430E+03  0.00000000000E+00 0. -1.
<scales pt_clust_3="30.85864" pt_clust_4="14000.00000" pt_clust_5="77.54957" pt_clust_6="70.51291"></scales>
<clustering>
<clus scale="   30.859">  1  3  2 -1</clus>
<clus scale="   70.513">  1  6  2 -1</clus>
<clus scale="   77.550">  1  5  2 -1</clus>
<clus scale="   30.859">  1  3  2 -1</clus>
</clustering>
</event>
<event>
 6    0  0.9315069E+002  0.1453561E+03  0.7546771E-02  0.1206298E+00
         21   -1    0    0  503  501  0.00000000000E+00  0.00000000000E+00  0.22306724479E+03  0.22306724479E+03  0.00000000000E+00 0.  1.
         21   -1    0    0  504  502 -0.00000000000E+00 -0.00000000000E+00 -0.15687091713E+03  0.15687091713E+03  0.00000000000E+00 0.  1.
         21    1    1    2  503  502 -0.69078194402E+02  0.12506374858E+03  0.19448486812E+02  0.14419078261E+03  0.00000000000E+00 0.  1.
         21    1    1    2  504  506  0.33604969521E+02 -0.93984583947E+02 -0.50714068219E+02  0.11195674482E+03  0.00000000000E+00 0.  1.
         21    1    1    2  505  501  0.30801956690E+02  0.22117573323E+00  0.83871424303E+02  0.89348896296E+02  0.00000000000E+00 0.  1.
         21    1    1    2  506  505  0.46712681912E+01 -0.31300340362E+02  0.13590484766E+02  0.34441738189E+02  0.00000000000E+00 0. -1.
<scales pt_clust_3="135.03865" pt_clust_4="30.28638" pt_clust_5="30.80275" pt_clust_6="30.28638"></scales>
<clustering>
<clus scale="   30.286">  4  6 -1 -1</clus>
<clus scale="   30.803">  1  5  2 -1</clus>
<clus scale="  135.039">  1  3  2 -1</clus>
<clus scale="   30.803">  1  3  2 -1</clus>
</clustering>
</event>
<event>
 6    0  0.9315069E+002  0.8243840E+02  0.7546771E-02  0.1322271E+00
         21   -1    0    0  504  501  0.00000000000E+00  0.00000000000E+00  0.65173879165E+03  0.65173879165E+03  0.00000000000E+00 0. -1.
         21   -1    0    0  503  502 -0.00000000000E+00 -0.00000000000E+00 -0.44815307447E+03  0.44815307447E+03  0.00000000000E+00 0. -1.
         21    1    1    2  503  506  0.14192664934E+02 -0.32708271637E+02 -0.41014891894E+03  0.41169575961E+03  0.00000000000E+00 0. -1.
         21    1    1    2  504  505 -0.21435376811E+02  0.12665979877E+03  0.34083354940E+03  0.36423850483E+03  0.00000000000E+00 0. -1.
         21    1    1    2  505  502  0.29102876618E+02 -0.28515312112E+02 -0.17421478018E+01  0.40781558715E+02  0.00000000000E+00 0. -1.
         21    1    1    2  506  501 -0.21860164740E+02 -0.65436215021E+02  0.27464323453E+03  0.28317604297E+03  0.00000000000E+00 0. -1.
<scales pt_clust_3="35.65477" pt_clust_4="14000.00000" pt_clust_5="60.09790" pt_clust_6="82.43840"></scales>
<clustering>
<clus scale="   35.655">  2  3  1 -1</clus>
<clus scale="   60.098">  2  5  1 -1</clus>
<clus scale="   82.438">  1  6  2 -1</clus>
<clus scale="   82.438">  1  3  2 -1</clus>
</clustering>
</event>
<event>
 6    0  0.9315069E+002  0.7353675E+02  0.7546771E-02  0.1348463E+00
         21   -1    0    0  505  501  0.00000000000E+00  0.00000000000E+00  0.43937086983E+03  0.43937086983E+03  0.00000000000E+00 0.  1.
         21   -1    0    0  504  502 -0.00000000000E+00 -0.00000000000E+00 -0.56484677423E+02  0.56484677423E+02  0.00000000000E+00 0.  1.
         21    1    1    2  503  501  0.93100172787E+02 -0.32319667726E+02  0.15533059703E+03  0.18395596611E+03  0.00000000000E+00 0.  1.
         21    1    1    2  504  503  0.28657169650E+02  0.18010499374E+02  0.15289178887E+01  0.33881396813E+02  0.00000000000E+00 0.  1.
         21    1    1    2  505  506 -0.56108113121E+02 -0.17262147072E+02  0.18569340880E+03  0.19475149333E+03  0.00000000000E+00 0.  1.
         21    1    1    2  506  502 -0.65649229317E+02  0.31571315424E+02  0.40333268683E+02  0.83266691000E+02  0.00000000000E+00 0.  1.
<scales pt_clust_3="14000.00000" pt_clust_4="33.84688" pt_clust_5="55.03975" pt_clust_6="73.53675"></scales>
<clustering>
<clus scale="   33.847">  2  4  1 -1</clus>
<clus scale="   55.040">  1  5  2 -1</clus>
<clus scale="   73.537">  2  6  1 -1</clus>
<clus scale="   55.040">  1  3  2 -1</clus>
</clustering>
</event>
<event>
 6    0  0.9315069E+002  0.9650677E+02  0.7546771E-02  0.1287818E+00
         21   -1    0    0  504  501  0.00000000000E+00  0.00000000000E+00  0.21308055331E+04  0.21308055331E+04  0.00000000000E+00 0. -1.
         21   -1    0    0  505  502 -0.00000000000E+00 -0.00000000000E+00 -0.36056211825E+03  0.36056211825E+03  0.00000000000E+00 0.  1.
         21    1    1    2  503  501  0.12210665072E+03  0.88598538365E+02  0.65996589996E+02  0.16466719479E+03  0.00000000000E+00 0.  1.
         21    1    1    2  504  502 -0.27785491545E+02 -0.44707918016E+02  0.20037147377E+04  0.20044060421E+04  0.00000000000E+00 0. -1.
         21    1    1    2  505  506 -0.41701036228E+02 -0.26307592237E+02 -0.21947379530E+03  0.22494402116E+03  0.00000000000E+00 0.  1.
         21    1    1    2  506  503 -0.52620122944E+02 -0.17583028112E+02 -0.79994117600E+02  0.97350393255E+02  0.00000000000E+00 0.  1.
<scales pt_clust_3="96.50677" pt_clust_4="52.74953" pt_clust_5="49.30584" pt_clust_6="14000.00000"></scales>
<clustering>
<clus scale="   49.306">  2  5  1 -1</clus>
<clus scale="   52.750">  1  4  2 -1</clus>
<clus scale="   96.507">  1  3  2 -1</clus>
<clus scale="   52.750">  1  3  2 -1</clus>
</clustering>
</event>
<event>
 6    0  0.9315069E+002  0.1844041E+03  0.7546771E-02  0.1163608E+00
         21   -1    0    0  504  501  0.00000000000E+00  0.00000000000E+00  0.11635287865E+04  0.11635287865E+04  0.00000000000E+00 0. -1.
         21   -1    0    0  506  502 -0.00000000000E+00 -0.00000000000E+00 -0.39726427350E+02  0.39726427350E+02  0.00000000000E+00 0. -1.
         21    1    1    2  503  502  0.78784249493E+02 -0.13405474497E+03  0.34897244755E+03  0.38204633458E+03  0.00000000000E+00 0. -1.
         21    1    1    2  504  503  0.39581531969E+02 -0.21100383870E+02  0.30330516769E+03  0.30660389532E+03  0.00000000000E+00 0. -1.
         21    1    1    2  505  501 -0.44174758706E+02  0.15567645672E+02  0.13256593965E+03  0.14059690343E+03  0.00000000000E+00 0. -1.
         21    1    1    2  506  505 -0.74191022756E+02  0.13958748317E+03  0.33895880427E+03  0.37400808054E+03  0.00000000000E+00 0. -1.
<scales pt_clust_3="172.06320" pt_clust_4="44.85447" pt_clust_5="36.10304" pt_clust_6="36.10304"></scales>
<clustering>
<clus scale="   36.103">  5  6 -1 -1</clus>
<clus scale="   44.854">  1  4  2 -1</clus>
<clus scale="  172.063">  2  3  1 -1</clus>
<clus scale="   44.854">  1  3  2 -1</clus>
</clustering>
</event>
<event>
 6    0  0.9315069E+002  0.1323446E+03  0.7546771E-02  0.1224018E+00
         21   -1    0    0  506  501  0.00000000000E+00  0.00000000000E+00  0.36658575439E+03  0.36658575439E+03  0.00000000000E+00 0. -1.
         21   -1    0    0  504  502 -0.00000000000E+00 -0.00000000000E+00 -0.10587036918E+03  0.10587036918E+03  0.00000000000E+00 0. -1.
         21    1    1    2  503  501  0.58998196910E+02  0.24096744445E+02  0.14516894435E+03  0.15854167507E+03  0.00000000000E+00 0. -1.
         21    1    1    2  504  503  0.57938177612E+02 -0.10690234887E+02  0.99423938543E+02  0.11556917021E+03  0.00000000000E+00 0. -1.
         21    1    1    2  505  502 -0.12030739329E+03 -0.46549738436E+02 -0.38274683886E+02  0.13455741695E+03  0.00000000000E+00 0. -1.
         21    1    1    2  506  505  0.33710187732E+01  0.33143228878E+02  0.54397186204E+02  0.63787861345E+02  0.00000000000E+00 0. -1.
<scales pt_clust_3="34.37314" pt_clust_4="34.37314" pt_clust_5="126.71967" pt_clust_6="33.31422"></scales>
<clustering>
<clus scale="   33.314">  1  6  2 -1</clus>
<clus scale="   34.373">  3  4 -1 -1</clus>
<clus scale="  126.720">  2  5  1 -1</clus>
<clus scale="   33.314">  1  3  2 -1</clus>
</clustering>
</event>
<event>
 6    0  0.9315069E+002  0.2851726E+03  0.7546771E-02  0.1092897E+00
         21   -1    0    0  503  501  0.00000000000E+00  0.00000000000E+00  0.85532736328E+03  0.85532736328E+03  0.00000000000E+00 0. -1.
         21   -1    0    0  504  502 -0.00000000000E+00 -0.00000000000E+00 -0.17403397942E+04  0.17403397942E+04  0.00000000000E+00 0. -1.
         21    1    1    2  503  505  0.12388104753E+03 -0.83471003281E+02  0.21000176524E+02  0.15084737233E+03  0.00000000000E+00 0.  1.
         21    1    1    2  504  506  0.10384808843E+03  0.15121288692E+03  0.55294990825E+03  0.58258335342E+03  0.00000000000E+00 0. -1.
         21    1    1    2  505  502 -0.26690107165E+03 -0.79507305298E+02 -0.16467060552E+04  0.16700893466E+04  0.00000000000E+00 0. -1.
         21    1    1    2  506  501  0.39171935685E+02  0.11765421658E+02  0.18774353947E+03  0.19214708508E+03  0.00000000000E+00 0. -1.
<scales pt_clust_3="149.37845" pt_clust_4="31.89948" pt_clust_5="277.05519" pt_clust_6="31.89948"></scales>
<clustering>
<clus scale="   31.899">  4  6 -1 -1</clus>
<clus scale="  149.378">  1  3  2 -1</clus>
<clus scale="  277.055">  2  5  1 -1</clus>
<clus scale="  149.378">  1  3  2 -1</clus>
</clustering>
</event>
<event>
 6    0  0.9315069E+002  0.2073545E+03  0.7546771E-02  0.1143678E+00
         21   -1    0    0  505  501  0.00000000000E+00  0.00000000000E+00  0.80214158955E+03  0.80214158955E+03  0.00000000000E+00 0.  1.
         21   -1    0    0  504  502 -0.00000000000E+00 -0.00000000000E+00 -0.19168832554E+03  0.19168832554E+03  0.00000000000E+00 0.  1.
         21    1    1    2  503  506 -0.21500718282E+03 -0.10041350524E+03  0.26839530731E+03  0.35825549778E+03  0.00000000000E+00 0.  1.
         21    1    1    2  504  501  0.70808768522E+02 -0.78921902887E+02  0.85463347305E+02  0.13618565338E+03  0.00000000000E+00 0.  1.
         21    1    1    2  505  503  0.17422303355E+03  0.43799034686E+02  0.30364812984E+03  0.35280902429E+03  0.00000000000E+00 0.  1.
         21    1    1    2  506  502 -0.30024619254E+02  0.13553637344E+03 -0.47053520446E+02  0.14657973964E+03  0.00000000000E+00 0. -1.
<scales pt_clust_3="14000.00000" pt_clust_4="106.03088" pt_clust_5="207.35445" pt_clust_6="132.22629"></scales>
<clustering>
<clus scale="  106.031">  1  4  2 -1</clus>
<clus scale="  132.226">  2  6  1 -1</clus>
<clus scale="  207.354">  1  5  2 -1</clus>
<clus scale="  106.031">  1  3  2 -1</clus>
</clustering>
</event>
<event>
 6    0  0.9315069E+002  0.1443261E+03  0.7546771E-02  0.1207624E+00
         21   -1    0    0  506  501  0.00000000000E+00  0.00000000000E+00  0.15973811734E+03  0.15973811734E+03  0.00000000000E+00 0.  1.
         21   -1    0    0  505  502 -0.00000000000E+00 -0.00000000000E+00 -0.38970336610E+03  0.38970336610E+03  0.00000000000E+00 0.  1.
         21    1    1    2  503  502 -0.13295028747E+03 -0.22392702069E+02 -0.20337916662E+03  0.24400880611E+03  0.00000000000E+00 0.  1.
         21    1    1    2  504  501 -0.69539530758E+02  0.15309945941E+02  0.23743839152E+02  0.75059381029E+02  0.00000000000E+00 0.  1.
         21    1    1    2  505  504  0.18289714546E+03 -0.27412851688E+02 -0.45089491203E+02  0.19035727586E+03  0.00000000000E+00 0.  1.
         21    1    1    2  506  503  0.19592672765E+02  0.34495607816E+02 -0.52404300849E+01  0.40016020444E+02  0.00000000000E+00 0. -1.
<scales pt_clust_3="144.32612" pt_clust_4="68.41481" pt_clust_5="14000.00000" pt_clust_6="39.67140"></scales>
<clustering>
<clus scale="   39.671">  1  6  2 -1</clus>
<clus scale="   68.415">  1  4  2 -1</clus>
<clus scale="  144.326">  2  3  1 -1</clus>
<clus scale="   39.671">  1  3  2 -1</clus>
</clustering>
</event>
<event>
 6    0  0.9315069E+002  0.1358567E+03  0.7546771E-02  0.1219015E+00
         21   -1    0    0  506  501  0.00000000000E+00  0.00000000000E+00  0.11402360612E+03  0.11402360612E+03  0.00000000000E+00 0. -1.
         21   -1    0    0  503  502 -0.00000000000E+00 -0.00000000000E+00 -0.25417145430E+04  0.25417145430E+04  0.00000000000E+00 0.  1.
         21    1    1    2  503  505  0.51629055917E+02 -0.50831998592E+02 -0.46938574257E+03  0.47494465659E+03  0.00000000000E+00 0. -1.
         21    1    1    2  504  502 -0.51308648718E+02 -0.30014163185E+01 -0.38370470929E+03  0.38713161827E+03  0.00000000000E+00 0.  1.
         21    1    1    2  505  501  0.26311014938E+02  0.13467062269E+03  0.65014172945E+02  0.15183968126E+03  0.00000000000E+00 0. -1.
         21    1    1    2  506  504 -0.26631422137E+02 -0.80837207778E+02 -0.16396146580E+04  0.16418221930E+04  0.00000000000E+00 0.  1.
<scales pt_clust_3="65.44321" pt_clust_4="51.39636" pt_clust_5="14000.00000" pt_clust_6="135.85670"></scales>
<clustering>
<clus scale="   51.396">  2  4  1 -1</clus>
<clus scale="   65.443">  2  3  1 -1</clus>
<clus scale="  135.857">  2  6  1 -1</clus>
<clus scale="  135.857">  1  3  2 -1</clus>
</clustering>
</event>
<event>
 6    0  0.9685635E+002  0.1744551E+03  0.7546771E-02  0.1173280E+00
         21   -1    0    0  505  501  0.00000000000E+00  0.00000000000E+00  0.12395050599E+04  0.12395050599E+04  0.00000000000E+00 0. -1.
         21   -1    0    0  506  502 -0.00000000000E+00 -0.00000000000E+00 -0.37038626639E+03  0.37038626639E+03  0.00000000000E+00 0. -1.
         21    1    1    2  503  501  0.69446109721E+02  0.32141694513E+02  0.88773761030E+03  0.89102969390E+03  0.00000000000E+00 0. -1.
         21    1    1    2  504  503  0.11156654232E+03  0.21909792816E+02  0.20044352278E+03  0.23044465325E+03  0.00000000000E+00 0. -1.
         21    1    1    2  505  502 -0.20739622458E+02  0.31317167352E+02  0.10798856122E+03  0.11433471155E+03  0.00000000000E+00 0.  1.
         21    1    1    2  506  504 -0.16027302958E+03 -0.85368654680E+02 -0.32705090079E+03  0.37408226758E+03  0.00000000000E+00 0. -1.
<scales pt_clust_3="77.77357" pt_clust_4="14000.00000" pt_clust_5="37.56191" pt_clust_6="174.45506"></scales>
<clustering>
<clus scale="   37.562">  1  5  2 -1</clus>
<clus scale="   77.774">  1  3  2 -1</clus>
<clus scale="  174.455">  2  6  1 -1</clus>
<clus scale="   37.562">  1  3  2 -1</clus>
</clustering>
</event>
<event>
 6    0  0.9315069E+002  0.1673590E+03  0.7546771E-02  0.1180630E+00
         21   -1    0    0  504  501  0.00000000000E+00  0.00000000000E+00  0.50627891278E+03  0.50627891278E+03  0.00000000000E+00 0. -1.
         21   -1    0    0  506  502 -0.00000000000E+00 -0.00000000000E+00 -0.13784254257E+04  0.13784254257E+04  0.00000000000E+00 0. -1.
         21    1    1    2  503  501  0.11923232357E+03 -0.11646246240E+03  0.45970479153E+03  0.48898706270E+03  0.00000000000E+00 0. -1.
         21    1    1    2  504  505  0.76191569207E+02 -0.28321321253E+02 -0.71869700459E+02  0.10850118110E+03  0.00000000000E+00 0.  1.
         21    1    1    2  505  502  0.43619745292E+01  0.33093867937E+02 -0.12464360511E+03  0.12903588343E+03  0.00000000000E+00 0.  1.
         21    1    1    2  506  503 -0.19978586730E+03  0.11168991572E+03 -0.11353379989E+04  0.11581802113E+04  0.00000000000E+00 0. -1.
<scales pt_clust_3="167.35899" pt_clust_4="80.78280" pt_clust_5="33.38010" pt_clust_6="14000.00000"></scales>
<clustering>
<clus scale="   33.380">  2  5  1 -1</clus>
<clus scale="   80.783">  2  4  1 -1</clus>
<clus scale="  167.359">  1  3  2 -1</clus>
<clus scale="  167.359">  1  3  2 -1</clus>
</clustering>
</event>
<event>
 6    0  0.9315069E+002  0.1504078E+03  0.7546771E-02  0.1199973E+00
         21   -1    0    0  502  501  0.00000000000E+00  0.00000000000E+00  0.46674650036E+02  0.46674650036E+02  0.00000000000E+00 0. -1.
         21   -1    0    0  504  502 -0.00000000000E+00 -0.00000000000E+00 -0.13861934419E+04  0.13861934419E+04  0.00000000000E+00 0. -1.
         21    1    1    2  503  506 -0.66172684018E+02  0.95826330703E+01 -0.76845212304E+02  0.10186185557E+03  0.00000000000E+00 0. -1.
         21    1    1    2  504  505 -0.12636433441E+02 -0.85231920680E+02 -0.86576123995E+03  0.87003832349E+03  0.00000000000E+00 0. -1.
         21    1    1    2  505  503  0.12373295493E+03 -0.10171114461E+02 -0.29652289496E+03  0.32146403056E+03  0.00000000000E+00 0. -1.
         21    1    1    2  506  501 -0.44923837473E+02  0.85820402071E+02 -0.10038944468E+03  0.13950388234E+03  0.00000000000E+00 0. -1.
<scales pt_clust_3="61.05845" pt_clust_4="86.16356" pt_clust_5="131.23027" pt_clust_6="61.05845"></scales>
<clustering>
<clus scale="   61.058">  3  6 -1 -1</clus>
<clus scale="   86.164">  2  4  1 -1</clus>
<clus scale="  131.230">  2  5  1 -1</clus>
<clus scale="  150.408">  1  3  2 -1</clus>
</clustering>
</event>
<event>
 6    0  0.9315069E+002  0.1065963E+03  0.7546771E-02  0.1267006E+00
         21   -1    0    0  503  501  0.00000000000E+00  0.00000000000E+00  0.82747168158E+03  0.82747168158E+03  0.00000000000E+00 0.  1.
         21   -1    0    0  506  502 -0.00000000000E+00 -0.00000000000E+00 -0.40890021983E+02  0.40890021983E+02  0.00000000000E+00 0.  1.
         21    1    1    2  503  504 -0.31211096325E+02 -0.14095352120E+02  0.11112804599E+03  0.11628522731E+03  0.00000000000E+00 0.  1.
         21    1    1    2  504  505 -0.56285164196E+02  0.11422289561E+02  0.44599266072E+02  0.72715768177E+02  0.00000000000E+00 0.  1.
         21    1    1    2  505  502 -0.30909115970E+02  0.29578402014E+02  0.64563589393E+01  0.43265920613E+02  0.00000000000E+00 0.  1.
         21    1    1    2  506  501  0.11840537649E+03 -0.26905339455E+02  0.62439798859E+03  0.63609478746E+03  0.00000000000E+00 0.  1.
<scales pt_clust_3="34.24634" pt_clust_4="34.10163" pt_clust_5="34.10163" pt_clust_6="99.00297"></scales>
<clustering>
<clus scale="   34.102">  4  5 -1 -1</clus>
<clus scale="   34.246">  1  3  2 -1</clus>
<clus scale="   99.003">  1  6  2 -1</clus>
<clus scale="   34.246">  1  3  2 -1</clus>
</clustering>
</event>
<event>
 6    0  0.9315069E+002  0.9378237E+02  0.7546771E-02  0.1293942E+00
         21   -1    0    0  504  501  0.00000000000E+00  0.00000000000E+00  0.10532746456E+03  0.10532746456E+03  0.00000000000E+00 0.  1.
         21   -1    0    0  506  502 -0.00000000000E+00 -0.00000000000E+00 -0.23018495648E+03  0.23018495648E+03  0.00000000000E+00 0.  1.
         21    1    1    2  503  505  0.25107658489E+01  0.69286521331E+02 -0.69161963846E+02  0.97930093568E+02  0.00000000000E+00 0.  1.
         21    1    1    2  504  503 -0.11533250539E+02  0.40105225636E+02 -0.77458081425E+01  0.42443403906E+02  0.00000000000E+00 0.  1.
         21    1    1    2  505  502  0.60529176715E+02 -0.52679434772E+02 -0.78879019907E+02  0.11252023757E+03  0.00000000000E+00 0.  1.
         21    1    1    2  506  501 -0.51506692024E+02 -0.56712312195E+02  0.30929299976E+02  0.82618685990E+02  0.00000000000E+00 0.  1.
<scales pt_clust_3="32.38015" pt_clust_4="32.38015" pt_clust_5="83.98321" pt_clust_6="76.61087"></scales>
<clustering>
<clus scale="   32.380">  3  4 -1 -1</clus>
<clus scale="   76.611">  1  6  2 -1</clus>
<clus scale="   83.983">  2  5  1 -1</clus>
<clus scale="   76.611">  1  3  2 -1</clus>
</clustering>
</event>
<event>
 6    0  0.9315069E+002  0.1709978E+03  0.7546771E-02  0.1176811E+00
         21   -1    0    0  506  501  0.00000000000E+00  0.00000000000E+00  0.35085468439E+03  0.35085468439E+03  0.00000000000E+00 0. -1.
         21   -1    0    0  501  502 -0.00000000000E+00 -0.00000000000E+00 -0.41808052573E+03  0.41808052573E+03  0.00000000000E+00 0.  1.
         21    1    1    2  503  505  0.20332281784E+03  0.77234146155E+01  0.26200145661E+02  0.20514937734E+03  0.00000000000E+00 0. -1.
         21    1    1    2  504  502 -0.74075014298E+02 -0.54692456398E+01 -0.14387466295E+03  0.16191645695E+03  0.00000000000E+00 0. -1.
         21    1    1    2  505  504 -0.79055093587E+02 -0.45412155918E+02 -0.15840959714E+03  0.18277191303E+03  0.00000000000E+00 0.  1.
         21    1    1    2  506  503 -0.50192709960E+02  0.43157986942E+02  0.20885827309E+03  0.21909746280E+03  0.00000000000E+00 0. -1.
<scales pt_clust_3="166.86431" pt_clust_4="33.73095" pt_clust_5="33.73095" pt_clust_6="66.19607"></scales>
<clustering>
<clus scale="   33.731">  4  5 -1 -1</clus>
<clus scale="   66.196">  1  6  2 -1</clus>
<clus scale="  166.864">  1  3  2 -1</clus>
<clus scale="   66.196">  1  3  2 -1</clus>
</clustering>
</event>
<event>
 6    0  0.9315069E+002  0.2404853E+03  0.7546771E-02  0.1119470E+00
         21   -1    0    0  505  501  0.00000000000E+00  0.00000000000E+00  0.74234324667E+03  0.74234324667E+03  0.00000000000E+00 0. -1.
         21   -1    0    0  501  502 -0.00000000000E+00 -0.00000000000E+00 -0.10215861418E+03  0.10215861418E+03  0.00000000000E+00 0. -1.
         21    1    1    2  503  506 -0.71590290018E+02  0.61972639473E+02  0.11408206651E+03  0.14825820574E+03  0.00000000000E+00 0. -1.
         21    1    1    2  504  502 -0.75669537047E+02 -0.20265835570E+02  0.53914944208E+02  0.95096814548E+02  0.00000000000E+00 0. -1.
         21    1    1    2  505  503  0.17730552578E+02  0.13939655426E+03  0.24883254554E+03  0.28576810100E+03  0.00000000000E+00 0. -1.
         21    1    1    2  506  504  0.12952927449E+03 -0.18110335816E+03  0.22335507624E+03  0.31537873956E+03  0.00000000000E+00 0. -1.
<scales pt_clust_3="101.37143" pt_clust_4="78.33634" pt_clust_5="101.37143" pt_clust_6="211.21500"></scales>
<clustering>
<clus scale="   78.336">  2  4  1 -1</clus>
<clus scale="  101.371">  3  5 -1 -1</clus>
<clus scale="  211.215">  2  6  1 -1</clus>
<clus scale="  240.485">  1  3  2 -1</clus>
</clustering>
</event>
<event>
 6    0  0.9315069E+002  0.8028524E+02  0.7546771E-02  0.1328244E+00
         21   -1    0    0  506  501  0.00000000000E+00  0.00000000000E+00  0.18505603598E+03  0.18505603598E+03  0.00000000000E+00 0.  1.
         21   -1    0    0  503  502 -0.00000000000E+00 -0.00000000000E+00 -0.15644876093E+03  0.15644876093E+03  0.00000000000E+00 0.  1.
         21    1    1    2  503  505  0.66420836085E+02  0.71598857436E+02 -0.29559076927E+02  0.10203853626E+03  0.00000000000E+00 0.  1.
         21    1    1    2  504  502 -0.28221346446E+01 -0.78121578415E+02 -0.47296913453E+02  0.91367080943E+02  0.00000000000E+00 0.  1.
         21    1    1    2  505  501 -0.17417968279E+02  0.29819170474E+02  0.47215674533E+01  0.34854866891E+02  0.00000000000E+00 0.  1.
         21    1    1    2  506  504 -0.46180733162E+02 -0.23296449495E+02  0.10074169798E+03  0.11324431282E+03  0.00000000000E+00 0.  1.
<scales pt_clust_3="80.28524" pt_clust_4="14000.00000" pt_clust_5="34.53359" pt_clust_6="57.59548"></scales>
<clustering>
<clus scale="   34.534">  1  5  2 -1</clus>
<clus scale="   57.595">  1  6  2 -1</clus>
<clus scale="   80.285">  1  3  2 -1</clus>
<clus scale="   34.534">  1  3  2 -1</clus>
</clustering>
</event>
<event>
 6    0  0.9315069E+002  0.8431050E+02  0.7546771E-02  0.1317246E+00
         21   -1    0    0  503  501  0.00000000000E+00  0.00000000000E+00  0.71871869656E+02  0.71871869656E+02  0.00000000000E+00 0.  1.
         21   -1    0    0  505  502 -0.00000000000E+00 -0.00000000000E+00 -0.92642822138E+03  0.92642822138E+03  0.00000000000E+00 0. -1.
         21    1    1    2  503  506 -0.76325867436E+02  0.27534792397E+02  0.28107305400E+02  0.85870969769E+02  0.00000000000E+00 0.  1.
         21    1    1    2  504  501  0.10244670984E+03 -0.87043986421E+02 -0.37565163958E+03  0.39898137581E+03  0.00000000000E+00 0. -1.
         21    1    1    2  505  504 -0.15614723944E+02  0.26671409091E+02 -0.92964568541E+02  0.97967314298E+02  0.00000000000E+00 0. -1.
         21    1    1    2  506  502 -0.10506118458E+02  0.32837784933E+02 -0.41404744901E+03  0.41548043116E+03  0.00000000000E+00 0. -1.
<scales pt_clust_3="84.31050" pt_clust_4="14000.00000" pt_clust_5="30.90605" pt_clust_6="49.64631"></scales>
<clustering>
<clus scale="   30.906">  2  5  1 -1</clus>
<clus scale="   49.646">  2  6  1 -1</clus>
<clus scale="   84.310">  1  3  2 -1</clus>
<clus scale="   84.310">  1  3  2 -1</clus>
</clustering>
</event>
<event>
 6    0  0.9315069E+002  0.1725043E+03  0.7546771E-02  0.1175261E+00
         21   -1    0    0  504  501  0.00000000000E+00  0.00000000000E+00  0.52053428883E+02  0.52053428883E+02  0.00000000000E+00 0. -1.
         21   -1    0    0  505  502 -0.00000000000E+00 -0.00000000000E+00 -0.21377514143E+04  0.21377514143E+04  0.00000000000E+00 0. -1.
         21    1    1    2  503  502  0.99676851441E+02  0.48298316801E+02 -0.64798754191E+03  0.65738577456E+03  0.00000000000E+00 0. -1.
         21    1    1    2  504  503  0.12168948045E+03  0.67627919190E+02 -0.60092506198E+03  0.61684098050E+03  0.00000000000E+00 0. -1.
         21    1    1    2  505  506 -0.73546237244E+02 -0.61688986624E+02 -0.70134774236E+03  0.70788645685E+03  0.00000000000E+00 0. -1.
         21    1    1    2  506  501 -0.14782009464E+03 -0.54237249367E+02 -0.13543763917E+03  0.20769163128E+03  0.00000000000E+00 0. -1.
<scales pt_clust_3="33.72025" pt_clust_4="33.72025" pt_clust_5="95.99260" pt_clust_6="168.31084"></scales>
<clustering>
<clus scale="   33.720">  3  4 -1 -1</clus>
<clus scale="   95.993">  2  5  1 -1</clus>
<clus scale="  168.311">  1  6  2 -1</clus>
<clus scale="  168.311">  1  3  2 -1</clus>
</clustering>
</event>
<event>
 6    0  0.9315069E+002  0.1140763E+03  0.7546771E-02  0.1253202E+00
         21   -1    0    0  503  501  0.00000000000E+00  0.00000000000E+00  0.20728313632E+03  0.20728313632E+03  0.00000000000E+00 0.  1.
         21   -1    0    0  505  502 -0.00000000000E+00 -0.00000000000E+00 -0.27171309098E+03  0.27171309098E+03  0.00000000000E+00 0.  1.
         21    1    1    2  503  502 -0.86221549923E+02 -0.27749293547E+02  0.10492872819E+03  0.13861535616E+03  0.00000000000E+00 0.  1.
         21    1    1    2  504  501  0.10547593264E+03  0.74367002931E+02 -0.78795113741E+01  0.12929698446E+03  0.00000000000E+00 0.  1.
         21    1    1    2  505  506 -0.64107399027E+02 -0.54491916096E+02 -0.13298115679E+03  0.15736300579E+03  0.00000000000E+00 0.  1.
         21    1    1    2  506  504  0.44853016309E+02  0.78742067119E+01 -0.28498014674E+02  0.53720880891E+02  0.00000000000E+00 0.  1.
<scales pt_clust_3="101.01291" pt_clust_4="31.48759" pt_clust_5="84.13755" pt_clust_6="31.48759"></scales>
<clustering>
<clus scale="   31.488">  4  6 -1 -1</clus>
<clus scale="   84.138">  2  5  1 -1</clus>
<clus scale="  101.013">  1  3  2 -1</clus>
<clus scale="  101.013">  1  3  2 -1</clus>
</clustering>
</event>
<event>
 6    0  0.9315069E+002  0.1050809E+03  0.7546771E-02  0.1269960E+00
         21   -1    0    0  506  501  0.00000000000E+00  0.00000000000E+00  0.43472095386E+03  0.43472095386E+03  0.00000000000E+00 0. -1.
         21   -1    0    0  504  502 -0.00000000000E+00 -0.00000000000E+00 -0.16798400065E+03  0.16798400065E+03  0.00000000000E+00 0. -1.
         21    1    1    2  503  502  0.11778555251E+02 -0.39348655949E+02 -0.10975930111E+03  0.11719281236E+03  0.00000000000E+00 0. -1.
         21    1    1    2  504  501 -0.42779027667E+02 -0.12315101325E+02  0.11993849081E+03  0.12793337526E+03  0.00000000000E+00 0. -1.
         21    1    1    2  505  503  0.16058286142E+01 -0.76283180268E+02  0.83038867747E+01  0.76750614413E+02  0.00000000000E+00 0. -1.
         21    1    1    2  506  505  0.29394643801E+02  0.12794693754E+03  0.24825387673E+03  0.28082815247E+03  0.00000000000E+00 0. -1.
<scales pt_clust_3="41.07373" pt_clust_4="44.58644" pt_clust_5="14000.00000" pt_clust_6="105.08087"></scales>
<clustering>
<clus scale="   41.074">  2  3  1 -1</clus>
<clus scale="   44.586">  1  4  2 -1</clus>
<clus scale="  105.081">  1  6  2 -1</clus>
<clus scale="   44.586">  1  3  2 -1</clus>
</clustering>
</event>
<event>
 6    0  0.9315069E+002  0.7462908E+02  0.7546771E-02  0.1345024E+00
         21   -1    0    0  505  501  0.00000000000E+00  0.00000000000E+00  0.14066664553E+04  0.14066664553E+04  0.00000000000E+00 0.  1.
         21   -1    0    0  503  502 -0.00000000000E+00 -0.00000000000E+00 -0.17922389735E+03  0.17922389735E+03  0.00000000000E+00 0. -1.
         21    1    1    2  503  506  0.92852202424E+02  0.35078442224E+02  0.39478224240E+03  0.40706884862E+03  0.00000000000E+00 0.  1.
         21    1    1    2  504  501 -0.29701363336E+02 -0.80334753625E+01  0.71216585119E+03  0.71283020932E+03  0.00000000000E+00 0.  1.
         21    1    1    2  505  502 -0.35057808987E+02 -0.65869784370E+02 -0.16258167205E+03  0.17888733480E+03  0.00000000000E+00 0. -1.
         21    1    1    2  506  504 -0.28093030101E+02  0.38824817509E+02  0.28307613642E+03  0.28710395993E+03  0.00000000000E+00 0.  1.
<scales pt_clust_3="14000.00000" pt_clust_4="30.76862" pt_clust_5="74.62908" pt_clust_6="53.71630"></scales>
<clustering>
<clus scale="   30.769">  1  4  2 -1</clus>
<clus scale="   53.716">  1  6  2 -1</clus>
<clus scale="   74.629">  2  5  1 -1</clus>
<clus scale="   30.769">  1  3  2 -1</clus>
</clustering>
</event>
<event>
 6    0  0.9315069E+002  0.3372846E+03  0.7546771E-02  0.1067958E+00
         21   -1    0    0  503  501  0.00000000000E+00  0.00000000000E+00  0.78141628298E+03  0.78141628298E+03  0.00000000000E+00 0.  1.
         21   -1    0    0  505  502 -0.00000000000E+00 -0.00000000000E+00 -0.18243872862E+03  0.18243872862E+03  0.00000000000E+00 0.  1.
         21    1    1    2  503  506  0.27384708641E+03 -0.12723700538E+02  0.35738005475E+03  0.45041605525E+03  0.00000000000E+00 0.  1.
         21    1    1    2  504  501 -0.33078567993E+02  0.19700307430E+02  0.52697164259E+02  0.65263197088E+02  0.00000000000E+00 0.  1.
         21    1    1    2  505  504 -0.29368933471E+03 -0.70353935383E+02  0.81681845657E+02  0.31284984490E+03  0.00000000000E+00 0.  1.
         21    1    1    2  506  502  0.52920816298E+02  0.63377328492E+02  0.10721848969E+03  0.13532591435E+03  0.00000000000E+00 0. -1.
<scales pt_clust_3="75.71837" pt_clust_4="38.50057" pt_clust_5="309.61606" pt_clust_6="75.71837"></scales>
<clustering>
<clus scale="   38.501">  1  4  2 -1</clus>
<clus scale="   75.718">  3  6 -1 -1</clus>
<clus scale="  309.616">  2  5  1 -1</clus>
<clus scale="   38.501">  1  3  2 -1</clus>
</clustering>
</event>
<event>
 6    0  0.9315069E+002  0.9478906E+02  0.7546771E-02  0.1291652E+00
         21   -1    0    0  503  501  0.00000000000E+00  0.00000000000E+00  0.65310913046E+02  0.65310913046E+02  0.00000000000E+00 0.  1.
         21   -1    0    0  505  502 -0.00000000000E+00 -0.00000000000E+00 -0.10935252659E+04  0.10935252659E+04  0.00000000000E+00 0.  1.
         21    1    1    2  503  504  0.33910936599E+02  0.82638893772E+02 -0.71606865358E+02  0.11448441619E+03  0.00000000000E+00 0.  1.
         21    1    1    2  504  502 -0.77354194966E+02 -0.58417142104E+02 -0.84923925330E+03  0.85475349857E+03  0.00000000000E+00 0.  1.
         21    1    1    2  505  506  0.57584526504E+02 -0.51979343718E+02 -0.12979691645E+03  0.15121200146E+03  0.00000000000E+00 0.  1.
         21    1    1    2  506  501 -0.14141268136E+02  0.27757592050E+02  0.22428682231E+02  0.38386262745E+02  0.00000000000E+00 0.  1.
<scales pt_clust_3="14000.00000" pt_clust_4="94.78906" pt_clust_5="68.73346" pt_clust_6="31.15220"></scales>
<clustering>
<clus scale="   31.152">  1  6  2 -1</clus>
<clus scale="   68.733">  1  5  2 -1</clus>
<clus scale="   94.789">  2  4  1 -1</clus>
<clus scale="   31.152">  1  3  2 -1</clus>
</clustering>
</event>
<event>
 6    0  0.9315069E+002  0.1683068E+03  0.7546771E-02  0.1179625E+00
         21   -1    0    0  502  501  0.00000000000E+00  0.00000000000E+00  0.45474934797E+03  0.45474934797E+03  0.00000000000E+00 0. -1.
         21   -1    0    0  505  502 -0.00000000000E+00 -0.00000000000E+00 -0.24462619199E+03  0.24462619199E+03  0.00000000000E+00 0. -1.
         21    1    1    2  503  504  0.90287333472E+01  0.10559178190E+03  0.11318682656E+03  0.15505611932E+03  0.00000000000E+00 0. -1.
         21    1    1    2  504  501 -0.13246818744E+03 -0.10035560482E+03  0.24929405854E+03  0.29961074034E+03  0.00000000000E+00 0. -1.
         21    1    1    2  505  506  0.10244530649E+03 -0.52090018578E+02 -0.15539445028E+03  0.19327660499E+03  0.00000000000E+00 0. -1.
         21    1    1    2  506  503  0.20994147598E+02  0.46853841491E+02  0.30367211570E+01  0.51432075315E+02  0.00000000000E+00 0. -1.
<scales pt_clust_3="49.16017" pt_clust_4="152.77027" pt_clust_5="114.92785" pt_clust_6="49.16017"></scales>
<clustering>
<clus scale="   49.160">  3  6 -1 -1</clus>
<clus scale="  114.928">  2  5  1 -1</clus>
<clus scale="  152.770">  1  4  2 -1</clus>
<clus scale="  152.770">  1  3  2 -1</clus>
</clustering>
</event>
<event>
 6    0  0.9315069E+002  0.1365677E+03  0.7546771E-02  0.1218023E+00
         21   -1    0    0  504  501  0.00000000000E+00  0.00000000000E+00  0.16538270442E+04  0.16538270442E+04  0.00000000000E+00 0.  1.
         21   -1    0    0  503  502 -0.00000000000E+00 -0.00000000000E+00 -0.27661855526E+02  0.27661855526E+02  0.00000000000E+00 0.  1.
         21    1    1    2  503  501  0.79912364259E+02  0.11939678464E+03  0.11431717124E+04  0.11521645465E+04  0.00000000000E+00 0.  1.
         21    1    1    2  504  505  0.26034483418E+02 -0.53883604306E+02  0.27343783339E+03  0.27990978166E+03  0.00000000000E+00 0.  1.
         21    1    1    2  505  506 -0.31168107072E+02 -0.49655749886E+02  0.84502236006E+02  0.10284829743E+03  0.00000000000E+00 0.  1.
         21    1    1    2  506  502 -0.74778740605E+02 -0.15857430452E+02  0.12505340692E+03  0.14656627419E+03  0.00000000000E+00 0.  1.
<scales pt_clust_3="125.98961" pt_clust_4="59.84344" pt_clust_5="46.15299" pt_clust_6="46.15299"></scales>
<clustering>
<clus scale="   46.153">  5  6 -1 -1</clus>
<clus scale="   59.843">  1  4  2 -1</clus>
<clus scale="  125.990">  1  3  2 -1</clus>
<clus scale="   59.843">  1  3  2 -1</clus>
</clustering>
</event>
<event>
 6    0  0.9315069E+002  0.8283864E+02  0.7546771E-02  0.1321183E+00
         21   -1    0    0  503  501  0.00000000000E+00  0.00000000000E+00  0.61454083164E+03  0.61454083164E+03  0.00000000000E+00 0. -1.
         21   -1    0    0  504  502 -0.00000000000E+00 -0.00000000000E+00 -0.39957131479E+02  0.39957131479E+02  0.00000000000E+00 0. -1.
         21    1    1    2  503  506  0.19033730997E+02 -0.25551855792E+02  0.25766231547E+03  0.25962482366E+03  0.00000000000E+00 0. -1.
         21    1    1    2  504  505 -0.21365334439E+02  0.76001635820E+02  0.54816466843E+02  0.96112284336E+02  0.00000000000E+00 0. -1.
         21    1    1    2  505  501  0.11182439199E+02  0.45144946957E+02  0.10152343564E+03  0.11166969672E+03  0.00000000000E+00 0. -1.
         21    1    1    2  506  502 -0.88508357563E+01 -0.95594726986E+02  0.16058148221E+03  0.18709115839E+03  0.00000000000E+00 0. -1.
<scales pt_clust_3="31.86189" pt_clust_4="14000.00000" pt_clust_5="41.11789" pt_clust_6="82.83864"></scales>
<clustering>
<clus scale="   31.862">  1  3  2 -1</clus>
<clus scale="   41.118">  1  5  2 -1</clus>
<clus scale="   82.839">  1  6  2 -1</clus>
<clus scale="   31.862">  1  3  2 -1</clus>
</clustering>
</event>
<event>
 6    0  0.9315069E+002  0.1055542E+03  0.7546771E-02  0.1269032E+00
         21   -1    0    0  502  501  0.00000000000E+00  0.00000000000E+00  0.24308200928E+03  0.24308200928E+03  0.00000000000E+00 0.  1.
         21   -1    0    0  506  502 -0.00000000000E+00 -0.00000000000E+00 -0.20317145819E+04  0.20317145819E+04  0.00000000000E+00 0.  1.
         21    1    1    2  503  505 -0.37567647834E+02 -0.73767063896E+01 -0.90020041885E+03  0.90101417195E+03  0.00000000000E+00 0.  1.
         21    1    1    2  504  503 -0.27907452540E+02 -0.45394657104E+02 -0.87694885912E+03  0.87856633347E+03  0.00000000000E+00 0.  1.
         21    1    1    2  505  501  0.97909226349E+02 -0.43145679681E+01  0.22732266953E+03  0.24754883999E+03  0.00000000000E+00 0.  1.
         21    1    1    2  506  504 -0.32434125976E+02  0.57085931462E+02 -0.23880596414E+03  0.24766724573E+03  0.00000000000E+00 0. -1.
<scales pt_clust_3="33.64351" pt_clust_4="33.64351" pt_clust_5="97.80732" pt_clust_6="65.65650"></scales>
<clustering>
<clus scale="   33.644">  3  4 -1 -1</clus>
<clus scale="   65.657">  2  6  1 -1</clus>
<clus scale="   97.807">  1  5  2 -1</clus>
<clus scale="   97.807">  1  3  2 -1</clus>
</clustering>
</event>
<event>
 6    0  0.9315069E+002  0.1681408E+03  0.7546771E-02  0.1179801E+00
         21   -1    0    0  503  501  0.00000000000E+00  0.00000000000E+00  0.43445616375E+02  0.43445616375E+02  0.00000000000E+00 0.  1.
         21   -1    0    0  505  502 -0.00000000000E+00 -0.00000000000E+00 -0.12334456033E+04  0.12334456033E+04  0.00000000000E+00 0.  1.
         21    1    1    2  503  502 -0.19666344640E+01 -0.12472704765E+03 -0.35595627447E+03  0.37718108834E+03  0.00000000000E+00 0.  1.
         21    1    1    2  504  506 -0.29241335357E+02  0.13021841888E+03 -0.23113801684E+03  0.26690199538E+03  0.00000000000E+00 0.  1.
         21    1    1    2  505  504  0.25564866481E+02 -0.55400188670E+02 -0.56887657831E+03  0.57213923537E+03  0.00000000000E+00 0.  1.
         21    1    1    2  506  501  0.56431033396E+01  0.49908817444E+02 -0.34029117319E+02  0.60668900595E+02  0.00000000000E+00 0.  1.
<scales pt_clust_3="155.83624" pt_clust_4="38.73290" pt_clust_5="61.01429" pt_clust_6="38.73290"></scales>
<clustering>
<clus scale="   38.733">  4  6 -1 -1</clus>
<clus scale="   61.014">  2  5  1 -1</clus>
<clus scale="  155.836">  2  3  1 -1</clus>
<clus scale="  168.141">  1  3  2 -1</clus>
</clustering>
</event>
<event>
 6    0  0.9315069E+002  0.1585851E+03  0.7546771E-02  0.1190304E+00
         21   -1    0    0  503  501  0.00000000000E+00  0.00000000000E+00  0.61379322685E+03  0.61379322685E+03  0.00000000000E+00 0.  1.
         21   -1    0    0  504  502 -0.00000000000E+00 -0.00000000000E+00 -0.32041134557E+03  0.32041134557E+03  0.00000000000E+00 0.  1.
         21    1    1    2  503  502 -0.63926130841E+02 -0.28373979525E+02  0.11506884205E+03  0.13465686514E+03  0.00000000000E+00 0.  1.
         21    1    1    2  504  505  0.13005054515E+03  0.86467268478E+02 -0.28566741679E+03  0.32556966356E+03  0.00000000000E+00 0.  1.
         21    1    1    2  505  506 -0.51013139595E+02 -0.28907472058E+02  0.21553311395E+03  0.22336630354E+03  0.00000000000E+00 0.  1.
         21    1    1    2  506  501 -0.15111274718E+02 -0.29185816895E+02  0.24844734208E+03  0.25061174018E+03  0.00000000000E+00 0.  1.
<scales pt_clust_3="69.94021" pt_clust_4="153.35959" pt_clust_5="30.22716" pt_clust_6="30.22716"></scales>
<clustering>
<clus scale="   30.227">  5  6 -1 -1</clus>
<clus scale="   69.940">  1  3  2 -1</clus>
<clus scale="  153.360">  2  4  1 -1</clus>
<clus scale="   69.940">  1  3  2 -1</clus>
</clustering>
</event>
<event>
 6    0  0.9315069E+002  0.7938250E+02  0.7546771E-02  0.1330813E+00
         21   -1    0    0  504  501  0.00000000000E+00  0.00000000000E+00  0.15439675793E+04  0.15439675793E+04  0.00000000000E+00 0.  1.
         21   -1    0    0  505  502 -0.00000000000E+00 -0.00000000000E+00 -0.12272674664E+03  0.12272674664E+03  0.00000000000E+00 0.  1.
         21    1    1    2  503  501 -0.18831550983E+01 -0.47830502027E+02  0.59290720623E+03  0.59483632908E+03  0.00000000000E+00 0.  1.
         21    1    1    2  504  506 -0.72011954480E+02  0.56031593868E+02  0.46649460943E+03  0.47533407381E+03  0.00000000000E+00 0.  1.
         21    1    1    2  505  503  0.49518379225E+02 -0.46324846120E+02  0.47230558369E+03  0.47714843145E+03  0.00000000000E+00 0. -1.
         21    1    1    2  506  502  0.24376730353E+02  0.38123754279E+02 -0.11046656672E+03  0.11937549157E+03  0.00000000000E+00 0.  1.
<scales pt_clust_3="43.13429" pt_clust_4="79.38250" pt_clust_5="14000.00000" pt_clust_6="45.25092"></scales>
<clustering>
<clus scale="   45.251">  2  6  1 -1</clus>
<clus scale="   43.134">  1  3  2 -1</clus>
<clus scale="   79.382">  1  4  2 -1</clus>
<clus scale="   43.134">  1  3  2 -1</clus>
</clustering>
</event>
<event>
 6    0  0.9315069E+002  0.1351253E+03  0.7546771E-02  0.1220043E+00
         21   -1    0    0  504  501  0.00000000000E+00  0.00000000000E+00  0.48996537945E+03  0.48996537945E+03  0.00000000000E+00 0.  1.
         21   -1    0    0  505  502 -0.00000000000E+00 -0.00000000000E+00 -0.49125808546E+02  0.49125808546E+02  0.00000000000E+00 0.  1.
         21    1    1    2  503  501  0.75055356090E+02  0.10460350968E+03  0.25527719952E+03  0.28590496553E+03  0.00000000000E+00 0.  1.
         21    1    1    2  504  506 -0.47452856805E+02 -0.16391411726E+02  0.43597609189E+02  0.66492131296E+02  0.00000000000E+00 0. -1.
         21    1    1    2  505  503  0.26619612222E+02 -0.21212116883E+02  0.29813742380E+02  0.45248391046E+02  0.00000000000E+00 0.  1.
         21    1    1    2  506  502 -0.54222111507E+02 -0.66999981073E+02  0.11215101981E+03  0.14144570013E+03  0.00000000000E+00 0.  1.
<scales pt_clust_3="128.72550" pt_clust_4="31.36156" pt_clust_5="34.03759" pt_clust_6="31.36156"></scales>
<clustering>
<clus scale="   31.362">  4  6 -1 -1</clus>
<clus scale="   34.038">  2  5  1 -1</clus>
<clus scale="  128.726">  1  3  2 -1</clus>
<clus scale="  128.726">  1  3  2 -1</clus>
</clustering>
</event>
<event>
 6    0  0.9315069E+002  0.8160627E+02  0.7546771E-02  0.1324554E+00
         21   -1    0    0  506  501  0.00000000000E+00  0.00000000000E+00  0.20360743438E+03  0.20360743438E+03  0.00000000000E+00 0. -1.
         21   -1    0    0  505  502 -0.00000000000E+00 -0.00000000000E+00 -0.42591391554E+03  0.42591391554E+03  0.00000000000E+00 0.  1.
         21    1    1    2  503  502  0.37721793254E+02 -0.41020901420E+02  0.30519249940E+02  0.63537962325E+02  0.00000000000E+00 0. -1.
         21    1    1    2  504  501 -0.11205978318E+03 -0.46077684864E+02  0.24402343694E+02  0.12359620717E+03  0.00000000000E+00 0. -1.
         21    1    1    2  505  504  0.48180896216E+02  0.64048269672E+02 -0.35140311409E+03  0.36042714687E+03  0.00000000000E+00 0.  1.
         21    1    1    2  506  503  0.26157093712E+02  0.23050316612E+02  0.74175039296E+02  0.81960033564E+02  0.00000000000E+00 0. -1.
<scales pt_clust_3="57.50699" pt_clust_4="14000.00000" pt_clust_5="81.60627" pt_clust_6="34.86417"></scales>
<clustering>
<clus scale="   34.864">  1  6  2 -1</clus>
<clus scale="   57.507">  1  3  2 -1</clus>
<clus scale="   81.606">  2  5  1 -1</clus>
<clus scale="   34.864">  1  3  2 -1</clus>
</clustering>
</event>
<event>
 6    0  0.9315069E+002  0.1365994E+03  0.7546771E-02  0.1217979E+00
         21   -1    0    0  505  501  0.00000000000E+00  0.00000000000E+00  0.34739014481E+04  0.34739014481E+04  0.00000000000E+00 0. -1.
         21   -1    0    0  503  502 -0.00000000000E+00 -0.00000000000E+00 -0.11569457874E+03  0.11569457874E+03  0.00000000000E+00 0. -1.
         21    1    1    2  503  504  0.85710887304E+02 -0.47606257472E+02 -0.55730143234E+02  0.11277659694E+03  0.00000000000E+00 0. -1.
         21    1    1    2  504  501 -0.57755099203E+02  0.13603899027E+03  0.54093208346E+03  0.56075821641E+03  0.00000000000E+00 0. -1.
         21    1    1    2  505  506 -0.39935869936E+02 -0.32509418791E+02  0.28559025040E+04  0.28563667216E+04  0.00000000000E+00 0. -1.
         21    1    1    2  506  502  0.11980081835E+02 -0.55923314004E+02  0.17102425094E+02  0.59694491823E+02  0.00000000000E+00 0. -1.
<scales pt_clust_3="14000.00000" pt_clust_4="136.59945" pt_clust_5="51.49501" pt_clust_6="58.71725"></scales>
<clustering>
<clus scale="   51.495">  1  5  2 -1</clus>
<clus scale="   58.717">  2  6  1 -1</clus>
<clus scale="  136.599">  1  4  2 -1</clus>
<clus scale="   51.495">  1  3  2 -1</clus>
</clustering>
</event>
<event>
 6    0  0.9315069E+002  0.1347692E+03  0.7546771E-02  0.1220546E+00
         21   -1    0    0  505  501  0.00000000000E+00  0.00000000000E+00  0.29519635400E+03  0.29519635400E+03  0.00000000000E+00 0. -1.
         21   -1    0    0  506  502 -0.00000000000E+00 -0.00000000000E+00 -0.20701258185E+03  0.20701258185E+03  0.00000000000E+00 0. -1.
         21    1    1    2  503  501  0.12852320804E+03  0.14349847685E+02  0.76630594471E+02  0.15032092716E+03  0.00000000000E+00 0. -1.
         21    1    1    2  504  502 -0.14165827165E+03 -0.10879593028E+03  0.47100166391E+02  0.18472153649E+03  0.00000000000E+00 0. -1.
         21    1    1    2  505  504 -0.34438439996E+02  0.14659935610E+02  0.34437570905E+02  0.50861244099E+02  0.00000000000E+00 0. -1.
         21    1    1    2  506  503  0.47573503601E+02  0.79786146982E+02 -0.69984559621E+02  0.11630522809E+03  0.00000000000E+00 0. -1.
<scales pt_clust_3="134.76920" pt_clust_4="14000.00000" pt_clust_5="37.42886" pt_clust_6="92.49261"></scales>
<clustering>
<clus scale="   37.429">  1  5  2 -1</clus>
<clus scale="   92.493">  2  6  1 -1</clus>
<clus scale="  134.769">  1  3  2 -1</clus>
<clus scale="   37.429">  1  3  2 -1</clus>
</clustering>
</event>
<event>
 6    0  0.9315069E+002  0.1275411E+03  0.7546771E-02  0.1231151E+00
         21   -1    0    0  505  501  0.00000000000E+00  0.00000000000E+00  0.16538743599E+04  0.16538743599E+04  0.00000000000E+00 0.  1.
         21   -1    0    0  503  502 -0.00000000000E+00 -0.00000000000E+00 -0.58170476142E+02  0.58170476142E+02  0.00000000000E+00 0.  1.
         21    1    1    2  503  501 -0.67667453587E+02 -0.41528663917E+02  0.15369762726E+03  0.17299270166E+03  0.00000000000E+00 0.  1.
         21    1    1    2  504  506  0.41515420660E+02 -0.12117228494E+03  0.10216249064E+03  0.16383963893E+03  0.00000000000E+00 0.  1.
         21    1    1    2  505  504  0.43701503147E+02  0.12257517501E+03  0.13212336983E+04  0.13276268227E+04  0.00000000000E+00 0.  1.
         21    1    1    2  506  502 -0.17549470220E+02  0.40125773844E+02  0.18610067509E+02  0.47585672678E+02  0.00000000000E+00 0.  1.
<scales pt_clust_3="78.64834" pt_clust_4="127.54111" pt_clust_5="14000.00000" pt_clust_6="43.79568"></scales>
<clustering>
<clus scale="   43.796">  2  6  1 -1</clus>
<clus scale="   78.648">  2  3  1 -1</clus>
<clus scale="  127.541">  2  4  1 -1</clus>
<clus scale="  127.541">  1  3  2 -1</clus>
</clustering>
</event>
<event>
 6    0  0.9315069E+002  0.9243476E+02  0.7546771E-02  0.1297060E+00
         21   -1    0    0  506  501  0.00000000000E+00  0.00000000000E+00  0.99477683583E+02  0.99477683583E+02  0.00000000000E+00 0.  1.
         21   -1    0    0  504  502 -0.00000000000E+00 -0.00000000000E+00 -0.29357264349E+03  0.29357264349E+03  0.00000000000E+00 0.  1.
         21    1    1    2  503  505  0.84640057132E+02 -0.60929900779E+02 -0.16591516765E+03  0.19596998479E+03  0.00000000000E+00 0.  1.
         21    1    1    2  504  503 -0.93061824890E+01  0.40483761563E+02 -0.33648646569E+02  0.53458127527E+02  0.00000000000E+00 0. -1.
         21    1    1    2  505  501 -0.66087693918E+02  0.61694643599E+02  0.29371157743E+02  0.95060387352E+02  0.00000000000E+00 0.  1.
         21    1    1    2  506  502 -0.92461807243E+01 -0.41248504383E+02 -0.23902303427E+02  0.48561827405E+02  0.00000000000E+00 0.  1.
<scales pt_clust_3="92.43476" pt_clust_4="41.53962" pt_clust_5="14000.00000" pt_clust_6="36.93394"></scales>
<clustering>
<clus scale="   41.540">  2  4  1 -1</clus>
<clus scale="   36.934">  2  6  1 -1</clus>
<clus scale="   92.435">  2  3  1 -1</clus>
<clus scale="   92.435">  1  3  2 -1</clus>
</clustering>
</event>
<event>
 6    0  0.9315069E+002  0.1516735E+03  0.7546771E-02  0.1198432E+00
         21   -1    0    0  503  501  0.00000000000E+00  0.00000000000E+00  0.13284277644E+04  0.13284277644E+04  0.00000000000E+00 0. -1.
         21   -1    0    0  506  502 -0.00000000000E+00 -0.00000000000E+00 -0.16463564972E+03  0.16463564972E+03  0.00000000000E+00 0. -1.
         21    1    1    2  503  502  0.65770575643E+02  0.10686927876E+03 -0.13575988000E+02  0.12621853593E+03  0.00000000000E+00 0. -1.
         21    1    1    2  504  505 -0.10851634511E+02 -0.54539699430E+02  0.21665394791E+02  0.59680198701E+02  0.00000000000E+00 0. -1.
         21    1    1    2  505  501 -0.18471912922E+02  0.54654297421E+02  0.11881716690E+04  0.11895714434E+04  0.00000000000E+00 0. -1.
         21    1    1    2  506  504 -0.36447028210E+02 -0.10698387675E+03 -0.32468961127E+02  0.11759323614E+03  0.00000000000E+00 0. -1.
<scales pt_clust_3="141.50170" pt_clust_4="38.30482" pt_clust_5="57.69145" pt_clust_6="38.30482"></scales>
<clustering>
<clus scale="   38.305">  4  6 -1 -1</clus>
<clus scale="   57.691">  1  5  2 -1</clus>
<clus scale="  141.502">  2  3  1 -1</clus>
<clus scale="   57.691">  1  3  2 -1</clus>
</clustering>
</event>
<event>
 6    0  0.9315069E+002  0.1329798E+03  0.7546771E-02  0.1223100E+00
         21   -1    0    0  505  501  0.00000000000E+00  0.00000000000E+00  0.14114243786E+04  0.14114243786E+04  0.00000000000E+00 0.  1.
         21   -1    0    0  503  502 -0.00000000000E+00 -0.00000000000E+00 -0.50118682177E+03  0.50118682177E+03  0.00000000000E+00 0. -1.
         21    1    1    2  503  504  0.92393226134E+02  0.99456375873E+02 -0.46508832403E+03  0.48449481740E+03  0.00000000000E+00 0. -1.
         21    1    1    2  504  506 -0.63071232242E+02 -0.43208247909E+02  0.19722497931E+03  0.21152452692E+03  0.00000000000E+00 0.  1.
         21    1    1    2  505  502  0.81336977996E+01 -0.51875422272E+02  0.17456277944E+02  0.55334782148E+02  0.00000000000E+00 0. -1.
         21    1    1    2  506  501 -0.37455691692E+02 -0.43727056918E+01  0.11606446236E+04  0.11612570740E+04  0.00000000000E+00 0.  1.
<scales pt_clust_3="14000.00000" pt_clust_4="132.97981" pt_clust_5="52.57972" pt_clust_6="37.71007"></scales>
<clustering>
<clus scale="   37.710">  1  6  2 -1</clus>
<clus scale="   52.580">  1  5  2 -1</clus>
<clus scale="  132.980">  1  4  2 -1</clus>
<clus scale="   37.710">  1  3  2 -1</clus>
</clustering>
</event>
<event>
 6    0  0.9315069E+002  0.2189142E+03  0.7546771E-02  0.1134695E+00
         21   -1    0    0  506  501  0.00000000000E+00  0.00000000000E+00  0.63574991309E+03  0.63574991309E+03  0.00000000000E+00 0.  1.
         21   -1    0    0  503  502 -0.00000000000E+00 -0.00000000000E+00 -0.40202236659E+03  0.40202236659E+03  0.00000000000E+00 0.  1.
         21    1    1    2  503  501  0.79325201538E+02  0.12614110436E+01 -0.31419249050E+03  0.32405400761E+03  0.00000000000E+00 0.  1.
         21    1    1    2  504  502  0.79228646800E+02  0.15570284593E+03  0.85964772462E+02  0.19470618072E+03  0.00000000000E+00 0.  1.
         21    1    1    2  505  504 -0.11600693261E+03 -0.11517202272E+03  0.24900847444E+03  0.29787148835E+03  0.00000000000E+00 0.  1.
         21    1    1    2  506  505 -0.42546915731E+02 -0.41792234254E+02  0.21294679011E+03  0.22114060301E+03  0.00000000000E+00 0.  1.
<scales pt_clust_3="79.33523" pt_clust_4="204.27838" pt_clust_5="47.53634" pt_clust_6="47.53634"></scales>
<clustering>
<clus scale="   47.536">  5  6 -1 -1</clus>
<clus scale="   79.335">  2  3  1 -1</clus>
<clus scale="  204.278">  2  4  1 -1</clus>
<clus scale="  218.914">  1  3  2 -1</clus>
</clustering>
</event>
<event>
 6    0  0.9315069E+002  0.1901024E+03  0.7546771E-02  0.1158369E+00
         21   -1    0    0  503  501  0.00000000000E+00  0.00000000000E+00  0.24964033600E+02  0.24964033600E+02  0.00000000000E+00 0.  1.
         21   -1    0    0  506  502 -0.00000000000E+00 -0.00000000000E+00 -0.13553120357E+04  0.13553120357E+04  0.00000000000E+00 0.  1.
         21    1    1    2  503  504  0.80905673362E+01 -0.42925719207E+02 -0.30685148323E+03  0.30994500707E+03  0.00000000000E+00 0.  1.
         21    1    1    2  504  502  0.40772972889E+02 -0.11555817430E+03 -0.43127572893E+03  0.44834683152E+03  0.00000000000E+00 0.  1.
         21    1    1    2  505  501  0.16600149959E+02  0.97233030057E+02 -0.26718782924E+03  0.28481426089E+03  0.00000000000E+00 0.  1.
         21    1    1    2  506  505 -0.65463690185E+02  0.61250863454E+02 -0.32503296072E+03  0.33716996983E+03  0.00000000000E+00 0.  1.
<scales pt_clust_3="30.85036" pt_clust_4="173.70875" pt_clust_5="88.58469" pt_clust_6="88.58469"></scales>
<clustering>
<clus scale="   30.850">  3  4 -1 -1</clus>
<clus scale="   88.585">  5  6 -1 -1</clus>
<clus scale="  173.709">  2  3  1 -1</clus>
<clus scale="  190.102">  1  3  2 -1</clus>
</clustering>
</event>
<event>
 6    0  0.9315069E+002  0.2310848E+03  0.7546771E-02  0.1125879E+00
         21   -1    0    0  503  501  0.00000000000E+00  0.00000000000E+00  0.22197963234E+04  0.22197963234E+04  0.00000000000E+00 0.  1.
         21   -1    0    0  505  502 -0.00000000000E+00 -0.00000000000E+00 -0.25305360087E+03  0.25305360087E+03  0.00000000000E+00 0. -1.
         21    1    1    2  503  506  0.18741465705E+03 -0.84198445056E+02  0.19502691128E+04  0.19610617645E+04  0.00000000000E+00 0.  1.
         21    1    1    2  504  501  0.28943347832E+02 -0.21310717132E+02  0.10466228980E+03  0.11066191285E+03  0.00000000000E+00 0.  1.
         21    1    1    2  505  504 -0.15338924442E+03 -0.94769053634E+02 -0.55503471499E+02  0.18865330418E+03  0.00000000000E+00 0. -1.
         21    1    1    2  506  502 -0.62968760460E+02  0.20027821582E+03 -0.32685208595E+02  0.21247294272E+03  0.00000000000E+00 0. -1.
<scales pt_clust_3="14000.00000" pt_clust_4="35.94251" pt_clust_5="179.88374" pt_clust_6="231.08478"></scales>
<clustering>
<clus scale="   35.943">  1  4  2 -1</clus>
<clus scale="  179.884">  2  5  1 -1</clus>
<clus scale="  231.085">  2  6  1 -1</clus>
<clus scale="   35.943">  1  3  2 -1</clus>
</clustering>
</event>
<event>
 6    0  0.9315069E+002  0.9611051E+02  0.7546771E-02  0.1288694E+00
         21   -1    0    0  505  501  0.00000000000E+00  0.00000000000E+00  0.49621420316E+03  0.49621420316E+03  0.00000000000E+00 0. -1.
         21   -1    0    0  501  502 -0.00000000000E+00 -0.00000000000E+00 -0.62356043334E+02  0.62356043334E+02  0.00000000000E+00 0. -1.
         21    1    1    2  503  506  0.57561343255E+02  0.32705959247E+02  0.74774173506E+02  0.99870741617E+02  0.00000000000E+00 0. -1.
         21    1    1    2  504  503  0.32921899655E+02  0.14860985274E+02  0.41047082169E+01  0.36353115268E+02  0.00000000000E+00 0. -1.
         21    1    1    2  505  504 -0.84399913413E+02  0.18533906704E+02  0.34446582653E+03  0.35513878517E+03  0.00000000000E+00 0. -1.
         21    1    1    2  506  502 -0.60833294961E+01 -0.66100851224E+02  0.10513451567E+02  0.67207604437E+02  0.00000000000E+00 0. -1.
<scales pt_clust_3="32.07135" pt_clust_4="32.07135" pt_clust_5="85.74381" pt_clust_6="66.38019"></scales>
<clustering>
<clus scale="   32.071">  3  4 -1 -1</clus>
<clus scale="   66.380">  2  6  1 -1</clus>
<clus scale="   85.744">  1  5  2 -1</clus>
<clus scale="   85.744">  1  3  2 -1</clus>
</clustering>
</event>
<event>
 6    0  0.9315069E+002  0.1542341E+03  0.7546771E-02  0.1195365E+00
         21   -1    0    0  504  501  0.00000000000E+00  0.00000000000E+00  0.45529998662E+03  0.45529998662E+03  0.00000000000E+00 0. -1.
         21   -1    0    0  506  502 -0.00000000000E+00 -0.00000000000E+00 -0.13075222676E+04  0.13075222676E+04  0.00000000000E+00 0.  1.
         21    1    1    2  503  502 -0.69655536323E+02  0.30651144811E+02 -0.10852022889E+04  0.10878673606E+04  0.00000000000E+00 0.  1.
         21    1    1    2  504  503 -0.11269148001E+03 -0.85059111244E+02 -0.15890672664E+03  0.21256944711E+03  0.00000000000E+00 0.  1.
         21    1    1    2  505  501  0.10152764935E+03 -0.18852679676E+02  0.30778733438E+03  0.32464800988E+03  0.00000000000E+00 0. -1.
         21    1    1    2  506  505  0.80819366983E+02  0.73260646109E+02  0.84099400160E+02  0.13773743665E+03  0.00000000000E+00 0. -1.
<scales pt_clust_3="76.10116" pt_clust_4="14000.00000" pt_clust_5="100.43932" pt_clust_6="154.23408"></scales>
<clustering>
<clus scale="   76.101">  2  3  1 -1</clus>
<clus scale="  100.439">  1  5  2 -1</clus>
<clus scale="  154.234">  1  6  2 -1</clus>
<clus scale="  100.439">  1  3  2 -1</clus>
</clustering>
</event>
<event>
 6    0  0.9315069E+002  0.1260715E+03  0.7546771E-02  0.1233404E+00
         21   -1    0    0  504  501  0.00000000000E+00  0.00000000000E+00  0.13575321225E+03  0.13575321225E+03  0.00000000000E+00 0. -1.
         21   -1    0    0  503  502 -0.00000000000E+00 -0.00000000000E+00 -0.22788378163E+03  0.22788378163E+03  0.00000000000E+00 0. -1.
         21    1    1    2  503  505 -0.80439746153E+02 -0.40717184328E+02  0.25387427765E+02  0.93664098508E+02  0.00000000000E+00 0. -1.
         21    1    1    2  504  506  0.66601848944E+02  0.25196709092E+02 -0.72551543825E+02  0.10165828517E+03  0.00000000000E+00 0. -1.
         21    1    1    2  505  501 -0.38695163985E+02  0.55923434887E+02  0.24520297811E+02  0.72291018046E+02  0.00000000000E+00 0. -1.
         21    1    1    2  506  502  0.52533061194E+02 -0.40402959650E+02 -0.69486751139E+02  0.96023592157E+02  0.00000000000E+00 0.  1.
<scales pt_clust_3="106.84159" pt_clust_4="64.56353" pt_clust_5="68.00549" pt_clust_6="64.56353"></scales>
<clustering>
<clus scale="   64.564">  4  6 -1 -1</clus>
<clus scale="   68.005">  1  5  2 -1</clus>
<clus scale="  106.842">  1  3  2 -1</clus>
<clus scale="   68.005">  1  3  2 -1</clus>
</clustering>
</event>
<event>
 6    0  0.9315069E+002  0.9349720E+02  0.7546771E-02  0.1294597E+00
         21   -1    0    0  505  501  0.00000000000E+00  0.00000000000E+00  0.69223148256E+03  0.69223148256E+03  0.00000000000E+00 0. -1.
         21   -1    0    0  504  502 -0.00000000000E+00 -0.00000000000E+00 -0.38403316655E+02  0.38403316655E+02  0.00000000000E+00 0. -1.
         21    1    1    2  503  502  0.93944079667E+02 -0.82400666044E+02  0.15766814717E+03  0.20118301245E+03  0.00000000000E+00 0. -1.
         21    1    1    2  504  506 -0.52872080174E+02  0.46020606651E+02  0.12424708888E+03  0.14265585230E+03  0.00000000000E+00 0. -1.
         21    1    1    2  505  503 -0.19560424586E+02 -0.28811433202E+02  0.86580401173E+02  0.93321352114E+02  0.00000000000E+00 0. -1.
         21    1    1    2  506  501 -0.21511574908E+02  0.65191492595E+02  0.28533252868E+03  0.29347458235E+03  0.00000000000E+00 0. -1.
<scales pt_clust_3="93.49720" pt_clust_4="14000.00000" pt_clust_5="34.82397" pt_clust_6="59.93333"></scales>
<clustering>
<clus scale="   34.824">  1  5  2 -1</clus>
<clus scale="   59.933">  1  6  2 -1</clus>
<clus scale="   93.497">  1  3  2 -1</clus>
<clus scale="   34.824">  1  3  2 -1</clus>
</clustering>
</event>
<event>
 6    0  0.9315069E+002  0.8301516E+02  0.7546771E-02  0.1320706E+00
         21   -1    0    0  503  501  0.00000000000E+00  0.00000000000E+00  0.43302092841E+03  0.43302092841E+03  0.00000000000E+00 0.  1.
         21   -1    0    0  504  502 -0.00000000000E+00 -0.00000000000E+00 -0.12746193033E+04  0.12746193033E+04  0.00000000000E+00 0. -1.
         21    1    1    2  503  506  0.23445961366E+02  0.52408345416E+02  0.16668482353E+02  0.59784496967E+02  0.00000000000E+00 0. -1.
         21    1    1    2  504  505  0.77280365093E+02 -0.49831863902E+02 -0.12027885604E+04  0.12062983837E+04  0.00000000000E+00 0. -1.
         21    1    1    2  505  501 -0.10524609821E+03 -0.41354233652E+02  0.37522268724E+03  0.39189153965E+03  0.00000000000E+00 0.  1.
         21    1    1    2  506  502  0.45197717484E+01  0.38777752138E+02 -0.30700984063E+02  0.49665811379E+02  0.00000000000E+00 0. -1.
<scales pt_clust_3="58.06459" pt_clust_4="14000.00000" pt_clust_5="83.01516" pt_clust_6="39.04027"></scales>
<clustering>
<clus scale="   39.040">  2  6  1 -1</clus>
<clus scale="   58.065">  1  3  2 -1</clus>
<clus scale="   83.015">  1  5  2 -1</clus>
<clus scale="   58.065">  1  3  2 -1</clus>
</clustering>
</event>
<event>
 6    0  0.9315069E+002  0.7537152E+02  0.7546771E-02  0.1342724E+00
         21   -1    0    0  503  501  0.00000000000E+00  0.00000000000E+00  0.54972146362E+03  0.54972146362E+03  0.00000000000E+00 0. -1.
         21   -1    0    0  504  502 -0.00000000000E+00 -0.00000000000E+00 -0.77162946767E+03  0.77162946767E+03  0.00000000000E+00 0. -1.
         21    1    1    2  503  505 -0.49571326720E+02  0.60590504361E+02  0.25216384505E+03  0.26403622934E+03  0.00000000000E+00 0. -1.
         21    1    1    2  504  506 -0.51870400612E+02  0.17762822287E+02 -0.74697364408E+03  0.74898309812E+03  0.00000000000E+00 0. -1.
         21    1    1    2  505  502  0.54556957587E+02 -0.62450777677E+02  0.22351563156E+03  0.23840259815E+03  0.00000000000E+00 0. -1.
         21    1    1    2  506  501  0.46884769745E+02 -0.15902548971E+02  0.49386163419E+02  0.69929005678E+02  0.00000000000E+00 0.  1.
<scales pt_clust_3="75.37152" pt_clust_4="54.72601" pt_clust_5="14000.00000" pt_clust_6="49.50831"></scales>
<clustering>
<clus scale="   49.508">  1  6  2 -1</clus>
<clus scale="   54.726">  2  4  1 -1</clus>
<clus scale="   75.372">  1  3  2 -1</clus>
<clus scale="   49.508">  1  3  2 -1</clus>
</clustering>
</event>
<event>
 6    0  0.9315069E+002  0.1434922E+03  0.7546771E-02  0.1208706E+00
         21   -1    0    0  504  501  0.00000000000E+00  0.00000000000E+00  0.49134283042E+03  0.49134283042E+03  0.00000000000E+00 0. -1.
         21   -1    0    0  505  502 -0.00000000000E+00 -0.00000000000E+00 -0.11546525860E+03  0.11546525860E+03  0.00000000000E+00 0.  1.
         21    1    1    2  503  502 -0.52541339713E+02 -0.51500709315E+01 -0.33946446529E+02  0.62765251863E+02  0.00000000000E+00 0.  1.
         21    1    1    2  504  506 -0.28572259039E+02  0.48281674296E+02  0.14446539046E+03  0.15497658887E+03  0.00000000000E+00 0. -1.
         21    1    1    2  505  501  0.15903234539E+03 -0.20653760824E+02  0.26287704568E+03  0.30793214489E+03  0.00000000000E+00 0. -1.
         21    1    1    2  506  503 -0.77918746633E+02 -0.22477842540E+02  0.24815822103E+01  0.81134103387E+02  0.00000000000E+00 0.  1.
<scales pt_clust_3="35.48135" pt_clust_4="56.10253" pt_clust_5="136.58754" pt_clust_6="35.48135"></scales>
<clustering>
<clus scale="   35.481">  3  6 -1 -1</clus>
<clus scale="   56.103">  1  4  2 -1</clus>
<clus scale="  136.588">  1  5  2 -1</clus>
<clus scale="   56.103">  1  3  2 -1</clus>
</clustering>
</event>
<event>
 6    0  0.9315069E+002  0.8160095E+02  0.7546771E-02  0.1324569E+00
         21   -1    0    0  506  501  0.00000000000E+00  0.00000000000E+00  0.94585010702E+03  0.94585010702E+03  0.00000000000E+00 0.  1.
         21   -1    0    0  504  502 -0.00000000000E+00 -0.00000000000E+00 -0.17289744038E+03  0.17289744038E+03  0.00000000000E+00 0. -1.
         21    1    1    2  503  501 -0.59494648294E+02 -0.58543415845E+02  0.73170287607E+03  0.73644826265E+03  0.00000000000E+00 0.  1.
         21    1    1    2  504  505 -0.17595285315E+02 -0.54084780571E+02  0.21334669007E+02  0.60744758262E+02  0.00000000000E+00 0. -1.
         21    1    1    2  505  503  0.92907175712E+02  0.32261063642E+00  0.13244797624E+03  0.16178477613E+03  0.00000000000E+00 0. -1.
         21    1    1    2  506  502 -0.15817242102E+02  0.11230558578E+03 -0.11253285469E+03  0.15976975036E+03  0.00000000000E+00 0. -1.
<scales pt_clust_3="14000.00000" pt_clust_4="56.87493" pt_clust_5="81.60095" pt_clust_6="71.52515"></scales>
<clustering>
<clus scale="   56.875">  2  4  1 -1</clus>
<clus scale="   71.525">  2  6  1 -1</clus>
<clus scale="   81.601">  2  5  1 -1</clus>
<clus scale="   81.601">  1  3  2 -1</clus>
</clustering>
</event>
<event>
 6    0  0.9315069E+002  0.7524686E+02  0.7546771E-02  0.1343108E+00
         21   -1    0    0  506  501  0.00000000000E+00  0.00000000000E+00  0.10178365001E+04  0.10178365001E+04  0.00000000000E+00 0. -1.
         21   -1    0    0  505  502 -0.00000000000E+00 -0.00000000000E+00 -0.18939698179E+03  0.18939698179E+03  0.00000000000E+00 0. -1.
         21    1    1    2  503  501  0.14548301950E+01  0.51775176828E+02  0.37038383603E+03  0.37398792956E+03  0.00000000000E+00 0.  1.
         21    1    1    2  504  502  0.81229312635E+02  0.31302571179E+02  0.23829184651E+03  0.25369480938E+03  0.00000000000E+00 0. -1.
         21    1    1    2  505  503 -0.22502667557E+02 -0.23311559301E+02 -0.17388006274E+03  0.17687304787E+03  0.00000000000E+00 0. -1.
         21    1    1    2  506  504 -0.60181475273E+02 -0.59766188706E+02  0.39364389853E+03  0.40267769510E+03  0.00000000000E+00 0. -1.
<scales pt_clust_3="48.80011" pt_clust_4="14000.00000" pt_clust_5="32.40060" pt_clust_6="75.24686"></scales>
<clustering>
<clus scale="   32.401">  2  5  1 -1</clus>
<clus scale="   48.800">  1  3  2 -1</clus>
<clus scale="   75.247">  1  6  2 -1</clus>
<clus scale="   48.800">  1  3  2 -1</clus>
</clustering>
</event>
<event>
 6    0  0.9315069E+002  0.1396333E+03  0.7546771E-02  0.1213823E+00
         21   -1    0    0  505  501  0.00000000000E+00  0.00000000000E+00  0.86127024695E+03  0.86127024695E+03  0.00000000000E+00 0. -1.
         21   -1    0    0  504  502 -0.00000000000E+00 -0.00000000000E+00 -0.19658069455E+03  0.19658069455E+03  0.00000000000E+00 0.  1.
         21    1    1    2  503  502 -0.59138406880E+02 -0.12506519684E+03 -0.13337357602E+03  0.19216442285E+03  0.00000000000E+00 0.  1.
         21    1    1    2  504  506  0.61018909957E+01  0.18071297357E+03  0.60575440422E+03  0.63216517630E+03  0.00000000000E+00 0. -1.
         21    1    1    2  505  503 -0.29946704229E+02 -0.27420108458E+02  0.35767995364E+02  0.54111153512E+02  0.00000000000E+00 0.  1.
         21    1    1    2  506  501  0.82983220113E+02 -0.28227668280E+02  0.15654072883E+03  0.17941018884E+03  0.00000000000E+00 0. -1.
<scales pt_clust_3="139.63334" pt_clust_4="14000.00000" pt_clust_5="40.60379" pt_clust_6="83.95626"></scales>
<clustering>
<clus scale="   40.604">  1  5  2 -1</clus>
<clus scale="   83.956">  1  6  2 -1</clus>
<clus scale="  139.633">  2  3  1 -1</clus>
<clus scale="   40.604">  1  3  2 -1</clus>
</clustering>
</event>
<event>
 6    0  0.9315069E+002  0.1863584E+03  0.7546771E-02  0.1161787E+00
         21   -1    0    0  506  501  0.00000000000E+00  0.00000000000E+00  0.61807249877E+03  0.61807249877E+03  0.00000000000E+00 0.  1.
         21   -1    0    0  503  502 -0.00000000000E+00 -0.00000000000E+00 -0.25921836247E+03  0.25921836247E+03  0.00000000000E+00 0.  1.
         21    1    1    2  503  505  0.19953514946E+02  0.30203020577E+02  0.39417395702E+01  0.36412944422E+02  0.00000000000E+00 0. -1.
         21    1    1    2  504  502 -0.12848544966E+03  0.13502606487E+03  0.40896970229E+01  0.18643302978E+03  0.00000000000E+00 0.  1.
         21    1    1    2  505  501  0.13688721213E+03 -0.12997878256E+03 -0.91528942001E+02  0.20978593848E+03  0.00000000000E+00 0.  1.
         21    1    1    2  506  504 -0.28355277419E+02 -0.35250302893E+02  0.44235164171E+03  0.44465894856E+03  0.00000000000E+00 0.  1.
<scales pt_clust_3="36.19897" pt_clust_4="186.35842" pt_clust_5="14000.00000" pt_clust_6="45.06831"></scales>
<clustering>
<clus scale="   36.199">  2  3  1 -1</clus>
<clus scale="   45.068">  1  6  2 -1</clus>
<clus scale="  186.358">  1  4  2 -1</clus>
<clus scale="   45.068">  1  3  2 -1</clus>
</clustering>
</event>
<event>
 6    0  0.9315069E+002  0.2351691E+03  0.7546771E-02  0.1123054E+00
         21   -1    0    0  505  501  0.00000000000E+00  0.00000000000E+00  0.39597608223E+03  0.39597608223E+03  0.00000000000E+00 0.  1.
         21   -1    0    0  504  502 -0.00000000000E+00 -0.00000000000E+00 -0.13725568706E+04  0.13725568706E+04  0.00000000000E+00 0.  1.
         21    1    1    2  503  501 -0.94770944233E+02 -0.14519368677E+03 -0.11241645430E+04  0.11374571017E+04  0.00000000000E+00 0.  1.
         21    1    1    2  504  503  0.53936330904E+01 -0.38033169135E+02 -0.10836541866E+03  0.11497250625E+03  0.00000000000E+00 0.  1.
         21    1    1    2  505  506  0.41098393207E+02  0.23411817352E+03  0.33477865013E+03  0.41058146778E+03  0.00000000000E+00 0.  1.
         21    1    1    2  506  502  0.48278917935E+02 -0.50891317617E+02 -0.78829476914E+02  0.10552187715E+03  0.00000000000E+00 0.  1.
<scales pt_clust_3="235.16909" pt_clust_4="38.41371" pt_clust_5="14000.00000" pt_clust_6="72.45503"></scales>
<clustering>
<clus scale="   38.414">  2  4  1 -1</clus>
<clus scale="   72.455">  2  6  1 -1</clus>
<clus scale="  235.169">  2  3  1 -1</clus>
<clus scale="  235.169">  1  3  2 -1</clus>
</clustering>
</event>
<event>
 6    0  0.9315069E+002  0.2296150E+03  0.7546771E-02  0.1126911E+00
         21   -1    0    0  504  501  0.00000000000E+00  0.00000000000E+00  0.84082829825E+02  0.84082829825E+02  0.00000000000E+00 0.  1.
         21   -1    0    0  503  502 -0.00000000000E+00 -0.00000000000E+00 -0.92367130283E+03  0.92367130283E+03  0.00000000000E+00 0. -1.
         21    1    1    2  503  506 -0.50830298275E+02 -0.15345923599E+02 -0.14358443370E+03  0.15308725027E+03  0.00000000000E+00 0. -1.
         21    1    1    2  504  502 -0.63373563626E+02  0.20694377901E+03 -0.51865520882E+03  0.56200103370E+03  0.00000000000E+00 0. -1.
         21    1    1    2  505  501  0.80909413070E+02 -0.13324044042E+03 -0.82317223796E+02  0.17628236843E+03  0.00000000000E+00 0.  1.
         21    1    1    2  506  505  0.33294448831E+02 -0.58357414997E+02 -0.95031606687E+02  0.11638348026E+03  0.00000000000E+00 0.  1.
<scales pt_clust_3="53.09630" pt_clust_4="219.71486" pt_clust_5="43.78726" pt_clust_6="43.78726"></scales>
<clustering>
<clus scale="   43.787">  5  6 -1 -1</clus>
<clus scale="   53.096">  2  3  1 -1</clus>
<clus scale="  219.715">  2  4  1 -1</clus>
<clus scale="  229.615">  1  3  2 -1</clus>
</clustering>
</event>
<event>
 6    0  0.9315069E+002  0.9378149E+02  0.7546771E-02  0.1293944E+00
         21   -1    0    0  503  501  0.00000000000E+00  0.00000000000E+00  0.55002060780E+03  0.55002060780E+03  0.00000000000E+00 0. -1.
         21   -1    0    0  506  502 -0.00000000000E+00 -0.00000000000E+00 -0.35145426551E+02  0.35145426551E+02  0.00000000000E+00 0. -1.
         21    1    1    2  503  505  0.91610985189E+01  0.40992445984E+02  0.13596873269E+03  0.14230882834E+03  0.00000000000E+00 0. -1.
         21    1    1    2  504  501 -0.76935321913E+02 -0.71063808173E+02  0.17016058905E+03  0.19980924567E+03  0.00000000000E+00 0. -1.
         21    1    1    2  505  502 -0.25353963868E+02  0.16793200236E+02  0.49839193395E+02  0.58384760479E+02  0.00000000000E+00 0.  1.
         21    1    1    2  506  504  0.93128187262E+02  0.13278161952E+02  0.15890666612E+03  0.18466319986E+03  0.00000000000E+00 0. -1.
<scales pt_clust_3="43.21722" pt_clust_4="93.78149" pt_clust_5="30.41110" pt_clust_6="14000.00000"></scales>
<clustering>
<clus scale="   30.411">  2  5  1 -1</clus>
<clus scale="   43.217">  1  3  2 -1</clus>
<clus scale="   93.781">  1  4  2 -1</clus>
<clus scale="   43.217">  1  3  2 -1</clus>
</clustering>
</event>
<event>
 6    0  0.9315069E+002  0.9512728E+02  0.7546771E-02  0.1290890E+00
         21   -1    0    0  505  501  0.00000000000E+00  0.00000000000E+00  0.23104695442E+03  0.23104695442E+03  0.00000000000E+00 0.  1.
         21   -1    0    0  503  502 -0.00000000000E+00 -0.00000000000E+00 -0.13858790823E+03  0.13858790823E+03  0.00000000000E+00 0.  1.
         21    1    1    2  503  501  0.85274132900E+02 -0.76940966469E+02 -0.78924780847E+01  0.11512550227E+03  0.00000000000E+00 0. -1.
         21    1    1    2  504  506 -0.84609390037E+02  0.19029739264E+02 -0.11808460959E+02  0.87523251819E+02  0.00000000000E+00 0.  1.
         21    1    1    2  505  504 -0.17827091312E+02  0.32689491362E+02  0.12750973895E+03  0.13283501631E+03  0.00000000000E+00 0.  1.
         21    1    1    2  506  502  0.17162348448E+02  0.25221735843E+02 -0.15349753713E+02  0.34151092255E+02  0.00000000000E+00 0.  1.
<scales pt_clust_3="14000.00000" pt_clust_4="95.12728" pt_clust_5="37.56559" pt_clust_6="30.50708"></scales>
<clustering>
<clus scale="   30.507">  2  6  1 -1</clus>
<clus scale="   37.566">  1  5  2 -1</clus>
<clus scale="   95.127">  2  4  1 -1</clus>
<clus scale="   37.566">  1  3  2 -1</clus>
</clustering>
</event>
<event>
 6    0  0.9315069E+002  0.1175478E+03  0.7546771E-02  0.1247198E+00
         21   -1    0    0  504  501  0.00000000000E+00  0.00000000000E+00  0.11200493419E+04  0.11200493419E+04  0.00000000000E+00 0. -1.
         21   -1    0    0  501  502 -0.00000000000E+00 -0.00000000000E+00 -0.23594450385E+03  0.23594450385E+03  0.00000000000E+00 0.  1.
         21    1    1    2  503  502  0.33292002196E+02 -0.11748747434E+03 -0.20102655389E+03  0.23520913972E+03  0.00000000000E+00 0.  1.
         21    1    1    2  504  506  0.28938405285E+02 -0.20249722420E+02  0.62233135228E+03  0.62333281206E+03  0.00000000000E+00 0. -1.
         21    1    1    2  505  503 -0.20355028749E+02  0.81211053339E+02  0.11293218227E+03  0.14058179175E+03  0.00000000000E+00 0. -1.
         21    1    1    2  506  505 -0.41875378732E+02  0.56526143425E+02  0.34986785736E+03  0.35687010220E+03  0.00000000000E+00 0. -1.
<scales pt_clust_3="14000.00000" pt_clust_4="35.31972" pt_clust_5="117.54776" pt_clust_6="47.21670"></scales>
<clustering>
<clus scale="   35.320">  1  4  2 -1</clus>
<clus scale="   47.217">  1  6  2 -1</clus>
<clus scale="  117.548">  1  5  2 -1</clus>
<clus scale="   35.320">  1  3  2 -1</clus>
</clustering>
</event>
<event>
 6    0  0.9315069E+002  0.3194235E+03  0.7546771E-02  0.1075915E+00
         21   -1    0    0  504  501  0.00000000000E+00  0.00000000000E+00  0.85705472214E+03  0.85705472214E+03  0.00000000000E+00 0. -1.
         21   -1    0    0  503  502 -0.00000000000E+00 -0.00000000000E+00 -0.29090593226E+03  0.29090593226E+03  0.00000000000E+00 0. -1.
         21    1    1    2  503  506 -0.29135994073E+02 -0.14376365156E+03 -0.17143180208E+02  0.14768473952E+03  0.00000000000E+00 0. -1.
         21    1    1    2  504  502 -0.94315884599E+02  0.44444941086E+03  0.37196496695E+03  0.58718710948E+03  0.00000000000E+00 0. -1.
         21    1    1    2  505  501  0.84620646049E+02 -0.17321561721E+03  0.20242896087E+03  0.27953852683E+03  0.00000000000E+00 0. -1.
         21    1    1    2  506  505  0.38831232623E+02 -0.12747014208E+03  0.88980422601E+01  0.13355027857E+03  0.00000000000E+00 0. -1.
<scales pt_clust_3="69.80137" pt_clust_4="310.91475" pt_clust_5="192.78045" pt_clust_6="69.80137"></scales>
<clustering>
<clus scale="   69.801">  3  6 -1 -1</clus>
<clus scale="  192.780">  1  5  2 -1</clus>
<clus scale="  310.915">  1  4  2 -1</clus>
<clus scale="  192.780">  1  3  2 -1</clus>
</clustering>
</event>
<event>
 6    0  0.9315069E+002  0.1638440E+03  0.7546771E-02  0.1184424E+00
         21   -1    0    0  503  501  0.00000000000E+00  0.00000000000E+00  0.77177608108E+03  0.77177608108E+03  0.00000000000E+00 0. -1.
         21   -1    0    0  506  502 -0.00000000000E+00 -0.00000000000E+00 -0.67718433796E+02  0.67718433796E+02  0.00000000000E+00 0. -1.
         21    1    1    2  503  504 -0.53910723643E+02  0.34091804573E+02  0.15403311894E+03  0.16671778247E+03  0.00000000000E+00 0. -1.
         21    1    1    2  504  502 -0.12487454240E+03 -0.11697977296E+02  0.21703739018E+03  0.25067054623E+03  0.00000000000E+00 0. -1.
         21    1    1    2  505  501  0.13256969982E+03 -0.26231134570E+02  0.34803501458E+03  0.37335126772E+03  0.00000000000E+00 0. -1.
         21    1    1    2  506  505  0.46215566219E+02  0.38373072927E+01 -0.15047876419E+02  0.48754918449E+02  0.00000000000E+00 0.  1.
<scales pt_clust_3="45.40672" pt_clust_4="45.40672" pt_clust_5="150.96623" pt_clust_6="46.37460"></scales>
<clustering>
<clus scale="   45.407">  3  4 -1 -1</clus>
<clus scale="   46.375">  2  6  1 -1</clus>
<clus scale="  150.966">  1  5  2 -1</clus>
<clus scale="  150.966">  1  3  2 -1</clus>
</clustering>
</event>
<event>
 6    0  0.9315069E+002  0.1487721E+03  0.7546771E-02  0.1201990E+00
         21   -1    0    0  506  501  0.00000000000E+00  0.00000000000E+00  0.38360318960E+02  0.38360318960E+02  0.00000000000E+00 0. -1.
         21   -1    0    0  505  502 -0.00000000000E+00 -0.00000000000E+00 -0.12456578721E+04  0.12456578721E+04  0.00000000000E+00 0. -1.
         21    1    1    2  503  504 -0.41977442786E+02 -0.52639811143E+02 -0.26441273701E+03  0.27285005207E+03  0.00000000000E+00 0. -1.
         21    1    1    2  504  501 -0.44513695980E+02  0.10281253487E+03 -0.13416143951E+03  0.17478895362E+03  0.00000000000E+00 0. -1.
         21    1    1    2  505  503 -0.12288942924E+01 -0.92350918251E+02 -0.58715090865E+03  0.59437058458E+03  0.00000000000E+00 0. -1.
         21    1    1    2  506  502  0.87720033058E+02  0.42178194520E+02 -0.22157246792E+03  0.24200860074E+03  0.00000000000E+00 0. -1.
<scales pt_clust_3="54.14683" pt_clust_4="134.57805" pt_clust_5="54.14683" pt_clust_6="97.33347"></scales>
<clustering>
<clus scale="   54.147">  3  5 -1 -1</clus>
<clus scale="   97.333">  1  6  2 -1</clus>
<clus scale="  134.578">  1  4  2 -1</clus>
<clus scale="   97.333">  1  3  2 -1</clus>
</clustering>
</event>
<event>
 6    0  0.9315069E+002  0.1148628E+03  0.7546771E-02  0.1251821E+00
         21   -1    0    0  504  501  0.00000000000E+00  0.00000000000E+00  0.90520269803E+02  0.90520269803E+02  0.00000000000E+00 0. -1.
         21   -1    0    0  503  502 -0.00000000000E+00 -0.00000000000E+00 -0.34168864467E+03  0.34168864467E+03  0.00000000000E+00 0. -1.
         21    1    1    2  503  505  0.10775314953E+03  0.52476881738E+02 -0.15102099141E+03  0.19280016648E+03  0.00000000000E+00 0. -1.
         21    1    1    2  504  506 -0.38411301942E+01 -0.60926201992E+02 -0.14348508681E+02  0.62710733305E+02  0.00000000000E+00 0. -1.
         21    1    1    2  505  501  0.22160697768E+01  0.36422759284E+02  0.14075588687E+01  0.36517250459E+02  0.00000000000E+00 0. -1.
         21    1    1    2  506  502 -0.10612808911E+03 -0.27973439030E+02 -0.87206433648E+02  0.14018076423E+03  0.00000000000E+00 0. -1.
<scales pt_clust_3="14000.00000" pt_clust_4="48.71632" pt_clust_5="36.49011" pt_clust_6="114.86275"></scales>
<clustering>
<clus scale="   36.490">  1  5  2 -1</clus>
<clus scale="   48.716">  1  4  2 -1</clus>
<clus scale="  114.863">  1  6  2 -1</clus>
<clus scale="   36.490">  1  3  2 -1</clus>
</clustering>
</event>
<event>
 6    0  0.9315069E+002  0.1412175E+03  0.7546771E-02  0.1211700E+00
         21   -1    0    0  505  501  0.00000000000E+00  0.00000000000E+00  0.35755262875E+03  0.35755262875E+03  0.00000000000E+00 0. -1.
         21   -1    0    0  506  502 -0.00000000000E+00 -0.00000000000E+00 -0.17523081037E+03  0.17523081037E+03  0.00000000000E+00 0. -1.
         21    1    1    2  503  501  0.12593094932E+03  0.28984551192E+02  0.18430348056E+02  0.13053116844E+03  0.00000000000E+00 0. -1.
         21    1    1    2  504  503  0.43716085780E+02  0.26734105056E+02 -0.22064629341E+02  0.55791185657E+02  0.00000000000E+00 0. -1.
         21    1    1    2  505  502 -0.10280003861E+03 -0.69302937018E+02  0.23277049359E+03  0.26372873886E+03  0.00000000000E+00 0. -1.
         21    1    1    2  506  504 -0.66846996490E+02  0.13584280770E+02 -0.46814393926E+02  0.82732346167E+02  0.00000000000E+00 0. -1.
<scales pt_clust_3="33.42915" pt_clust_4="33.42915" pt_clust_5="130.85972" pt_clust_6="68.21330"></scales>
<clustering>
<clus scale="   33.429">  3  4 -1 -1</clus>
<clus scale="   68.213">  2  6  1 -1</clus>
<clus scale="  130.860">  1  5  2 -1</clus>
<clus scale="  130.860">  1  3  2 -1</clus>
</clustering>
</event>
<event>
 6    0  0.9315069E+002  0.1276145E+03  0.7546771E-02  0.1231039E+00
         21   -1    0    0  505  501  0.00000000000E+00  0.00000000000E+00  0.24034167903E+03  0.24034167903E+03  0.00000000000E+00 0.  1.
         21   -1    0    0  506  502 -0.00000000000E+00 -0.00000000000E+00 -0.17368616794E+03  0.17368616794E+03  0.00000000000E+00 0. -1.
         21    1    1    2  503  502 -0.66168593289E+02  0.51753505924E+02 -0.19695300436E+02  0.86282170653E+02  0.00000000000E+00 0. -1.
         21    1    1    2  504  503 -0.45863620030E+02 -0.14500063360E+02 -0.73876983812E+01  0.48665198726E+02  0.00000000000E+00 0.  1.
         21    1    1    2  505  504  0.54288119228E+02  0.74007167523E+02  0.11992932528E+03  0.15102087205E+03  0.00000000000E+00 0.  1.
         21    1    1    2  506  501  0.57744094091E+02 -0.11126061009E+03 -0.26190815369E+02  0.12805960553E+03  0.00000000000E+00 0. -1.
<scales pt_clust_3="45.01142" pt_clust_4="45.01142" pt_clust_5="91.78377" pt_clust_6="112.90344"></scales>
<clustering>
<clus scale="   45.011">  3  4 -1 -1</clus>
<clus scale="   91.784">  1  5  2 -1</clus>
<clus scale="  112.903">  1  6  2 -1</clus>
<clus scale="   91.784">  1  3  2 -1</clus>
</clustering>
</event>
<event>
 6    0  0.9315069E+002  0.1202000E+03  0.7546771E-02  0.1242767E+00
         21   -1    0    0  505  501  0.00000000000E+00  0.00000000000E+00  0.21994074053E+03  0.21994074053E+03  0.00000000000E+00 0.  1.
         21   -1    0    0  504  502 -0.00000000000E+00 -0.00000000000E+00 -0.96255427912E+03  0.96255427912E+03  0.00000000000E+00 0.  1.
         21    1    1    2  503  501 -0.12500609752E+03 -0.11688355881E+01  0.18072174841E+03  0.21974585535E+03  0.00000000000E+00 0.  1.
         21    1    1    2  504  506  0.36008566046E+02  0.10472030770E+02 -0.65135861363E+03  0.65243721828E+03  0.00000000000E+00 0.  1.
         21    1    1    2  505  502  0.30294849828E+02 -0.40890643234E+02 -0.29464388571E+02  0.58804530642E+02  0.00000000000E+00 0. -1.
         21    1    1    2  506  503  0.58702681649E+02  0.31587448052E+02 -0.24251228481E+03  0.25150741538E+03  0.00000000000E+00 0. -1.
<scales pt_clust_3="120.20001" pt_clust_4="37.50040" pt_clust_5="52.97635" pt_clust_6="14000.00000"></scales>
<clustering>
<clus scale="   37.500">  2  4  1 -1</clus>
<clus scale="   52.976">  2  5  1 -1</clus>
<clus scale="  120.200">  1  3  2 -1</clus>
<clus scale="  120.200">  1  3  2 -1</clus>
</clustering>
</event>
<event>
 6    0  0.9315069E+002  0.6724554E+02  0.7546771E-02  0.1369718E+00
         21   -1    0    0  504  501  0.00000000000E+00  0.00000000000E+00  0.35213691211E+03  0.35213691211E+03  0.00000000000E+00 0.  1.
         21   -1    0    0  503  502 -0.00000000000E+00 -0.00000000000E+00 -0.50771753954E+03  0.50771753954E+03  0.00000000000E+00 0.  1.
         21    1    1    2  503  505 -0.64131875440E+02 -0.50216477479E+01 -0.21161064388E+02  0.67719310685E+02  0.00000000000E+00 0.  1.
         21    1    1    2  504  506  0.38313506484E+02  0.84191452067E+02  0.27121999514E+03  0.28655961185E+03  0.00000000000E+00 0.  1.
         21    1    1    2  505  501 -0.23721108027E+02 -0.29696820999E+02  0.39586213959E+02  0.54878597642E+02  0.00000000000E+00 0.  1.
         21    1    1    2  506  502  0.49539476984E+02 -0.49472983320E+02 -0.44522577214E+03  0.45069693147E+03  0.00000000000E+00 0.  1.
<scales pt_clust_3="14000.00000" pt_clust_4="59.39982" pt_clust_5="38.00779" pt_clust_6="67.24554"></scales>
<clustering>
<clus scale="   38.008">  1  5  2 -1</clus>
<clus scale="   59.400">  1  4  2 -1</clus>
<clus scale="   67.246">  2  6  1 -1</clus>
<clus scale="   38.008">  1  3  2 -1</clus>
</clustering>
</event>
<event>
 6    0  0.9315069E+002  0.7691321E+02  0.7546771E-02  0.1338047E+00
         21   -1    0    0  505  501  0.00000000000E+00  0.00000000000E+00  0.23241603681E+03  0.23241603681E+03  0.00000000000E+00 0.  1.
         21   -1    0    0  506  502 -0.00000000000E+00 -0.00000000000E+00 -0.30757251760E+03  0.30757251760E+03  0.00000000000E+00 0.  1.
         21    1    1    2  503  501 -0.31209423294E+02  0.17286683898E+02  0.14644472393E+03  0.15072794933E+03  0.00000000000E+00 0.  1.
         21    1    1    2  504  502 -0.86091174731E+02  0.10912785269E+02 -0.27004008820E+02  0.90884518711E+02  0.00000000000E+00 0.  1.
         21    1    1    2  505  504  0.86846748233E+02  0.72206368003E+01  0.10728094929E+02  0.87804255565E+02  0.00000000000E+00 0.  1.
         21    1    1    2  506  503  0.30453849792E+02 -0.35420105967E+02 -0.20532529083E+03  0.21057183080E+03  0.00000000000E+00 0.  1.
<scales pt_clust_3="35.67713" pt_clust_4="76.91321" pt_clust_5="14000.00000" pt_clust_6="45.66686"></scales>
<clustering>
<clus scale="   35.677">  1  3  2 -1</clus>
<clus scale="   45.667">  2  6  1 -1</clus>
<clus scale="   76.913">  2  4  1 -1</clus>
<clus scale="   35.677">  1  3  2 -1</clus>
</clustering>
</event>
<event>
 6    0  0.9315069E+002  0.1333631E+03  0.7546771E-02  0.1222549E+00
         21   -1    0    0  502  501  0.00000000000E+00  0.00000000000E+00  0.58512581828E+03  0.58512581828E+03  0.00000000000E+00 0.  1.
         21   -1    0    0  506  502 -0.00000000000E+00 -0.00000000000E+00 -0.54109505016E+02  0.54109505016E+02  0.00000000000E+00 0.  1.
         21    1    1    2  503  501  0.62221255060E+02  0.36324655134E+02  0.10983870973E+03  0.13136021965E+03  0.00000000000E+00 0.  1.
         21    1    1    2  504  503  0.85128971030E+02 -0.27678011352E+02  0.29622107566E+03  0.30945102954E+03  0.00000000000E+00 0.  1.
         21    1    1    2  505  504 -0.45144203907E+02 -0.22966442068E+02  0.46849915113E+02  0.68995442992E+02  0.00000000000E+00 0.  1.
         21    1    1    2  506  505 -0.10220602218E+03  0.14319798285E+02  0.78106612767E+02  0.12942863111E+03  0.00000000000E+00 0.  1.
<scales pt_clust_3="72.04835" pt_clust_4="125.75606" pt_clust_5="31.10280" pt_clust_6="31.10280"></scales>
<clustering>
<clus scale="   31.103">  5  6 -1 -1</clus>
<clus scale="   72.048">  1  3  2 -1</clus>
<clus scale="  125.756">  1  4  2 -1</clus>
<clus scale="   72.048">  1  3  2 -1</clus>
</clustering>
</event>
<event>
 6    0  0.9315069E+002  0.9416606E+02  0.7546771E-02  0.1293065E+00
         21   -1    0    0  504  501  0.00000000000E+00  0.00000000000E+00  0.17894139264E+03  0.17894139264E+03  0.00000000000E+00 0. -1.
         21   -1    0    0  505  502 -0.00000000000E+00 -0.00000000000E+00 -0.66992076770E+03  0.66992076770E+03  0.00000000000E+00 0.  1.
         21    1    1    2  503  506  0.67778497784E+02  0.75510670987E+02 -0.16392296187E+03  0.19278621222E+03  0.00000000000E+00 0.  1.
         21    1    1    2  504  503 -0.70290030910E+02 -0.61879898603E+02  0.14384287993E+03  0.17164085878E+03  0.00000000000E+00 0. -1.
         21    1    1    2  505  501  0.41720427876E+01  0.32940106259E+02 -0.38733431086E+03  0.38875483908E+03  0.00000000000E+00 0.  1.
         21    1    1    2  506  502 -0.16605096613E+01 -0.46570878643E+02 -0.83564982255E+02  0.95680250257E+02  0.00000000000E+00 0.  1.
<scales pt_clust_3="94.16606" pt_clust_4="14000.00000" pt_clust_5="33.20326" pt_clust_6="36.09911"></scales>
<clustering>
<clus scale="   33.203">  2  5  1 -1</clus>
<clus scale="   36.099">  2  6  1 -1</clus>
<clus scale="   94.166">  2  3  1 -1</clus>
<clus scale="   94.166">  1  3  2 -1</clus>
</clustering>
</event>
<event>
 6    0  0.9315069E+002  0.2790633E+03  0.7546771E-02  0.1096202E+00
         21   -1    0    0  505  501  0.00000000000E+00  0.00000000000E+00  0.71382354480E+02  0.71382354480E+02  0.00000000000E+00 0.  1.
         21   -1    0    0  504  502 -0.00000000000E+00 -0.00000000000E+00 -0.14616888500E+04  0.14616888500E+04  0.00000000000E+00 0.  1.
         21    1    1    2  503  502 -0.30642397686E+02 -0.60664289830E+02 -0.36885714727E+03  0.37506627106E+03  0.00000000000E+00 0.  1.
         21    1    1    2  504  501  0.43608366620E+02 -0.33111713414E+01 -0.19921161993E+03  0.20395568884E+03  0.00000000000E+00 0. -1.
         21    1    1    2  505  506  0.10705509809E+03  0.23382255540E+03 -0.32051829353E+03  0.41093279004E+03  0.00000000000E+00 0.  1.
         21    1    1    2  506  503 -0.12002106703E+03 -0.16984709423E+03 -0.50171943485E+03  0.54311645460E+03  0.00000000000E+00 0.  1.
<scales pt_clust_3="54.77905" pt_clust_4="43.73389" pt_clust_5="261.83085" pt_clust_6="54.77905"></scales>
<clustering>
<clus scale="   43.734">  2  4  1 -1</clus>
<clus scale="   54.779">  3  6 -1 -1</clus>
<clus scale="  261.831">  1  5  2 -1</clus>
<clus scale="  261.831">  1  3  2 -1</clus>
</clustering>
</event>
<event>
 6    0  0.9315069E+002  0.1037925E+03  0.7546771E-02  0.1272517E+00
         21   -1    0    0  506  501  0.00000000000E+00  0.00000000000E+00  0.13608994395E+03  0.13608994395E+03  0.00000000000E+00 0.  1.
         21   -1    0    0  504  502 -0.00000000000E+00 -0.00000000000E+00 -0.14183735475E+04  0.14183735475E+04  0.00000000000E+00 0. -1.
         21    1    1    2  503  501  0.42734740984E+02  0.22404411267E+02  0.52387010428E+02  0.71222290000E+02  0.00000000000E+00 0.  1.
         21    1    1    2  504  505 -0.87110141437E+02  0.38271649497E+02 -0.13408573865E+04  0.13442289340E+04  0.00000000000E+00 0. -1.
         21    1    1    2  505  503  0.61694772501E+02  0.10879695374E+02  0.16213200810E+02  0.64710745676E+02  0.00000000000E+00 0.  1.
         21    1    1    2  506  502 -0.17319372049E+02 -0.71555756138E+02 -0.10026428288E+02  0.74301521848E+02  0.00000000000E+00 0.  1.
<scales pt_clust_3="36.80198" pt_clust_4="94.94436" pt_clust_5="36.80198" pt_clust_6="73.62192"></scales>
<clustering>
<clus scale="   36.802">  3  5 -1 -1</clus>
<clus scale="   73.622">  1  6  2 -1</clus>
<clus scale="   94.944">  2  4  1 -1</clus>
<clus scale="   73.622">  1  3  2 -1</clus>
</clustering>
</event>
<event>
 6    0  0.9315069E+002  0.9038948E+02  0.7546771E-02  0.1301911E+00
         21   -1    0    0  503  501  0.00000000000E+00  0.00000000000E+00  0.44113140260E+03  0.44113140260E+03  0.00000000000E+00 0.  1.
         21   -1    0    0  505  502 -0.00000000000E+00 -0.00000000000E+00 -0.23309189411E+03  0.23309189411E+03  0.00000000000E+00 0. -1.
         21    1    1    2  503  502 -0.94414013772E+02 -0.41684354412E+02  0.33732861207E+03  0.35276363747E+03  0.00000000000E+00 0.  1.
         21    1    1    2  504  501  0.35162734422E+02  0.92593642488E+01  0.12761359589E+02  0.38535775804E+02  0.00000000000E+00 0.  1.
         21    1    1    2  505  506  0.90272471648E+02 -0.91339453524E+00 -0.19391796245E+03  0.21390214956E+03  0.00000000000E+00 0. -1.
         21    1    1    2  506  504 -0.31021192297E+02  0.33338384698E+02  0.51867499284E+02  0.69021733880E+02  0.00000000000E+00 0. -1.
<scales pt_clust_3="14000.00000" pt_clust_4="36.36143" pt_clust_5="90.38948" pt_clust_6="43.29186"></scales>
<clustering>
<clus scale="   36.361">  1  4  2 -1</clus>
<clus scale="   43.292">  1  6  2 -1</clus>
<clus scale="   90.389">  2  5  1 -1</clus>
<clus scale="   36.361">  1  3  2 -1</clus>
</clustering>
</event>
<event>
 6    0  0.9315069E+002  0.8113405E+02  0.7546771E-02  0.1325864E+00
         21   -1    0    0  503  501  0.00000000000E+00  0.00000000000E+00  0.90829556094E+03  0.90829556094E+03  0.00000000000E+00 0.  1.
         21   -1    0    0  504  502 -0.00000000000E+00 -0.00000000000E+00 -0.10765142278E+03  0.10765142278E+03  0.00000000000E+00 0.  1.
         21    1    1    2  503  506 -0.34832492875E+02 -0.13144077388E+02  0.42221295669E+03  0.42385121225E+03  0.00000000000E+00 0.  1.
         21    1    1    2  504  501 -0.21364419054E+02  0.41074103428E+02 -0.83153544542E+02  0.95173695651E+02  0.00000000000E+00 0.  1.
         21    1    1    2  505  502  0.10431585550E+03 -0.57977209099E+02  0.23791768783E+03  0.26617283983E+03  0.00000000000E+00 0. -1.
         21    1    1    2  506  505 -0.48118943573E+02  0.30047183059E+02  0.22366703818E+03  0.23074923599E+03  0.00000000000E+00 0.  1.
<scales pt_clust_3="37.22995" pt_clust_4="46.35508" pt_clust_5="81.13405" pt_clust_6="14000.00000"></scales>
<clustering>
<clus scale="   37.230">  1  3  2 -1</clus>
<clus scale="   46.355">  2  4  1 -1</clus>
<clus scale="   81.134">  2  5  1 -1</clus>
<clus scale="   37.230">  1  3  2 -1</clus>
</clustering>
</event>
<event>
 6    0  0.9315069E+002  0.8742133E+02  0.7546771E-02  0.1309219E+00
         21   -1    0    0  503  501  0.00000000000E+00  0.00000000000E+00  0.47156712445E+02  0.47156712445E+02  0.00000000000E+00 0. -1.
         21   -1    0    0  506  502 -0.00000000000E+00 -0.00000000000E+00 -0.10356271677E+04  0.10356271677E+04  0.00000000000E+00 0. -1.
         21    1    1    2  503  505  0.27372251325E+02  0.30927683054E+02  0.12547526338E+01  0.41319924079E+02  0.00000000000E+00 0. -1.
         21    1    1    2  504  501 -0.10610550685E+03 -0.28471119228E+02 -0.15017540771E+03  0.18606890201E+03  0.00000000000E+00 0. -1.
         21    1    1    2  505  502  0.44561680678E+01 -0.65080812430E+02 -0.28225056128E+03  0.28969078156E+03  0.00000000000E+00 0. -1.
         21    1    1    2  506  504  0.74277087461E+02  0.62624248605E+02 -0.55729923887E+03  0.56570427246E+03  0.00000000000E+00 0. -1.
<scales pt_clust_3="41.30087" pt_clust_4="87.42133" pt_clust_5="61.21135" pt_clust_6="14000.00000"></scales>
<clustering>
<clus scale="   41.301">  1  3  2 -1</clus>
<clus scale="   61.211">  2  5  1 -1</clus>
<clus scale="   87.421">  1  4  2 -1</clus>
<clus scale="   41.301">  1  3  2 -1</clus>
</clustering>
</event>
<event>
 6    0  0.9315069E+002  0.1036054E+03  0.7546771E-02  0.1272892E+00
         21   -1    0    0  506  501  0.00000000000E+00  0.00000000000E+00  0.90271680640E+01  0.90271680640E+01  0.00000000000E+00 0. -1.
         21   -1    0    0  504  502 -0.00000000000E+00 -0.00000000000E+00 -0.21927587134E+04  0.21927587134E+04  0.00000000000E+00 0. -1.
         21    1    1    2  503  505  0.11068995343E+02  0.94457801046E+02 -0.67403291197E+03  0.68070931039E+03  0.00000000000E+00 0. -1.
         21    1    1    2  504  501 -0.15166135223E+02 -0.10889121775E+03 -0.11113030858E+04  0.11167281932E+04  0.00000000000E+00 0. -1.
         21    1    1    2  505  502  0.28874894953E+02 -0.10622922307E+02 -0.24683924592E+03  0.24874931027E+03  0.00000000000E+00 0.  1.
         21    1    1    2  506  503 -0.24777755074E+02  0.25056339007E+02 -0.15155630173E+03  0.15559906769E+03  0.00000000000E+00 0. -1.
<scales pt_clust_3="103.60539" pt_clust_4="14000.00000" pt_clust_5="30.76696" pt_clust_6="33.05507"></scales>
<clustering>
<clus scale="   30.767">  2  5  1 -1</clus>
<clus scale="   33.055">  1  6  2 -1</clus>
<clus scale="  103.605">  1  3  2 -1</clus>
<clus scale="   33.055">  1  3  2 -1</clus>
</clustering>
</event>
<event>
 6    0  0.9315069E+002  0.1580598E+03  0.7546771E-02  0.1190905E+00
         21   -1    0    0  505  501  0.00000000000E+00  0.00000000000E+00  0.14290646883E+03  0.14290646883E+03  0.00000000000E+00 0.  1.
         21   -1    0    0  504  502 -0.00000000000E+00 -0.00000000000E+00 -0.84810107944E+03  0.84810107944E+03  0.00000000000E+00 0. -1.
         21    1    1    2  503  501  0.10809853943E+02  0.15371854412E+03  0.35152490534E+02  0.15805676620E+03  0.00000000000E+00 0.  1.
         21    1    1    2  504  506 -0.31701024117E+02 -0.45664067312E+02 -0.41809802037E+03  0.42177733060E+03  0.00000000000E+00 0. -1.
         21    1    1    2  505  502 -0.67413851997E+01 -0.17657942492E+03 -0.26104212059E+03  0.31522805760E+03  0.00000000000E+00 0. -1.
         21    1    1    2  506  503  0.27632555374E+02  0.68524948111E+02 -0.61206960184E+02  0.95945393871E+02  0.00000000000E+00 0. -1.
<scales pt_clust_3="158.05982" pt_clust_4="55.58923" pt_clust_5="14000.00000" pt_clust_6="63.97869"></scales>
<clustering>
<clus scale="   55.589">  2  4  1 -1</clus>
<clus scale="   63.979">  2  6  1 -1</clus>
<clus scale="  158.060">  1  3  2 -1</clus>
<clus scale="  158.060">  1  3  2 -1</clus>
</clustering>
</event>
<event>
 6    0  0.9315069E+002  0.8844876E+02  0.7546771E-02  0.1306652E+00
         21   -1    0    0  503  501  0.00000000000E+00  0.00000000000E+00  0.25556631719E+03  0.25556631719E+03  0.00000000000E+00 0. -1.
         21   -1    0    0  505  502 -0.00000000000E+00 -0.00000000000E+00 -0.47991342976E+03  0.47991342976E+03  0.00000000000E+00 0. -1.
         21    1    1    2  503  504 -0.12808184288E+02  0.88860314309E+02  0.23018953435E+03  0.24707777473E+03  0.00000000000E+00 0. -1.
         21    1    1    2  504  506  0.56750896814E+02 -0.51938500771E+02 -0.17174034470E+03  0.18818346938E+03  0.00000000000E+00 0. -1.
         21    1    1    2  505  501 -0.33607784833E+02  0.19747583233E+02 -0.74215390219E+02  0.83829436300E+02  0.00000000000E+00 0. -1.
         21    1    1    2  506  502 -0.10334927693E+02 -0.56669396771E+02 -0.20858091200E+03  0.21638906653E+03  0.00000000000E+00 0. -1.
<scales pt_clust_3="88.44876" pt_clust_4="14000.00000" pt_clust_5="38.98013" pt_clust_6="54.10169"></scales>
<clustering>
<clus scale="   38.980">  2  5  1 -1</clus>
<clus scale="   54.102">  2  6  1 -1</clus>
<clus scale="   88.449">  1  3  2 -1</clus>
<clus scale="   88.449">  1  3  2 -1</clus>
</clustering>
</event>
<event>
 6    0  0.9315069E+002  0.8695751E+02  0.7546771E-02  0.1310391E+00
         21   -1    0    0  504  501  0.00000000000E+00  0.00000000000E+00  0.10546781660E+04  0.10546781660E+04  0.00000000000E+00 0.  1.
         21   -1    0    0  506  502 -0.00000000000E+00 -0.00000000000E+00 -0.60552498583E+03  0.60552498583E+03  0.00000000000E+00 0. -1.
         21    1    1    2  503  502 -0.17690075789E+01  0.30274775991E+02 -0.27058867361E+03  0.27228279736E+03  0.00000000000E+00 0. -1.
         21    1    1    2  504  503 -0.16157180166E+02 -0.98103511012E+02 -0.20537907316E+03  0.22817957190E+03  0.00000000000E+00 0. -1.
         21    1    1    2  505  501  0.17551333136E+02 -0.29877046892E+02  0.10217413503E+04  0.10223287505E+04  0.00000000000E+00 0.  1.
         21    1    1    2  506  505  0.37485460913E+00  0.97705781912E+02 -0.96620423371E+02  0.13741203203E+03  0.00000000000E+00 0. -1.
<scales pt_clust_3="30.32642" pt_clust_4="14000.00000" pt_clust_5="34.62720" pt_clust_6="86.95751"></scales>
<clustering>
<clus scale="   30.326">  2  3  1 -1</clus>
<clus scale="   34.627">  1  5  2 -1</clus>
<clus scale="   86.958">  1  6  2 -1</clus>
<clus scale="   34.627">  1  3  2 -1</clus>
</clustering>
</event>
<event>
 6    0  0.9315069E+002  0.1818098E+03  0.7546771E-02  0.1166063E+00
         21   -1    0    0  505  501  0.00000000000E+00  0.00000000000E+00  0.97117729828E+02  0.97117729828E+02  0.00000000000E+00 0.  1.
         21   -1    0    0  503  502 -0.00000000000E+00 -0.00000000000E+00 -0.35420731957E+04  0.35420731957E+04  0.00000000000E+00 0.  1.
         21    1    1    2  503  506 -0.35582258293E+02 -0.18365414973E+03 -0.29158445863E+04  0.29218392487E+04  0.00000000000E+00 0.  1.
         21    1    1    2  504  501 -0.23210953610E+02 -0.41526824430E+02  0.58564489505E+02  0.75452136787E+02  0.00000000000E+00 0.  1.
         21    1    1    2  505  502  0.45241652952E+02  0.80733398921E+02 -0.36176237330E+03  0.37341224351E+03  0.00000000000E+00 0.  1.
         21    1    1    2  506  504  0.13551558952E+02  0.14444757523E+03 -0.22591299581E+03  0.26848729656E+03  0.00000000000E+00 0.  1.
<scales pt_clust_3="181.80980" pt_clust_4="47.57337" pt_clust_5="83.34212" pt_clust_6="14000.00000"></scales>
<clustering>
<clus scale="   47.573">  1  4  2 -1</clus>
<clus scale="   83.342">  1  5  2 -1</clus>
<clus scale="  181.810">  2  3  1 -1</clus>
<clus scale="   47.573">  1  3  2 -1</clus>
</clustering>
</event>
<event>
 6    0  0.9315069E+002  0.1216616E+03  0.7546771E-02  0.1240381E+00
         21   -1    0    0  505  501  0.00000000000E+00  0.00000000000E+00  0.15587578368E+03  0.15587578368E+03  0.00000000000E+00 0. -1.
         21   -1    0    0  506  502 -0.00000000000E+00 -0.00000000000E+00 -0.14968116084E+03  0.14968116084E+03  0.00000000000E+00 0. -1.
         21    1    1    2  503  501  0.36188918543E+01 -0.51557432005E+02  0.28651993836E+02  0.59094855309E+02  0.00000000000E+00 0. -1.
         21    1    1    2  504  502 -0.23063677748E+02 -0.21130994419E+02 -0.47945157352E+02  0.57246748990E+02  0.00000000000E+00 0. -1.
         21    1    1    2  505  504 -0.16087006876E+02  0.12401981335E+03  0.16520417191E+02  0.12614527371E+03  0.00000000000E+00 0. -1.
         21    1    1    2  506  503  0.35531792770E+02 -0.51331386927E+02  0.89673691650E+01  0.63070066522E+02  0.00000000000E+00 0. -1.
<scales pt_clust_3="34.47050" pt_clust_4="31.28022" pt_clust_5="115.80754" pt_clust_6="34.47050"></scales>
<clustering>
<clus scale="   31.280">  2  4  1 -1</clus>
<clus scale="   34.471">  3  6 -1 -1</clus>
<clus scale="  115.808">  2  5  1 -1</clus>
<clus scale="  121.662">  1  3  2 -1</clus>
</clustering>
</event>
<event>
 6    0  0.9315069E+002  0.7073088E+02  0.7546771E-02  0.1357625E+00
         21   -1    0    0  503  501  0.00000000000E+00  0.00000000000E+00  0.62066016428E+03  0.62066016428E+03  0.00000000000E+00 0. -1.
         21   -1    0    0  504  502 -0.00000000000E+00 -0.00000000000E+00 -0.34771672369E+03  0.34771672369E+03  0.00000000000E+00 0. -1.
         21    1    1    2  503  502  0.99729474110E+02 -0.57772561001E+02  0.36804293035E+03  0.38566725995E+03  0.00000000000E+00 0. -1.
         21    1    1    2  504  506  0.25935266428E+02 -0.17117813066E+02 -0.30641513383E+03  0.30798683707E+03  0.00000000000E+00 0. -1.
         21    1    1    2  505  501 -0.48480800878E+02  0.39266282309E+02  0.16821634957E+03  0.17941284581E+03  0.00000000000E+00 0. -1.
         21    1    1    2  506  505 -0.77183939660E+02  0.35624091758E+02  0.43099294506E+02  0.95309945136E+02  0.00000000000E+00 0. -1.
<scales pt_clust_3="70.73088" pt_clust_4="31.07503" pt_clust_5="58.11579" pt_clust_6="14000.00000"></scales>
<clustering>
<clus scale="   31.075">  2  4  1 -1</clus>
<clus scale="   58.116">  1  5  2 -1</clus>
<clus scale="   70.731">  1  3  2 -1</clus>
<clus scale="   58.116">  1  3  2 -1</clus>
</clustering>
</event>
<event>
 6    0  0.9315069E+002  0.1235308E+03  0.7546771E-02  0.1237383E+00
         21   -1    0    0  506  501  0.00000000000E+00  0.00000000000E+00  0.17098869328E+03  0.17098869328E+03  0.00000000000E+00 0. -1.
         21   -1    0    0  505  502 -0.00000000000E+00 -0.00000000000E+00 -0.70733523195E+03  0.70733523195E+03  0.00000000000E+00 0. -1.
         21    1    1    2  503  504 -0.43595591069E+02  0.42257742680E+02 -0.76649087045E+02  0.97782283272E+02  0.00000000000E+00 0.  1.
         21    1    1    2  504  501  0.21763833226E+01  0.40450206672E+02 -0.42306826836E+02  0.58573231609E+02  0.00000000000E+00 0. -1.
         21    1    1    2  505  503  0.58475103212E+02 -0.11051287990E+03 -0.56096784540E+03  0.57473242286E+03  0.00000000000E+00 0. -1.
         21    1    1    2  506  502 -0.17055895465E+02  0.27804930544E+02  0.14357722061E+03  0.14723598749E+03  0.00000000000E+00 0. -1.
<scales pt_clust_3="34.12078" pt_clust_4="34.12078" pt_clust_5="116.27329" pt_clust_6="32.61928"></scales>
<clustering>
<clus scale="   32.619">  1  6  2 -1</clus>
<clus scale="   34.121">  3  4 -1 -1</clus>
<clus scale="  116.273">  2  5  1 -1</clus>
<clus scale="   32.619">  1  3  2 -1</clus>
</clustering>
</event>
<event>
 6    0  0.9315069E+002  0.1048270E+03  0.7546771E-02  0.1270461E+00
         21   -1    0    0  505  501  0.00000000000E+00  0.00000000000E+00  0.85561937562E+03  0.85561937562E+03  0.00000000000E+00 0. -1.
         21   -1    0    0  504  502 -0.00000000000E+00 -0.00000000000E+00 -0.10739947828E+03  0.10739947828E+03  0.00000000000E+00 0.  1.
         21    1    1    2  503  506 -0.25027892464E+02 -0.56011681139E+02 -0.66924532670E+02  0.90788748743E+02  0.00000000000E+00 0.  1.
         21    1    1    2  504  501  0.65624509381E+02  0.33861667027E+02  0.67452449065E+03  0.67855469729E+03  0.00000000000E+00 0. -1.
         21    1    1    2  505  503 -0.37237251546E+01  0.65551192023E+02  0.11227073608E+03  0.13005976736E+03  0.00000000000E+00 0. -1.
         21    1    1    2  506  502 -0.36872891763E+02 -0.43401177911E+02  0.28349203270E+02  0.63615640507E+02  0.00000000000E+00 0.  1.
<scales pt_clust_3="104.82700" pt_clust_4="14000.00000" pt_clust_5="61.69345" pt_clust_6="56.94974"></scales>
<clustering>
<clus scale="   56.950">  2  6  1 -1</clus>
<clus scale="   61.693">  1  5  2 -1</clus>
<clus scale="  104.827">  2  3  1 -1</clus>
<clus scale="   61.693">  1  3  2 -1</clus>
</clustering>
</event>
<event>
 6    0  0.9315069E+002  0.8666653E+02  0.7546771E-02  0.1311131E+00
         21   -1    0    0  506  501  0.00000000000E+00  0.00000000000E+00  0.57872536495E+03  0.57872536495E+03  0.00000000000E+00 0.  1.
         21   -1    0    0  503  502 -0.00000000000E+00 -0.00000000000E+00 -0.19397365098E+03  0.19397365098E+03  0.00000000000E+00 0.  1.
         21    1    1    2  503  501 -0.51462172358E+02  0.68752001705E+02 -0.14671386027E+03  0.17000044034E+03  0.00000000000E+00 0.  1.
         21    1    1    2  504  505 -0.53506727504E+02 -0.50091167540E+02  0.81126113566E+02  0.10933225167E+03  0.00000000000E+00 0. -1.
         21    1    1    2  505  502  0.83684618334E+02 -0.78848030563E+02  0.38587340324E+03  0.40263930583E+03  0.00000000000E+00 0.  1.
         21    1    1    2  506  504  0.21284281528E+02  0.60187196398E+02  0.64466057426E+02  0.90727018085E+02  0.00000000000E+00 0.  1.
<scales pt_clust_3="14000.00000" pt_clust_4="62.77434" pt_clust_5="86.66653" pt_clust_6="63.83979"></scales>
<clustering>
<clus scale="   63.840">  1  6  2 -1</clus>
<clus scale="   62.774">  1  4  2 -1</clus>
<clus scale="   86.667">  1  5  2 -1</clus>
<clus scale="   63.840">  1  3  2 -1</clus>
</clustering>
</event>
<event>
 6    0  0.9315069E+002  0.2033477E+03  0.7546771E-02  0.1146945E+00
         21   -1    0    0  505  501  0.00000000000E+00  0.00000000000E+00  0.83425065794E+03  0.83425065794E+03  0.00000000000E+00 0. -1.
         21   -1    0    0  504  502 -0.00000000000E+00 -0.00000000000E+00 -0.13996510437E+03  0.13996510437E+03  0.00000000000E+00 0.  1.
         21    1    1    2  503  501 -0.30907284271E+02  0.79813872191E+02  0.24396486545E+03  0.25854278174E+03  0.00000000000E+00 0. -1.
         21    1    1    2  504  506 -0.41597391034E+02  0.11806827738E+02 -0.86236944753E+02  0.96470486483E+02  0.00000000000E+00 0.  1.
         21    1    1    2  505  502  0.11703629495E+03 -0.17584471006E+03  0.40493449030E+03  0.45671741572E+03  0.00000000000E+00 0.  1.
         21    1    1    2  506  503 -0.44531619640E+02  0.84224010134E+02  0.13162314258E+03  0.16248507837E+03  0.00000000000E+00 0. -1.
<scales pt_clust_3="55.36870" pt_clust_4="43.24054" pt_clust_5="194.29776" pt_clust_6="55.36870"></scales>
<clustering>
<clus scale="   43.241">  2  4  1 -1</clus>
<clus scale="   55.369">  3  6 -1 -1</clus>
<clus scale="  194.298">  2  5  1 -1</clus>
<clus scale="  203.348">  1  3  2 -1</clus>
</clustering>
</event>
<event>
 6    0  0.9315069E+002  0.9759439E+02  0.7546771E-02  0.1285437E+00
         21   -1    0    0  505  501  0.00000000000E+00  0.00000000000E+00  0.14786769708E+03  0.14786769708E+03  0.00000000000E+00 0.  1.
         21   -1    0    0  504  502 -0.00000000000E+00 -0.00000000000E+00 -0.30964378239E+04  0.30964378239E+04  0.00000000000E+00 0.  1.
         21    1    1    2  503  506 -0.34700978062E+02 -0.68905998532E+02 -0.67372211326E+03  0.67812512150E+03  0.00000000000E+00 0. -1.
         21    1    1    2  504  503 -0.35852792334E+02  0.18217675854E+01 -0.22931807020E+04  0.22934616791E+04  0.00000000000E+00 0.  1.
         21    1    1    2  505  502 -0.33093521172E+02 -0.40658346088E+02  0.92124329807E+02  0.10599610555E+03  0.00000000000E+00 0.  1.
         21    1    1    2  506  501  0.10364729157E+03  0.10774257703E+03 -0.73791641376E+02  0.16672261482E+03  0.00000000000E+00 0.  1.
<scales pt_clust_3="97.59439" pt_clust_4="35.89905" pt_clust_5="52.60791" pt_clust_6="14000.00000"></scales>
<clustering>
<clus scale="   35.899">  2  4  1 -1</clus>
<clus scale="   52.608">  1  5  2 -1</clus>
<clus scale="   97.594">  2  3  1 -1</clus>
<clus scale="   52.608">  1  3  2 -1</clus>
</clustering>
</event>
<event>
 6    0  0.9315069E+002  0.7403682E+02  0.7546771E-02  0.1346880E+00
         21   -1    0    0  505  501  0.00000000000E+00  0.00000000000E+00  0.79362506108E+03  0.79362506108E+03  0.00000000000E+00 0. -1.
         21   -1    0    0  504  502 -0.00000000000E+00 -0.00000000000E+00 -0.81434047751E+03  0.81434047751E+03  0.00000000000E+00 0. -1.
         21    1    1    2  503  501  0.55864317856E+02  0.24598807188E+02  0.33848392639E+03  0.34394373341E+03  0.00000000000E+00 0. -1.
         21    1    1    2  504  503 -0.12056949880E+02  0.38773057030E+02 -0.78690414113E+03  0.78795104373E+03  0.00000000000E+00 0. -1.
         21    1    1    2  505  506 -0.86164931851E+02 -0.68770281978E+02  0.41798393191E+03  0.43227805230E+03  0.00000000000E+00 0. -1.
         21    1    1    2  506  502  0.42357563875E+02  0.53984177594E+01  0.97208663976E+01  0.43792709157E+02  0.00000000000E+00 0.  1.
<scales pt_clust_3="74.03682" pt_clust_4="40.60443" pt_clust_5="14000.00000" pt_clust_6="45.85165"></scales>
<clustering>
<clus scale="   40.604">  2  4  1 -1</clus>
<clus scale="   45.852">  2  6  1 -1</clus>
<clus scale="   74.037">  1  3  2 -1</clus>
<clus scale="   74.037">  1  3  2 -1</clus>
</clustering>
</event>
<event>
 6    0  0.9315069E+002  0.8593735E+02  0.7546771E-02  0.1312999E+00
         21   -1    0    0  503  501  0.00000000000E+00  0.00000000000E+00  0.20488841244E+03  0.20488841244E+03  0.00000000000E+00 0. -1.
         21   -1    0    0  504  502 -0.00000000000E+00 -0.00000000000E+00 -0.12227844217E+03  0.12227844217E+03  0.00000000000E+00 0. -1.
         21    1    1    2  503  502  0.54984970158E+02 -0.76219250906E+02  0.11561981015E+02  0.94691079606E+02  0.00000000000E+00 0. -1.
         21    1    1    2  504  505  0.33249852816E+02  0.93583014621E+02 -0.10355437352E+02  0.99852733666E+02  0.00000000000E+00 0. -1.
         21    1    1    2  505  506 -0.62572600460E+02 -0.32942028334E+02  0.72579478561E+02  0.10133256272E+03  0.00000000000E+00 0. -1.
         21    1    1    2  506  501 -0.25662222514E+02  0.15578264619E+02  0.88239480470E+01  0.31290478616E+02  0.00000000000E+00 0. -1.
<scales pt_clust_3="85.93735" pt_clust_4="14000.00000" pt_clust_5="78.91773" pt_clust_6="30.02053"></scales>
<clustering>
<clus scale="   30.021">  1  6  2 -1</clus>
<clus scale="   78.918">  1  5  2 -1</clus>
<clus scale="   85.937">  1  3  2 -1</clus>
<clus scale="   30.021">  1  3  2 -1</clus>
</clustering>
</event>
<event>
 6    0  0.9315069E+002  0.1207214E+03  0.7546771E-02  0.1241912E+00
         21   -1    0    0  503  501  0.00000000000E+00  0.00000000000E+00  0.13222092849E+04  0.13222092849E+04  0.00000000000E+00 0.  1.
         21   -1    0    0  506  502 -0.00000000000E+00 -0.00000000000E+00 -0.35870738085E+02  0.35870738085E+02  0.00000000000E+00 0.  1.
         21    1    1    2  503  505  0.67444443942E+02 -0.42815206022E+02  0.20232966431E+03  0.21752974037E+03  0.00000000000E+00 0.  1.
         21    1    1    2  504  501 -0.59548404838E+02  0.84391243789E+02  0.98554051026E+03  0.99093793544E+03  0.00000000000E+00 0.  1.
         21    1    1    2  505  502  0.47852143827E+02 -0.27186298981E+02  0.49828837457E+02  0.74241737341E+02  0.00000000000E+00 0.  1.
         21    1    1    2  506  504 -0.55748182930E+02 -0.14389738787E+02  0.48639534811E+02  0.75370609849E+02  0.00000000000E+00 0.  1.
<scales pt_clust_3="48.06318" pt_clust_4="105.92680" pt_clust_5="48.06318" pt_clust_6="57.57538"></scales>
<clustering>
<clus scale="   48.063">  3  5 -1 -1</clus>
<clus scale="   57.575">  2  6  1 -1</clus>
<clus scale="  105.927">  1  4  2 -1</clus>
<clus scale="  105.927">  1  3  2 -1</clus>
</clustering>
</event>
<event>
 6    0  0.9315069E+002  0.1169820E+03  0.7546771E-02  0.1248160E+00
         21   -1    0    0  505  501  0.00000000000E+00  0.00000000000E+00  0.14130256322E+04  0.14130256322E+04  0.00000000000E+00 0. -1.
         21   -1    0    0  503  502 -0.00000000000E+00 -0.00000000000E+00 -0.12983760139E+03  0.12983760139E+03  0.00000000000E+00 0.  1.
         21    1    1    2  503  504  0.14174229291E+02 -0.27620804068E+02 -0.92866757541E+02  0.97918600121E+02  0.00000000000E+00 0.  1.
         21    1    1    2  504  506 -0.16299843575E+02  0.13188538855E+03  0.50022660108E+03  0.51757713729E+03  0.00000000000E+00 0. -1.
         21    1    1    2  505  502  0.31264757635E+02 -0.87216044803E+02  0.58998729708E+02  0.10984067392E+03  0.00000000000E+00 0. -1.
         21    1    1    2  506  501 -0.29139143350E+02 -0.17048539678E+02  0.81682945754E+03  0.81752682224E+03  0.00000000000E+00 0. -1.
<scales pt_clust_3="31.04541" pt_clust_4="14000.00000" pt_clust_5="116.98203" pt_clust_6="33.77888"></scales>
<clustering>
<clus scale="   31.045">  2  3  1 -1</clus>
<clus scale="   33.779">  1  6  2 -1</clus>
<clus scale="  116.982">  2  5  1 -1</clus>
<clus scale="   33.779">  1  3  2 -1</clus>
</clustering>
</event>
<event>
 6    0  0.9315069E+002  0.9035426E+02  0.7546771E-02  0.1301996E+00
         21   -1    0    0  503  501  0.00000000000E+00  0.00000000000E+00  0.20367794589E+03  0.20367794589E+03  0.00000000000E+00 0.  1.
         21   -1    0    0  504  502 -0.00000000000E+00 -0.00000000000E+00 -0.64259319655E+03  0.64259319655E+03  0.00000000000E+00 0.  1.
         21    1    1    2  503  505  0.20818773513E+02  0.26274596833E+02  0.36716361506E+02  0.49717873764E+02  0.00000000000E+00 0.  1.
         21    1    1    2  504  501  0.95432849516E+02 -0.50824683814E+02  0.16201223392E+02  0.10933003654E+03  0.00000000000E+00 0.  1.
         21    1    1    2  505  506 -0.62545655536E+02  0.53893161184E+02  0.78317164425E+02  0.11379811111E+03  0.00000000000E+00 0.  1.
         21    1    1    2  506  502 -0.53705967492E+02 -0.29343074203E+02 -0.57014999998E+03  0.57342512102E+03  0.00000000000E+00 0.  1.
<scales pt_clust_3="33.52276" pt_clust_4="90.35426" pt_clust_5="14000.00000" pt_clust_6="60.88437"></scales>
<clustering>
<clus scale="   33.523">  1  3  2 -1</clus>
<clus scale="   60.884">  2  6  1 -1</clus>
<clus scale="   90.354">  2  4  1 -1</clus>
<clus scale="   33.523">  1  3  2 -1</clus>
</clustering>
</event>
<event>
 6    0  0.9315069E+002  0.8361737E+02  0.7546771E-02  0.1319088E+00
         21   -1    0    0  505  501  0.00000000000E+00  0.00000000000E+00  0.44214154875E+03  0.44214154875E+03  0.00000000000E+00 0.  1.
         21   -1    0    0  506  502 -0.00000000000E+00 -0.00000000000E+00 -0.21930581512E+03  0.21930581512E+03  0.00000000000E+00 0.  1.
         21    1    1    2  503  502 -0.83178150945E+02  0.13997380670E+02 -0.18301347828E+03  0.20151542048E+03  0.00000000000E+00 0.  1.
         21    1    1    2  504  503  0.21360409258E+02  0.74635220282E+02  0.82814857783E+02  0.11351204280E+03  0.00000000000E+00 0. -1.
         21    1    1    2  505  504  0.17064512165E+00 -0.35121123427E+02  0.16331071939E+03  0.16704464523E+03  0.00000000000E+00 0.  1.
         21    1    1    2  506  501  0.61647096565E+02 -0.53511477525E+02  0.15972363474E+03  0.17937525536E+03  0.00000000000E+00 0.  1.
<scales pt_clust_3="83.61737" pt_clust_4="65.77325" pt_clust_5="35.12154" pt_clust_6="14000.00000"></scales>
<clustering>
<clus scale="   35.122">  1  5  2 -1</clus>
<clus scale="   65.773">  1  4  2 -1</clus>
<clus scale="   83.617">  2  3  1 -1</clus>
<clus scale="   35.122">  1  3  2 -1</clus>
</clustering>
</event>
<event>
 6    0  0.9315069E+002  0.1812384E+03  0.7546771E-02  0.1166610E+00
         21   -1    0    0  504  501  0.00000000000E+00  0.00000000000E+00  0.17003792633E+04  0.17003792633E+04  0.00000000000E+00 0. -1.
         21   -1    0    0  501  502 -0.00000000000E+00 -0.00000000000E+00 -0.39848372714E+03  0.39848372714E+03  0.00000000000E+00 0. -1.
         21    1    1    2  503  505 -0.41391623316E+02  0.46321306354E+00  0.15468501995E+01  0.41423106989E+02  0.00000000000E+00 0.  1.
         21    1    1    2  504  506  0.16311074779E+03 -0.71032947596E+02  0.16496810675E+04  0.16592463411E+04  0.00000000000E+00 0. -1.
         21    1    1    2  505  502 -0.52077691489E+02  0.86654381307E+02 -0.28362663353E+03  0.30110651770E+03  0.00000000000E+00 0. -1.
         21    1    1    2  506  503 -0.69641432988E+02 -0.16084646775E+02 -0.65705748005E+02  0.97087024732E+02  0.00000000000E+00 0. -1.
<scales pt_clust_3="38.02278" pt_clust_4="174.21552" pt_clust_5="101.09930" pt_clust_6="38.02278"></scales>
<clustering>
<clus scale="   38.023">  3  6 -1 -1</clus>
<clus scale="  101.099">  2  5  1 -1</clus>
<clus scale="  174.216">  1  4  2 -1</clus>
<clus scale="  174.216">  1  3  2 -1</clus>
</clustering>
</event>
<event>
 6    0  0.9315069E+002  0.1139507E+03  0.7546771E-02  0.1253424E+00
         21   -1    0    0  506  501  0.00000000000E+00  0.00000000000E+00  0.23691892168E+03  0.23691892168E+03  0.00000000000E+00 0.  1.
         21   -1    0    0  503  502 -0.00000000000E+00 -0.00000000000E+00 -0.18692121958E+04  0.18692121958E+04  0.00000000000E+00 0.  1.
         21    1    1    2  503  501 -0.23149171738E+02 -0.66139441962E+02 -0.21706239189E+03  0.22809294577E+03  0.00000000000E+00 0.  1.
         21    1    1    2  504  505  0.51232734189E+02  0.70671884299E+02 -0.34775573822E+03  0.35854338894E+03  0.00000000000E+00 0.  1.
         21    1    1    2  505  502  0.43947153729E+02  0.85203754103E+02 -0.12769241650E+04  0.12805180027E+04  0.00000000000E+00 0.  1.
         21    1    1    2  506  504 -0.72030716180E+02 -0.89736196440E+02  0.20944902100E+03  0.23897678009E+03  0.00000000000E+00 0.  1.
<scales pt_clust_3="70.07360" pt_clust_4="14000.00000" pt_clust_5="42.65844" pt_clust_6="113.95068"></scales>
<clustering>
<clus scale="   70.074">  2  3  1 -1</clus>
<clus scale="   42.658">  2  5  1 -1</clus>
<clus scale="  113.951">  1  6  2 -1</clus>
<clus scale="  113.951">  1  3  2 -1</clus>
</clustering>
</event>
<event>
 6    0  0.9315069E+002  0.1181839E+03  0.7546771E-02  0.1246123E+00
         21   -1    0    0  506  501  0.00000000000E+00  0.00000000000E+00  0.65697668345E+02  0.65697668345E+02  0.00000000000E+00 0.  1.
         21   -1    0    0  503  502 -0.00000000000E+00 -0.00000000000E+00 -0.22374126330E+04  0.22374126330E+04  0.00000000000E+00 0. -1.
         21    1    1    2  503  505 -0.16119917116E+02 -0.40905311010E+02 -0.16834718409E+04  0.16840458828E+04  0.00000000000E+00 0. -1.
         21    1    1    2  504  502  0.87893938991E+02  0.11047243384E+02 -0.83074509752E+02  0.12144447401E+03  0.00000000000E+00 0.  1.
         21    1    1    2  505  501 -0.12020147538E+03 -0.40702650986E+02 -0.39073961038E+03  0.41083152703E+03  0.00000000000E+00 0.  1.
         21    1    1    2  506  504  0.48427453503E+02  0.70560718612E+02 -0.14429003572E+02  0.86788417476E+02  0.00000000000E+00 0.  1.
<scales pt_clust_3="43.96699" pt_clust_4="118.18388" pt_clust_5="14000.00000" pt_clust_6="81.66886"></scales>
<clustering>
<clus scale="   43.967">  2  3  1 -1</clus>
<clus scale="   81.669">  1  6  2 -1</clus>
<clus scale="  118.184">  1  4  2 -1</clus>
<clus scale="   81.669">  1  3  2 -1</clus>
</clustering>
</event>
<event>
 6    0  0.9315069E+002  0.1690749E+03  0.7546771E-02  0.1178816E+00
         21   -1    0    0  505  501  0.00000000000E+00  0.00000000000E+00  0.19136891472E+04  0.19136891472E+04  0.00000000000E+00 0.  1.
         21   -1    0    0  503  502 -0.00000000000E+00 -0.00000000000E+00 -0.46313072025E+03  0.46313072025E+03  0.00000000000E+00 0.  1.
         21    1    1    2  503  501 -0.27498796458E+02 -0.31288339832E+02  0.61921188932E+01  0.42112781343E+02  0.00000000000E+00 0.  1.
         21    1    1    2  504  506 -0.46219652309E+02  0.14277550870E+03  0.59444868448E+02  0.16141497616E+03  0.00000000000E+00 0.  1.
         21    1    1    2  505  504  0.12003492286E+03 -0.12292986248E+03  0.17734962576E+04  0.17817994022E+04  0.00000000000E+00 0.  1.
         21    1    1    2  506  502 -0.46316474094E+02  0.11442693616E+02 -0.38857481804E+03  0.39149270776E+03  0.00000000000E+00 0.  1.
<scales pt_clust_3="41.65506" pt_clust_4="169.07495" pt_clust_5="14000.00000" pt_clust_6="72.19791"></scales>
<clustering>
<clus scale="   41.655">  2  3  1 -1</clus>
<clus scale="   72.198">  2  6  1 -1</clus>
<clus scale="  169.075">  2  4  1 -1</clus>
<clus scale="  169.075">  1  3  2 -1</clus>
</clustering>
</event>
<event>
 6    0  0.9315069E+002  0.1082117E+03  0.7546771E-02  0.1263918E+00
         21   -1    0    0  505  501  0.00000000000E+00  0.00000000000E+00  0.20109925008E+03  0.20109925008E+03  0.00000000000E+00 0.  1.
         21   -1    0    0  506  502 -0.00000000000E+00 -0.00000000000E+00 -0.29562750699E+03  0.29562750699E+03  0.00000000000E+00 0.  1.
         21    1    1    2  503  502  0.30155478646E+02  0.73377443859E+02 -0.22253880800E+03  0.23625647764E+03  0.00000000000E+00 0.  1.
         21    1    1    2  504  503  0.40525365926E+02 -0.61611219479E+02  0.10275066589E+02  0.74456864308E+02  0.00000000000E+00 0.  1.
         21    1    1    2  505  504  0.56197639710E+01 -0.55645215427E+02  0.48489785589E+02  0.74021828223E+02  0.00000000000E+00 0.  1.
         21    1    1    2  506  501 -0.76300608543E+02  0.43878991047E+02  0.69245698913E+02  0.11199158690E+03  0.00000000000E+00 0.  1.
<scales pt_clust_3="79.33223" pt_clust_4="45.37007" pt_clust_5="45.37007" pt_clust_6="94.84518"></scales>
<clustering>
<clus scale="   45.370">  4  5 -1 -1</clus>
<clus scale="   79.332">  2  3  1 -1</clus>
<clus scale="   94.845">  1  6  2 -1</clus>
<clus scale="   94.845">  1  3  2 -1</clus>
</clustering>
</event>
<event>
 6    0  0.9315069E+002  0.1761064E+03  0.7546771E-02  0.1171625E+00
         21   -1    0    0  503  501  0.00000000000E+00  0.00000000000E+00  0.41152456276E+03  0.41152456276E+03  0.00000000000E+00 0.  1.
         21   -1    0    0  505  502 -0.00000000000E+00 -0.00000000000E+00 -0.41943498060E+03  0.41943498060E+03  0.00000000000E+00 0.  1.
         21    1    1    2  503  506  0.15611942779E+03  0.16097189942E+03  0.28828798211E+03  0.36523306088E+03  0.00000000000E+00 0.  1.
         21    1    1    2  504  501  0.20538774624E+02 -0.25126238523E+02  0.28244988219E+01  0.32575250098E+02  0.00000000000E+00 0.  1.
         21    1    1    2  505  504 -0.77500921991E+02 -0.83814402704E+02 -0.32705638421E+00  0.11415495598E+03  0.00000000000E+00 0. -1.
         21    1    1    2  506  502 -0.99157280420E+02 -0.52031258194E+02 -0.29869584239E+03  0.31899627639E+03  0.00000000000E+00 0.  1.
<scales pt_clust_3="14000.00000" pt_clust_4="32.45257" pt_clust_5="176.10644" pt_clust_6="111.81471"></scales>
<clustering>
<clus scale="   32.453">  1  4  2 -1</clus>
<clus scale="  111.815">  2  6  1 -1</clus>
<clus scale="  176.106">  2  5  1 -1</clus>
<clus scale="   32.453">  1  3  2 -1</clus>
</clustering>
</event>
<event>
 6    0  0.9315069E+002  0.1037602E+03  0.7546771E-02  0.1272582E+00
         21   -1    0    0  504  501  0.00000000000E+00  0.00000000000E+00  0.54994941186E+03  0.54994941186E+03  0.00000000000E+00 0.  1.
         21   -1    0    0  505  502 -0.00000000000E+00 -0.00000000000E+00 -0.40206516903E+03  0.40206516903E+03  0.00000000000E+00 0. -1.
         21    1    1    2  503  506  0.16845507270E+02 -0.55888379390E+02  0.22501646907E+01  0.58415283165E+02  0.00000000000E+00 0. -1.
         21    1    1    2  504  502 -0.15941978581E+02  0.77890054863E+02  0.49391908456E+03  0.50027699270E+03  0.00000000000E+00 0.  1.
         21    1    1    2  505  503 -0.54065419100E+02  0.39533550343E+02 -0.27763462973E+03  0.28559929757E+03  0.00000000000E+00 0. -1.
         21    1    1    2  506  501  0.53161890411E+02 -0.61535225815E+02 -0.70650376692E+02  0.10772300745E+03  0.00000000000E+00 0. -1.
<scales pt_clust_3="55.12921" pt_clust_4="80.82183" pt_clust_5="66.97739" pt_clust_6="55.12921"></scales>
<clustering>
<clus scale="   55.129">  3  6 -1 -1</clus>
<clus scale="   66.977">  2  5  1 -1</clus>
<clus scale="   80.822">  1  4  2 -1</clus>
<clus scale="   80.822">  1  3  2 -1</clus>
</clustering>
</event>
<event>
 6    0  0.9315069E+002  0.1287196E+03  0.7546771E-02  0.1229368E+00
         21   -1    0    0  504  501  0.00000000000E+00  0.00000000000E+00  0.13820159824E+04  0.13820159824E+04  0.00000000000E+00 0.  1.
         21   -1    0    0  501  502 -0.00000000000E+00 -0.00000000000E+00 -0.24591736694E+02  0.24591736694E+02  0.00000000000E+00 0.  1.
         21    1    1    2  503  505 -0.53788684785E+02  0.51585235330E+02  0.16343904632E+03  0.17962900928E+03  0.00000000000E+00 0.  1.
         21    1    1    2  504  503  0.76737238033E+02 -0.86687199177E+02  0.88857872567E+03  0.89608896094E+03  0.00000000000E+00 0.  1.
         21    1    1    2  505  506 -0.68381694326E+02  0.16412026687E+02  0.23306874959E+03  0.24344702252E+03  0.00000000000E+00 0. -1.
         21    1    1    2  506  502  0.45433141077E+02  0.18689937160E+02  0.72337724112E+02  0.87442726335E+02  0.00000000000E+00 0.  1.
<scales pt_clust_3="45.82729" pt_clust_4="119.76250" pt_clust_5="45.82729" pt_clust_6="49.12722"></scales>
<clustering>
<clus scale="   45.827">  3  5 -1 -1</clus>
<clus scale="   49.127">  2  6  1 -1</clus>
<clus scale="  119.762">  1  4  2 -1</clus>
<clus scale="  119.762">  1  3  2 -1</clus>
</clustering>
</event>
<event>
 6    0  0.9315069E+002  0.1833403E+03  0.7546771E-02  0.1164609E+00
         21   -1    0    0  505  501  0.00000000000E+00  0.00000000000E+00  0.29565645881E+03  0.29565645881E+03  0.00000000000E+00 0. -1.
         21   -1    0    0  506  502 -0.00000000000E+00 -0.00000000000E+00 -0.22653769665E+03  0.22653769665E+03  0.00000000000E+00 0. -1.
         21    1    1    2  503  501  0.13990146025E+02  0.41065638124E+02  0.19652642988E+02  0.47627063701E+02  0.00000000000E+00 0. -1.
         21    1    1    2  504  502 -0.88837448808E+02 -0.13264180050E+03 -0.61749373036E+02  0.17116928644E+03  0.00000000000E+00 0. -1.
         21    1    1    2  505  504 -0.55304258193E+02  0.20815274039E+02  0.14047018429E+03  0.15239327177E+03  0.00000000000E+00 0. -1.
         21    1    1    2  506  503  0.13015156098E+03  0.70760888341E+02 -0.29254692081E+02  0.15100453355E+03  0.00000000000E+00 0. -1.
<scales pt_clust_3="42.19710" pt_clust_4="165.93176" pt_clust_5="59.09176" pt_clust_6="42.19710"></scales>
<clustering>
<clus scale="   42.197">  3  6 -1 -1</clus>
<clus scale="   59.092">  1  5  2 -1</clus>
<clus scale="  165.932">  2  4  1 -1</clus>
<clus scale="   59.092">  1  3  2 -1</clus>
</clustering>
</event>
<event>
 6    0  0.9315069E+002  0.1103411E+03  0.7546771E-02  0.1259940E+00
         21   -1    0    0  503  501  0.00000000000E+00  0.00000000000E+00  0.23801169383E+03  0.23801169383E+03  0.00000000000E+00 0. -1.
         21   -1    0    0  505  502 -0.00000000000E+00 -0.00000000000E+00 -0.34597532488E+03  0.34597532488E+03  0.00000000000E+00 0. -1.
         21    1    1    2  503  502  0.60508269363E+02 -0.97628248934E+01 -0.16350565118E+03  0.17461575353E+03  0.00000000000E+00 0. -1.
         21    1    1    2  504  501 -0.92544923371E+02 -0.71033353827E+02  0.19910058030E+03  0.23076252138E+03  0.00000000000E+00 0. -1.
         21    1    1    2  505  506  0.93535280528E+01  0.41111854764E+02 -0.11998716030E+03  0.12717936832E+03  0.00000000000E+00 0. -1.
         21    1    1    2  506  504  0.22683125955E+02  0.39684323956E+02 -0.23571399866E+02  0.51429375483E+02  0.00000000000E+00 0. -1.
<scales pt_clust_3="110.34106" pt_clust_4="14000.00000" pt_clust_5="42.16246" pt_clust_6="52.55172"></scales>
<clustering>
<clus scale="   42.162">  2  5  1 -1</clus>
<clus scale="   52.552">  2  6  1 -1</clus>
<clus scale="  110.341">  2  3  1 -1</clus>
<clus scale="  110.341">  1  3  2 -1</clus>
</clustering>
</event>
<event>
 6    0  0.9315069E+002  0.1146551E+03  0.7546771E-02  0.1252184E+00
         21   -1    0    0  506  501  0.00000000000E+00  0.00000000000E+00  0.25559007280E+04  0.25559007280E+04  0.00000000000E+00 0. -1.
         21   -1    0    0  504  502 -0.00000000000E+00 -0.00000000000E+00 -0.17644781978E+03  0.17644781978E+03  0.00000000000E+00 0.  1.
         21    1    1    2  503  505 -0.48481132762E+02 -0.77616143484E+02  0.54014985974E+02  0.10626525619E+03  0.00000000000E+00 0. -1.
         21    1    1    2  504  503 -0.30604048214E+02 -0.17896440010E+02 -0.14558055830E+03  0.14983520710E+03  0.00000000000E+00 0.  1.
         21    1    1    2  505  501  0.78452358201E+02  0.14439644881E+02  0.12179690361E+04  0.12205784894E+04  0.00000000000E+00 0.  1.
         21    1    1    2  506  502  0.63282277535E+00  0.81072938613E+02  0.12530494445E+04  0.12556695951E+04  0.00000000000E+00 0. -1.
<scales pt_clust_3="114.65513" pt_clust_4="35.45265" pt_clust_5="78.25859" pt_clust_6="14000.00000"></scales>
<clustering>
<clus scale="   35.453">  2  4  1 -1</clus>
<clus scale="   78.259">  1  5  2 -1</clus>
<clus scale="  114.655">  2  3  1 -1</clus>
<clus scale="   78.259">  1  3  2 -1</clus>
</clustering>
</event>
<event>
 6    0  0.9315069E+002  0.1132520E+03  0.7546771E-02  0.1254664E+00
         21   -1    0    0  506  501  0.00000000000E+00  0.00000000000E+00  0.18421201203E+03  0.18421201203E+03  0.00000000000E+00 0.  1.
         21   -1    0    0  505  502 -0.00000000000E+00 -0.00000000000E+00 -0.16057806448E+03  0.16057806448E+03  0.00000000000E+00 0.  1.
         21    1    1    2  503  502 -0.14344983315E+02 -0.29928122501E+02 -0.29203442099E+02  0.44207602211E+02  0.00000000000E+00 0. -1.
         21    1    1    2  504  503 -0.32611894475E+02 -0.41076810543E+02  0.66680875955E+01  0.52870629066E+02  0.00000000000E+00 0.  1.
         21    1    1    2  505  501 -0.92189944724E+02  0.23677967953E+02  0.61236905260E+01  0.95378884772E+02  0.00000000000E+00 0.  1.
         21    1    1    2  506  504  0.13914682251E+03  0.47326965092E+02  0.40045611528E+02  0.15233296046E+03  0.00000000000E+00 0.  1.
<scales pt_clust_3="32.50462" pt_clust_4="94.42638" pt_clust_5="113.25195" pt_clust_6="14000.00000"></scales>
<clustering>
<clus scale="   32.505">  3  4 -1 -1</clus>
<clus scale="   94.426">  2  3  1 -1</clus>
<clus scale="  113.252">  1  5  2 -1</clus>
<clus scale="  113.252">  1  3  2 -1</clus>
</clustering>
</event>
<event>
 6    0  0.9315069E+002  0.1000193E+03  0.7546771E-02  0.1280255E+00
         21   -1    0    0  504  501  0.00000000000E+00  0.00000000000E+00  0.47711216707E+03  0.47711216707E+03  0.00000000000E+00 0.  1.
         21   -1    0    0  503  502 -0.00000000000E+00 -0.00000000000E+00 -0.20102971577E+03  0.20102971577E+03  0.00000000000E+00 0.  1.
         21    1    1    2  503  506  0.42273951045E+02 -0.23594781249E+02 -0.15753932886E+03  0.16481031757E+03  0.00000000000E+00 0.  1.
         21    1    1    2  504  505 -0.94566826962E+02  0.74109051394E+02  0.35226252402E+03  0.37218801981E+03  0.00000000000E+00 0.  1.
         21    1    1    2  505  502  0.65779292266E+02 -0.18771307771E+02  0.20879240003E+02  0.71520765862E+02  0.00000000000E+00 0.  1.
         21    1    1    2  506  501 -0.13486416349E+02 -0.31742962374E+02  0.60480016145E+02  0.69622779599E+02  0.00000000000E+00 0.  1.
<scales pt_clust_3="48.44635" pt_clust_4="100.01928" pt_clust_5="14000.00000" pt_clust_6="34.48912"></scales>
<clustering>
<clus scale="   34.489">  1  6  2 -1</clus>
<clus scale="   48.446">  2  3  1 -1</clus>
<clus scale="  100.019">  1  4  2 -1</clus>
<clus scale="   34.489">  1  3  2 -1</clus>
</clustering>
</event>
<event>
 6    0  0.9315069E+002  0.8678021E+02  0.7546771E-02  0.1310842E+00
         21   -1    0    0  503  501  0.00000000000E+00  0.00000000000E+00  0.11528406501E+04  0.11528406501E+04  0.00000000000E+00 0. -1.
         21   -1    0    0  504  502 -0.00000000000E+00 -0.00000000000E+00 -0.56214583922E+02  0.56214583922E+02  0.00000000000E+00 0. -1.
         21    1    1    2  503  506 -0.67630057870E+02 -0.40308556522E+02  0.34064404783E+03  0.34962404348E+03  0.00000000000E+00 0. -1.
         21    1    1    2  504  501  0.10156111822E+03 -0.74207775198E+01  0.63265297740E+03  0.64079600380E+03  0.00000000000E+00 0. -1.
         21    1    1    2  505  502 -0.46566413739E+02  0.40830817244E+00 -0.31514784414E+02  0.56229700699E+02  0.00000000000E+00 0. -1.
         21    1    1    2  506  505  0.12635353387E+02  0.47321025869E+02  0.15484382538E+03  0.16240548606E+03  0.00000000000E+00 0. -1.
<scales pt_clust_3="14000.00000" pt_clust_4="86.78021" pt_clust_5="46.56820" pt_clust_6="47.47407"></scales>
<clustering>
<clus scale="   46.568">  2  5  1 -1</clus>
<clus scale="   47.474">  2  6  1 -1</clus>
<clus scale="   86.780">  1  4  2 -1</clus>
<clus scale="   86.780">  1  3  2 -1</clus>
</clustering>
</event>
<event>
 6    0  0.9315069E+002  0.7610623E+02  0.7546771E-02  0.1340479E+00
         21   -1    0    0  506  501  0.00000000000E+00  0.00000000000E+00  0.19212627934E+03  0.19212627934E+03  0.00000000000E+00 0. -1.
         21   -1    0    0  504  502 -0.00000000000E+00 -0.00000000000E+00 -0.42275066483E+03  0.42275066483E+03  0.00000000000E+00 0. -1.
         21    1    1    2  503  501 -0.81394529127E+02  0.32237927788E+01  0.10998307125E+03  0.13686394037E+03  0.00000000000E+00 0. -1.
         21    1    1    2  504  505  0.47045216817E+02  0.30851339542E+02 -0.30731450084E+03  0.31242160617E+03  0.00000000000E+00 0. -1.
         21    1    1    2  505  503  0.37347437671E+02  0.58422889526E+02 -0.90993913577E+01  0.69934712728E+02  0.00000000000E+00 0. -1.
         21    1    1    2  506  502 -0.29981253616E+01 -0.92498021847E+02 -0.24193564547E+02  0.95656684904E+02  0.00000000000E+00 0. -1.
<scales pt_clust_3="76.10623" pt_clust_4="56.25884" pt_clust_5="73.81567" pt_clust_6="14000.00000"></scales>
<clustering>
<clus scale="   56.259">  2  4  1 -1</clus>
<clus scale="   76.106">  1  3  2 -1</clus>
<clus scale="   73.816">  1  5  2 -1</clus>
<clus scale="   76.106">  1  3  2 -1</clus>
</clustering>
</event>
<event>
 6    0  0.9315069E+002  0.3125203E+03  0.7546771E-02  0.1079144E+00
         21   -1    0    0  506  501  0.00000000000E+00  0.00000000000E+00  0.71696969326E+03  0.71696969326E+03  0.00000000000E+00 0. -1.
         21   -1    0    0  504  502 -0.00000000000E+00 -0.00000000000E+00 -0.22633371745E+03  0.22633371745E+03  0.00000000000E+00 0. -1.
         21    1    1    2  503  505 -0.48321105859E+02 -0.28028172299E+03  0.38821068752E+03  0.48124870017E+03  0.00000000000E+00 0. -1.
         21    1    1    2  504  503  0.17367145409E+02 -0.66862581604E+02  0.26787878125E+02  0.74093272116E+02  0.00000000000E+00 0.  1.
         21    1    1    2  505  501  0.37790974649E+01  0.76741906817E+02  0.86858358449E+02  0.11596540981E+03  0.00000000000E+00 0. -1.
         21    1    1    2  506  502  0.27174862985E+02  0.27040239777E+03 -0.11220948279E+02  0.27199602861E+03  0.00000000000E+00 0. -1.
<scales pt_clust_3="59.78083" pt_clust_4="59.78083" pt_clust_5="76.83490" pt_clust_6="288.01972"></scales>
<clustering>
<clus scale="   59.781">  3  4 -1 -1</clus>
<clus scale="   76.835">  1  5  2 -1</clus>
<clus scale="  288.020">  2  6  1 -1</clus>
<clus scale="   76.835">  1  3  2 -1</clus>
</clustering>
</event>
<event>
 6    0  0.9315069E+002  0.1520951E+03  0.7546771E-02  0.1197922E+00
         21   -1    0    0  503  501  0.00000000000E+00  0.00000000000E+00  0.15871346171E+03  0.15871346171E+03  0.00000000000E+00 0. -1.
         21   -1    0    0  504  502 -0.00000000000E+00 -0.00000000000E+00 -0.26188937172E+03  0.26188937172E+03  0.00000000000E+00 0.  1.
         21    1    1    2  503  502 -0.24364308252E+02 -0.11651736080E+03 -0.57268596342E+02  0.13209696065E+03  0.00000000000E+00 0. -1.
         21    1    1    2  504  505 -0.32294785824E+02  0.23714271435E+02 -0.25183680284E+02  0.47323753167E+02  0.00000000000E+00 0.  1.
         21    1    1    2  505  506 -0.30505542517E+00  0.14086648905E+03 -0.64297791464E+02  0.15484723692E+03  0.00000000000E+00 0.  1.
         21    1    1    2  506  501  0.56964149501E+02 -0.48063399677E+02  0.43574158089E+02  0.86334882696E+02  0.00000000000E+00 0. -1.
<scales pt_clust_3="135.70672" pt_clust_4="36.62693" pt_clust_5="36.62693" pt_clust_6="74.53190"></scales>
<clustering>
<clus scale="   36.627">  4  5 -1 -1</clus>
<clus scale="   74.532">  1  6  2 -1</clus>
<clus scale="  135.707">  2  3  1 -1</clus>
<clus scale="   74.532">  1  3  2 -1</clus>
</clustering>
</event>
<event>
 6    0  0.9315069E+002  0.1031768E+03  0.7546771E-02  0.1273754E+00
         21   -1    0    0  503  501  0.00000000000E+00  0.00000000000E+00  0.50575850642E+03  0.50575850642E+03  0.00000000000E+00 0. -1.
         21   -1    0    0  506  502 -0.00000000000E+00 -0.00000000000E+00 -0.34961690837E+03  0.34961690837E+03  0.00000000000E+00 0. -1.
         21    1    1    2  503  504  0.16795550798E+02  0.10301553294E+03  0.46577058022E+03  0.47732224330E+03  0.00000000000E+00 0. -1.
         21    1    1    2  504  505  0.56113834461E+02 -0.33239902187E+02 -0.94168708558E+02  0.11454867606E+03  0.00000000000E+00 0. -1.
         21    1    1    2  505  502 -0.30936695970E+02  0.89171090001E+01 -0.14857658317E+03  0.15202498168E+03  0.00000000000E+00 0. -1.
         21    1    1    2  506  501 -0.41972689289E+02 -0.78692739751E+02 -0.66883690451E+02  0.11147951374E+03  0.00000000000E+00 0. -1.
<scales pt_clust_3="103.17681" pt_clust_4="49.08750" pt_clust_5="32.19618" pt_clust_6="14000.00000"></scales>
<clustering>
<clus scale="   32.196">  2  5  1 -1</clus>
<clus scale="   49.087">  2  4  1 -1</clus>
<clus scale="  103.177">  1  3  2 -1</clus>
<clus scale="  103.177">  1  3  2 -1</clus>
</clustering>
</event>
<event>
 6    0  0.9315069E+002  0.1637041E+03  0.7546771E-02  0.1184577E+00
         21   -1    0    0  506  501  0.00000000000E+00  0.00000000000E+00  0.15419679701E+03  0.15419679701E+03  0.00000000000E+00 0. -1.
         21   -1    0    0  504  502 -0.00000000000E+00 -0.00000000000E+00 -0.15653582749E+04  0.15653582749E+04  0.00000000000E+00 0.  1.
         21    1    1    2  503  502 -0.27981723392E+02  0.30078663575E+02 -0.63911959799E+03  0.64043857112E+03  0.00000000000E+00 0.  1.
         21    1    1    2  504  505 -0.46557527418E+02 -0.36001250247E+02 -0.37752523030E+03  0.38208505976E+03  0.00000000000E+00 0.  1.
         21    1    1    2  505  501  0.15778402555E+03 -0.62654261228E+02  0.95840454446E+02  0.19495319406E+03  0.00000000000E+00 0. -1.
         21    1    1    2  506  503 -0.83244774736E+02  0.68576847899E+02 -0.49035710400E+03  0.50207824692E+03  0.00000000000E+00 0.  1.
<scales pt_clust_3="41.08166" pt_clust_4="62.67641" pt_clust_5="163.70406" pt_clust_6="14000.00000"></scales>
<clustering>
<clus scale="   41.082">  2  3  1 -1</clus>
<clus scale="   62.676">  2  4  1 -1</clus>
<clus scale="  163.704">  1  5  2 -1</clus>
<clus scale="  163.704">  1  3  2 -1</clus>
</clustering>
</event>
<event>
 6    0  0.9315069E+002  0.1779313E+03  0.7546771E-02  0.1169820E+00
         21   -1    0    0  504  501  0.00000000000E+00  0.00000000000E+00  0.19722021108E+03  0.19722021108E+03  0.00000000000E+00 0. -1.
         21   -1    0    0  503  502 -0.00000000000E+00 -0.00000000000E+00 -0.67020924947E+03  0.67020924947E+03  0.00000000000E+00 0. -1.
         21    1    1    2  503  501  0.97700021807E+02 -0.14009084527E+03 -0.59631331815E+03  0.62029050661E+03  0.00000000000E+00 0. -1.
         21    1    1    2  504  506  0.12278054549E+02  0.40608278031E+02  0.65090986143E+02  0.77695684213E+02  0.00000000000E+00 0. -1.
         21    1    1    2  505  502 -0.45723072350E+02  0.75174258314E+02  0.47249747342E+02  0.99871452788E+02  0.00000000000E+00 0. -1.
         21    1    1    2  506  505 -0.64255004007E+02  0.24308308922E+02  0.10983546282E+02  0.69571816934E+02  0.00000000000E+00 0. -1.
<scales pt_clust_3="168.31997" pt_clust_4="42.42385" pt_clust_5="47.15420" pt_clust_6="47.15420"></scales>
<clustering>
<clus scale="   42.424">  1  4  2 -1</clus>
<clus scale="   47.154">  5  6 -1 -1</clus>
<clus scale="  168.320">  2  3  1 -1</clus>
<clus scale="   42.424">  1  3  2 -1</clus>
</clustering>
</event>
<event>
 6    0  0.9315069E+002  0.6505814E+02  0.7546771E-02  0.1377753E+00
         21   -1    0    0  504  501  0.00000000000E+00  0.00000000000E+00  0.63446457297E+03  0.63446457297E+03  0.00000000000E+00 0.  1.
         21   -1    0    0  506  502 -0.00000000000E+00 -0.00000000000E+00 -0.81553340578E+02  0.81553340578E+02  0.00000000000E+00 0.  1.
         21    1    1    2  503  501 -0.28357859843E+02 -0.39708245212E+02  0.34750288581E+03  0.35091191003E+03  0.00000000000E+00 0.  1.
         21    1    1    2  504  505  0.26254206084E+02  0.91463826781E+02  0.11661991085E+03  0.15051617373E+03  0.00000000000E+00 0.  1.
         21    1    1    2  505  502 -0.51767603831E+02 -0.16199268085E+02 -0.42091543561E+02  0.68658569255E+02  0.00000000000E+00 0.  1.
         21    1    1    2  506  503  0.53871257590E+02 -0.35556313484E+02  0.13087997928E+03  0.14593126053E+03  0.00000000000E+00 0.  1.
<scales pt_clust_3="48.79460" pt_clust_4="14000.00000" pt_clust_5="56.07222" pt_clust_6="65.05814"></scales>
<clustering>
<clus scale="   48.795">  1  3  2 -1</clus>
<clus scale="   56.072">  2  5  1 -1</clus>
<clus scale="   65.058">  1  6  2 -1</clus>
<clus scale="   48.795">  1  3  2 -1</clus>
</clustering>
</event>
<event>
 6    0  0.9315069E+002  0.1220479E+03  0.7546771E-02  0.1239756E+00
         21   -1    0    0  503  501  0.00000000000E+00  0.00000000000E+00  0.60642647575E+03  0.60642647575E+03  0.00000000000E+00 0.  1.
         21   -1    0    0  504  502 -0.00000000000E+00 -0.00000000000E+00 -0.92808542082E+03  0.92808542082E+03  0.00000000000E+00 0. -1.
         21    1    1    2  503  505  0.54989783255E+02 -0.20696517468E+02 -0.24775720839E+02  0.63765652516E+02  0.00000000000E+00 0. -1.
         21    1    1    2  504  506 -0.18627098399E+02  0.11607590682E+03 -0.80238143204E+03  0.81094793139E+03  0.00000000000E+00 0. -1.
         21    1    1    2  505  502  0.46272361778E+02 -0.50282329883E+01 -0.62963613258E+02  0.78299624431E+02  0.00000000000E+00 0.  1.
         21    1    1    2  506  501 -0.82635046634E+02 -0.90351156360E+02  0.56846182107E+03  0.58149868822E+03  0.00000000000E+00 0.  1.
<scales pt_clust_3="111.73340" pt_clust_4="122.04792" pt_clust_5="35.25026" pt_clust_6="14000.00000"></scales>
<clustering>
<clus scale="   35.250">  3  5 -1 -1</clus>
<clus scale="  111.733">  2  3  1 -1</clus>
<clus scale="  122.048">  2  4  1 -1</clus>
<clus scale="  122.048">  1  3  2 -1</clus>
</clustering>
</event>
<event>
 6    0  0.9315069E+002  0.9434313E+02  0.7546771E-02  0.1292662E+00
         21   -1    0    0  505  501  0.00000000000E+00  0.00000000000E+00  0.17215500561E+03  0.17215500561E+03  0.00000000000E+00 0.  1.
         21   -1    0    0  503  502 -0.00000000000E+00 -0.00000000000E+00 -0.89505063893E+03  0.89505063893E+03  0.00000000000E+00 0.  1.
         21    1    1    2  503  504 -0.68802265619E+02  0.24252516915E+02 -0.60005685106E+03  0.60447511184E+03  0.00000000000E+00 0.  1.
         21    1    1    2  504  501 -0.90889211021E+02  0.95543798440E+01  0.12626402193E+03  0.15586769418E+03  0.00000000000E+00 0.  1.
         21    1    1    2  505  506  0.13979735558E+03 -0.23458864119E+00 -0.20268461379E+03  0.24622024353E+03  0.00000000000E+00 0.  1.
         21    1    1    2  506  502  0.19894121063E+02 -0.33572308118E+02 -0.46418190413E+02  0.60642594985E+02  0.00000000000E+00 0. -1.
<scales pt_clust_3="54.56475" pt_clust_4="94.34313" pt_clust_5="14000.00000" pt_clust_6="39.02404"></scales>
<clustering>
<clus scale="   39.024">  2  6  1 -1</clus>
<clus scale="   54.565">  2  3  1 -1</clus>
<clus scale="   94.343">  1  4  2 -1</clus>
<clus scale="   94.343">  1  3  2 -1</clus>
</clustering>
</event>
<event>
 6    0  0.9315069E+002  0.1552098E+03  0.7546771E-02  0.1194214E+00
         21   -1    0    0  504  501  0.00000000000E+00  0.00000000000E+00  0.12057105884E+04  0.12057105884E+04  0.00000000000E+00 0.  1.
         21   -1    0    0  505  502 -0.00000000000E+00 -0.00000000000E+00 -0.13932052371E+03  0.13932052371E+03  0.00000000000E+00 0.  1.
         21    1    1    2  503  506  0.71566559887E+02 -0.84566525714E+02  0.40690215454E+02  0.11802102948E+03  0.00000000000E+00 0.  1.
         21    1    1    2  504  502 -0.79103738629E+02  0.12580660350E+03  0.10584299255E+04  0.10688117749E+04  0.00000000000E+00 0.  1.
         21    1    1    2  505  503 -0.60838031944E+02 -0.53931767249E+01 -0.50182240147E+02  0.79048148063E+02  0.00000000000E+00 0. -1.
         21    1    1    2  506  501  0.68375210686E+02 -0.35846901062E+02  0.17452163880E+02  0.79150159673E+02  0.00000000000E+00 0.  1.
<scales pt_clust_3="31.37780" pt_clust_4="150.58958" pt_clust_5="61.07661" pt_clust_6="31.37780"></scales>
<clustering>
<clus scale="   31.378">  3  6 -1 -1</clus>
<clus scale="   61.077">  2  5  1 -1</clus>
<clus scale="  150.590">  1  4  2 -1</clus>
<clus scale="  150.590">  1  3  2 -1</clus>
</clustering>
</event>
<event>
 6    0  0.9315069E+002  0.1255686E+03  0.7546771E-02  0.1234183E+00
         21   -1    0    0  506  501  0.00000000000E+00  0.00000000000E+00  0.14540076938E+03  0.14540076938E+03  0.00000000000E+00 0. -1.
         21   -1    0    0  505  502 -0.00000000000E+00 -0.00000000000E+00 -0.13457581947E+04  0.13457581947E+04  0.00000000000E+00 0.  1.
         21    1    1    2  503  504 -0.10940233647E+03  0.75057322230E+02 -0.15309621305E+03  0.20258559499E+03  0.00000000000E+00 0. -1.
         21    1    1    2  504  502  0.35683516421E+02  0.29816183372E+02 -0.11067667357E+04  0.11077431676E+04  0.00000000000E+00 0.  1.
         21    1    1    2  505  501 -0.24777008737E+02 -0.37327245376E+02 -0.50199611203E+01  0.45082406979E+02  0.00000000000E+00 0.  1.
         21    1    1    2  506  503  0.98495828790E+02 -0.67546260226E+02  0.64525484538E+02  0.13574779451E+03  0.00000000000E+00 0. -1.
<scales pt_clust_3="14000.00000" pt_clust_4="46.33351" pt_clust_5="44.80205" pt_clust_6="125.56865"></scales>
<clustering>
<clus scale="   44.802">  1  5  2 -1</clus>
<clus scale="   46.334">  2  4  1 -1</clus>
<clus scale="  125.569">  1  6  2 -1</clus>
<clus scale="   44.802">  1  3  2 -1</clus>
</clustering>
</event>
<event>
 6    0  0.9315069E+002  0.9612797E+02  0.7546771E-02  0.1288656E+00
         21   -1    0    0  505  501  0.00000000000E+00  0.00000000000E+00  0.18810041225E+03  0.18810041225E+03  0.00000000000E+00 0. -1.
         21   -1    0    0  504  502 -0.00000000000E+00 -0.00000000000E+00 -0.29515000608E+03  0.29515000608E+03  0.00000000000E+00 0. -1.
         21    1    1    2  503  502 -0.89074058345E+02 -0.39950557276E+02 -0.22980041341E+03  0.24967672078E+03  0.00000000000E+00 0. -1.
         21    1    1    2  504  501 -0.25626805988E+01 -0.46690816829E+02  0.42063387914E+02  0.62896170876E+02  0.00000000000E+00 0. -1.
         21    1    1    2  505  506  0.41489246316E+02  0.60527324048E+01 -0.57244899542E+01  0.42317406758E+02  0.00000000000E+00 0.  1.
         21    1    1    2  506  503  0.50147492628E+02  0.80588641700E+02  0.86411921622E+02  0.12836011992E+03  0.00000000000E+00 0. -1.
<scales pt_clust_3="96.12797" pt_clust_4="45.97950" pt_clust_5="41.92843" pt_clust_6="14000.00000"></scales>
<clustering>
<clus scale="   41.928">  1  5  2 -1</clus>
<clus scale="   45.979">  1  4  2 -1</clus>
<clus scale="   96.128">  2  3  1 -1</clus>
<clus scale="   41.928">  1  3  2 -1</clus>
</clustering>
</event>
<event>
 6    0  0.9315069E+002  0.1774653E+03  0.7546771E-02  0.1170279E+00
         21   -1    0    0  505  501  0.00000000000E+00  0.00000000000E+00  0.32601703887E+04  0.32601703887E+04  0.00000000000E+00 0.  1.
         21   -1    0    0  504  502 -0.00000000000E+00 -0.00000000000E+00 -0.42604462128E+03  0.42604462128E+03  0.00000000000E+00 0. -1.
         21    1    1    2  503  502  0.32589142225E+02  0.19506601781E+03 -0.36517798522E+03  0.41529238422E+03  0.00000000000E+00 0. -1.
         21    1    1    2  504  501  0.25718930622E+02 -0.18035429898E+02  0.19834514040E+02  0.37150344159E+02  0.00000000000E+00 0. -1.
         21    1    1    2  505  506  0.18041724570E+01 -0.49597851639E+02  0.30222405745E+04  0.30226480596E+04  0.00000000000E+00 0.  1.
         21    1    1    2  506  503 -0.60112245303E+02 -0.12743273627E+03  0.15722866408E+03  0.21112422201E+03  0.00000000000E+00 0.  1.
<scales pt_clust_3="14000.00000" pt_clust_4="31.41242" pt_clust_5="49.63991" pt_clust_6="177.46531"></scales>
<clustering>
<clus scale="   31.412">  2  4  1 -1</clus>
<clus scale="   49.640">  1  5  2 -1</clus>
<clus scale="  177.465">  1  6  2 -1</clus>
<clus scale="   49.640">  1  3  2 -1</clus>
</clustering>
</event>
<event>
 6    0  0.9315069E+002  0.2597370E+03  0.7546771E-02  0.1107301E+00
         21   -1    0    0  502  501  0.00000000000E+00  0.00000000000E+00  0.34837827889E+03  0.34837827889E+03  0.00000000000E+00 0. -1.
         21   -1    0    0  506  502 -0.00000000000E+00 -0.00000000000E+00 -0.16550208913E+04  0.16550208913E+04  0.00000000000E+00 0. -1.
         21    1    1    2  503  501 -0.22542181452E+03  0.11223462754E+03  0.27296886521E+03  0.37138067728E+03  0.00000000000E+00 0. -1.
         21    1    1    2  504  503  0.13599724327E+03 -0.17335528650E+03 -0.92329614502E+03  0.94922235379E+03  0.00000000000E+00 0. -1.
         21    1    1    2  505  504  0.21508185265E+02 -0.49215018284E+02 -0.12771542241E+03  0.13854944670E+03  0.00000000000E+00 0. -1.
         21    1    1    2  506  505  0.67916385990E+02  0.11033567724E+03 -0.52859991021E+03  0.54424669244E+03  0.00000000000E+00 0. -1.
<scales pt_clust_3="251.36952" pt_clust_4="32.28775" pt_clust_5="32.28775" pt_clust_6="129.56310"></scales>
<clustering>
<clus scale="   32.288">  4  5 -1 -1</clus>
<clus scale="  129.563">  2  6  1 -1</clus>
<clus scale="  251.370">  1  3  2 -1</clus>
<clus scale="  251.370">  1  3  2 -1</clus>
</clustering>
</event>
<event>
 6    0  0.9315069E+002  0.7524683E+02  0.7546771E-02  0.1343108E+00
         21   -1    0    0  506  501  0.00000000000E+00  0.00000000000E+00  0.64741277300E+03  0.64741277300E+03  0.00000000000E+00 0.  1.
         21   -1    0    0  503  502 -0.00000000000E+00 -0.00000000000E+00 -0.11664811871E+03  0.11664811871E+03  0.00000000000E+00 0.  1.
         21    1    1    2  503  501  0.45353466394E+02 -0.38861023163E+02 -0.84924853889E+02  0.10382363336E+03  0.00000000000E+00 0.  1.
         21    1    1    2  504  505  0.29852333083E+02  0.58623638146E+02  0.36279740377E+03  0.36871377642E+03  0.00000000000E+00 0.  1.
         21    1    1    2  505  502 -0.10630827528E+03 -0.46334129146E+01  0.21696141058E+03  0.24165092921E+03  0.00000000000E+00 0.  1.
         21    1    1    2  506  504  0.31102475800E+02 -0.15129202069E+02  0.35930693837E+02  0.49872552730E+02  0.00000000000E+00 0.  1.
<scales pt_clust_3="60.24856" pt_clust_4="14000.00000" pt_clust_5="75.24683" pt_clust_6="34.58694"></scales>
<clustering>
<clus scale="   34.587">  1  6  2 -1</clus>
<clus scale="   60.249">  2  3  1 -1</clus>
<clus scale="   75.247">  2  5  1 -1</clus>
<clus scale="   34.587">  1  3  2 -1</clus>
</clustering>
</event>
<event>
 6    0  0.9315069E+002  0.2115943E+03  0.7546771E-02  0.1140310E+00
         21   -1    0    0  504  501  0.00000000000E+00  0.00000000000E+00  0.16390599260E+03  0.16390599260E+03  0.00000000000E+00 0. -1.
         21   -1    0    0  505  502 -0.00000000000E+00 -0.00000000000E+00 -0.98741884579E+03  0.98741884579E+03  0.00000000000E+00 0. -1.
         21    1    1    2  503  501 -0.77183367242E+02 -0.82594468537E+01  0.57529610441E+00  0.77626165735E+02  0.00000000000E+00 0.  1.
         21    1    1    2  504  502 -0.15580584843E+03 -0.11888227454E+03 -0.77184030572E+03  0.79633279170E+03  0.00000000000E+00 0. -1.
         21    1    1    2  505  506  0.20110050621E+03  0.82657809038E+02 -0.46401644209E+02  0.22232147800E+03  0.00000000000E+00 0. -1.
         21    1    1    2  506  503  0.31888709460E+02  0.44483912358E+02 -0.58461993696E+01  0.55044402956E+02  0.00000000000E+00 0. -1.
<scales pt_clust_3="77.62403" pt_clust_4="202.53183" pt_clust_5="30.73685" pt_clust_6="30.73685"></scales>
<clustering>
<clus scale="   30.737">  5  6 -1 -1</clus>
<clus scale="   77.624">  1  3  2 -1</clus>
<clus scale="  202.532">  2  4  1 -1</clus>
<clus scale="   77.624">  1  3  2 -1</clus>
</clustering>
</event>
<event>
 6    0  0.9315069E+002  0.1202216E+03  0.7546771E-02  0.1242732E+00
         21   -1    0    0  504  501  0.00000000000E+00  0.00000000000E+00  0.13848847707E+03  0.13848847707E+03  0.00000000000E+00 0. -1.
         21   -1    0    0  506  502 -0.00000000000E+00 -0.00000000000E+00 -0.12464436916E+04  0.12464436916E+04  0.00000000000E+00 0. -1.
         21    1    1    2  503  501  0.53456246988E+02  0.84170615883E+02  0.37578458716E+01  0.99781683318E+02  0.00000000000E+00 0. -1.
         21    1    1    2  504  505  0.88932631441E+02  0.66003946695E+02 -0.10327951762E+03  0.15143378974E+03  0.00000000000E+00 0. -1.
         21    1    1    2  505  502 -0.42219612696E+02 -0.12531050787E+02 -0.95396500919E+03  0.95498102687E+03  0.00000000000E+00 0. -1.
         21    1    1    2  506  503 -0.10016926573E+03 -0.13764351179E+03 -0.54468533608E+02  0.17873566877E+03  0.00000000000E+00 0. -1.
<scales pt_clust_3="14000.00000" pt_clust_4="92.93777" pt_clust_5="44.04002" pt_clust_6="120.22155"></scales>
<clustering>
<clus scale="   44.040">  2  5  1 -1</clus>
<clus scale="   92.938">  2  4  1 -1</clus>
<clus scale="  120.222">  2  6  1 -1</clus>
<clus scale="  120.222">  1  3  2 -1</clus>
</clustering>
</event>
<event>
 6    0  0.9315069E+002  0.7695695E+02  0.7546771E-02  0.1337916E+00
         21   -1    0    0  506  501  0.00000000000E+00  0.00000000000E+00  0.21010863246E+03  0.21010863246E+03  0.00000000000E+00 0. -1.
         21   -1    0    0  505  502 -0.00000000000E+00 -0.00000000000E+00 -0.39491393669E+03  0.39491393669E+03  0.00000000000E+00 0.  1.
         21    1    1    2  503  501  0.76926652699E+02 -0.56119770991E+02  0.20421282788E+02  0.97386689965E+02  0.00000000000E+00 0. -1.
         21    1    1    2  504  502 -0.16622386967E+02  0.64039949096E+02 -0.13119689340E+03  0.14693550853E+03  0.00000000000E+00 0.  1.
         21    1    1    2  505  503 -0.62130107894E+02 -0.50089763642E+02 -0.20665002025E+03  0.22152509022E+03  0.00000000000E+00 0.  1.
         21    1    1    2  506  504  0.18258421618E+01  0.42169585537E+02  0.13262032663E+03  0.13917528042E+03  0.00000000000E+00 0. -1.
<scales pt_clust_3="14000.00000" pt_clust_4="70.45385" pt_clust_5="76.95695" pt_clust_6="42.20909"></scales>
<clustering>
<clus scale="   42.209">  1  6  2 -1</clus>
<clus scale="   70.454">  2  4  1 -1</clus>
<clus scale="   76.957">  2  5  1 -1</clus>
<clus scale="   42.209">  1  3  2 -1</clus>
</clustering>
</event>
<event>
 6    0  0.9315069E+002  0.8460236E+02  0.7546771E-02  0.1316476E+00
         21   -1    0    0  505  501  0.00000000000E+00  0.00000000000E+00  0.10038239472E+04  0.10038239472E+04  0.00000000000E+00 0.  1.
         21   -1    0    0  504  502 -0.00000000000E+00 -0.00000000000E+00 -0.10628055813E+03  0.10628055813E+03  0.00000000000E+00 0. -1.
         21    1    1    2  503  501  0.64749626360E+02  0.13298782568E+03  0.33539731026E+03  0.36656463498E+03  0.00000000000E+00 0.  1.
         21    1    1    2  504  503 -0.64484394349E+02 -0.34345385454E+02 -0.25773727801E+02  0.77473399701E+02  0.00000000000E+00 0. -1.
         21    1    1    2  505  506 -0.32822282602E+02 -0.67691809429E+02  0.61096488722E+03  0.61557905805E+03  0.00000000000E+00 0.  1.
         21    1    1    2  506  502  0.32557050590E+02 -0.30950630795E+02 -0.23045080615E+02  0.50487412593E+02  0.00000000000E+00 0.  1.
<scales pt_clust_3="14000.00000" pt_clust_4="70.08122" pt_clust_5="84.60236" pt_clust_6="44.92108"></scales>
<clustering>
<clus scale="   44.921">  2  6  1 -1</clus>
<clus scale="   70.081">  2  4  1 -1</clus>
<clus scale="   84.602">  1  5  2 -1</clus>
<clus scale="   84.602">  1  3  2 -1</clus>
</clustering>
</event>
<event>
 6    0  0.9315069E+002  0.1355067E+03  0.7546771E-02  0.1219506E+00
         21   -1    0    0  503  501  0.00000000000E+00  0.00000000000E+00  0.79270292204E+03  0.79270292204E+03  0.00000000000E+00 0.  1.
         21   -1    0    0  506  502 -0.00000000000E+00 -0.00000000000E+00 -0.21496892029E+03  0.21496892029E+03  0.00000000000E+00 0. -1.
         21    1    1    2  503  505 -0.22355451531E+02 -0.94895222028E+02  0.45674967583E+03  0.46703868763E+03  0.00000000000E+00 0.  1.
         21    1    1    2  504  501 -0.14643542907E+01  0.87617257965E+02  0.20108589402E+03  0.21935009688E+03  0.00000000000E+00 0.  1.
         21    1    1    2  505  502  0.17097083174E+02 -0.52781648868E+02  0.10924471684E+03  0.12252600078E+03  0.00000000000E+00 0.  1.
         21    1    1    2  506  504  0.67227226478E+01  0.60059612931E+02 -0.18934628493E+03  0.19875705704E+03  0.00000000000E+00 0. -1.
<scales pt_clust_3="55.43903" pt_clust_4="113.84772" pt_clust_5="55.43903" pt_clust_6="60.43469"></scales>
<clustering>
<clus scale="   55.439">  3  5 -1 -1</clus>
<clus scale="   60.435">  2  6  1 -1</clus>
<clus scale="  113.848">  1  4  2 -1</clus>
<clus scale="  113.848">  1  3  2 -1</clus>
</clustering>
</event>
<event>
 6    0  0.9315069E+002  0.8597904E+02  0.7546771E-02  0.1312892E+00
         21   -1    0    0  504  501  0.00000000000E+00  0.00000000000E+00  0.20755307019E+03  0.20755307019E+03  0.00000000000E+00 0.  1.
         21   -1    0    0  505  502 -0.00000000000E+00 -0.00000000000E+00 -0.27264167701E+03  0.27264167701E+03  0.00000000000E+00 0.  1.
         21    1    1    2  503  501 -0.26133383417E+02 -0.47606996663E+02  0.30754188019E+02  0.62411536921E+02  0.00000000000E+00 0.  1.
         21    1    1    2  504  502 -0.98297213669E+02  0.13870112966E+02  0.29727703800E+02  0.10362653435E+03  0.00000000000E+00 0.  1.
         21    1    1    2  505  506  0.69940944009E+02  0.52893034933E+02 -0.20091685247E+03  0.21921904662E+03  0.00000000000E+00 0.  1.
         21    1    1    2  506  503  0.54489653077E+02 -0.19156151236E+02  0.75346353829E+02  0.94937629305E+02  0.00000000000E+00 0.  1.
<scales pt_clust_3="54.30819" pt_clust_4="85.97904" pt_clust_5="14000.00000" pt_clust_6="60.16279"></scales>
<clustering>
<clus scale="   54.308">  1  3  2 -1</clus>
<clus scale="   60.163">  1  6  2 -1</clus>
<clus scale="   85.979">  1  4  2 -1</clus>
<clus scale="   54.308">  1  3  2 -1</clus>
</clustering>
</event>
<event>
 6    0  0.9315069E+002  0.1456544E+03  0.7546771E-02  0.1205917E+00
         21   -1    0    0  504  501  0.00000000000E+00  0.00000000000E+00  0.23301933437E+03  0.23301933437E+03  0.00000000000E+00 0. -1.
         21   -1    0    0  503  502 -0.00000000000E+00 -0.00000000000E+00 -0.16145682211E+04  0.16145682211E+04  0.00000000000E+00 0.  1.
         21    1    1    2  503  506  0.43900121514E+02  0.12100956203E+03 -0.15370193655E+04  0.15424004230E+04  0.00000000000E+00 0.  1.
         21    1    1    2  504  502  0.64807619444E+02 -0.51842508823E+01  0.10828870763E+03  0.12630656434E+03  0.00000000000E+00 0. -1.
         21    1    1    2  505  501 -0.51228340767E+01 -0.37083368977E+02  0.29306760018E+02  0.47542674162E+02  0.00000000000E+00 0.  1.
         21    1    1    2  506  505 -0.10358490688E+03 -0.78741942166E+02  0.17875011101E+02  0.13133789404E+03  0.00000000000E+00 0. -1.
<scales pt_clust_3="129.13537" pt_clust_4="65.01464" pt_clust_5="36.13846" pt_clust_6="36.13846"></scales>
<clustering>
<clus scale="   36.138">  5  6 -1 -1</clus>
<clus scale="   65.015">  1  4  2 -1</clus>
<clus scale="  129.135">  2  3  1 -1</clus>
<clus scale="   65.015">  1  3  2 -1</clus>
</clustering>
</event>
<event>
 6    0  0.9315069E+002  0.1009683E+03  0.7546771E-02  0.1278273E+00
         21   -1    0    0  504  501  0.00000000000E+00  0.00000000000E+00  0.79562215614E+03  0.79562215614E+03  0.00000000000E+00 0. -1.
         21   -1    0    0  506  502 -0.00000000000E+00 -0.00000000000E+00 -0.67158360870E+02  0.67158360870E+02  0.00000000000E+00 0. -1.
         21    1    1    2  503  505 -0.53488011401E+02 -0.30471373477E+02  0.17934770217E+03  0.18961822233E+03  0.00000000000E+00 0. -1.
         21    1    1    2  504  502  0.69026565209E+01 -0.57999220806E+02  0.14310223252E+03  0.15456327259E+03  0.00000000000E+00 0. -1.
         21    1    1    2  505  501 -0.31272958814E+02  0.48504522540E+01  0.40306533070E+03  0.40430580710E+03  0.00000000000E+00 0. -1.
         21    1    1    2  506  503  0.77858313694E+02  0.83620142029E+02  0.29485298737E+01  0.11429321499E+03  0.00000000000E+00 0. -1.
<scales pt_clust_3="14000.00000" pt_clust_4="56.37707" pt_clust_5="31.64688" pt_clust_6="100.96830"></scales>
<clustering>
<clus scale="   31.647">  1  5  2 -1</clus>
<clus scale="   56.377">  1  4  2 -1</clus>
<clus scale="  100.968">  2  6  1 -1</clus>
<clus scale="   31.647">  1  3  2 -1</clus>
</clustering>
</event>
<event>
 6    0  0.9315069E+002  0.1266457E+03  0.7546771E-02  0.1232520E+00
         21   -1    0    0  506  501  0.00000000000E+00  0.00000000000E+00  0.70814754394E+03  0.70814754394E+03  0.00000000000E+00 0.  1.
         21   -1    0    0  505  502 -0.00000000000E+00 -0.00000000000E+00 -0.91174241357E+02  0.91174241357E+02  0.00000000000E+00 0.  1.
         21    1    1    2  503  501  0.65130969525E+02 -0.46470844101E+02  0.35633920653E+03  0.36521118911E+03  0.00000000000E+00 0.  1.
         21    1    1    2  504  502 -0.12411454356E+03  0.57661744236E+02  0.23529147580E+03  0.27219730942E+03  0.00000000000E+00 0.  1.
         21    1    1    2  505  503  0.97011800986E+02  0.75291776581E+01 -0.20541121645E+02  0.99448055412E+02  0.00000000000E+00 0.  1.
         21    1    1    2  506  504 -0.38028226952E+02 -0.18720077793E+02  0.45883741906E+02  0.62465231361E+02  0.00000000000E+00 0.  1.
<scales pt_clust_3="80.00989" pt_clust_4="39.87109" pt_clust_5="104.43344" pt_clust_6="39.87109"></scales>
<clustering>
<clus scale="   39.871">  4  6 -1 -1</clus>
<clus scale="   80.010">  1  3  2 -1</clus>
<clus scale="  104.433">  2  5  1 -1</clus>
<clus scale="   80.010">  1  3  2 -1</clus>
</clustering>
</event>
<event>
 6    0  0.9315069E+002  0.1045921E+03  0.7546771E-02  0.1270925E+00
         21   -1    0    0  504  501  0.00000000000E+00  0.00000000000E+00  0.11856166145E+04  0.11856166145E+04  0.00000000000E+00 0.  1.
         21   -1    0    0  506  502 -0.00000000000E+00 -0.00000000000E+00 -0.28806826208E+02  0.28806826208E+02  0.00000000000E+00 0.  1.
         21    1    1    2  503  502  0.39836325267E+02 -0.43775390431E+02  0.61895217004E+02  0.85640151250E+02  0.00000000000E+00 0.  1.
         21    1    1    2  504  505  0.91164372904E+02  0.29466145094E+02  0.63502710213E+03  0.64221384059E+03  0.00000000000E+00 0.  1.
         21    1    1    2  505  503 -0.12118280771E+03 -0.19882127161E+02  0.33903351044E+03  0.36058881439E+03  0.00000000000E+00 0.  1.
         21    1    1    2  506  501 -0.98178904577E+01  0.34191372499E+02  0.12085395870E+03  0.12598063447E+03  0.00000000000E+00 0.  1.
<scales pt_clust_3="56.98338" pt_clust_4="14000.00000" pt_clust_5="104.59210" pt_clust_6="35.57304"></scales>
<clustering>
<clus scale="   35.573">  1  6  2 -1</clus>
<clus scale="   56.983">  2  3  1 -1</clus>
<clus scale="  104.592">  2  5  1 -1</clus>
<clus scale="   35.573">  1  3  2 -1</clus>
</clustering>
</event>
<event>
 6    0  0.9315069E+002  0.1090421E+03  0.7546771E-02  0.1262354E+00
         21   -1    0    0  505  501  0.00000000000E+00  0.00000000000E+00  0.14936537368E+04  0.14936537368E+04  0.00000000000E+00 0. -1.
         21   -1    0    0  503  502 -0.00000000000E+00 -0.00000000000E+00 -0.49196555195E+02  0.49196555195E+02  0.00000000000E+00 0. -1.
         21    1    1    2  503  504 -0.46489506631E+02  0.62862188532E+01  0.82431022794E+02  0.94845475871E+02  0.00000000000E+00 0. -1.
         21    1    1    2  504  506 -0.33768718188E+02  0.37935183046E+02  0.15080488211E+03  0.15912736066E+03  0.00000000000E+00 0. -1.
         21    1    1    2  505  502  0.10669563872E+03  0.16709288058E+01  0.36227513708E+02  0.11269065655E+03  0.00000000000E+00 0. -1.
         21    1    1    2  506  501 -0.26437413899E+02 -0.45892330705E+02  0.11749937630E+04  0.11761867989E+04  0.00000000000E+00 0. -1.
<scales pt_clust_3="39.70018" pt_clust_4="39.70018" pt_clust_5="100.91525" pt_clust_6="52.96266"></scales>
<clustering>
<clus scale="   39.700">  3  4 -1 -1</clus>
<clus scale="   52.963">  1  6  2 -1</clus>
<clus scale="  100.915">  2  5  1 -1</clus>
<clus scale="   52.963">  1  3  2 -1</clus>
</clustering>
</event>
<event>
 6    0  0.9315069E+002  0.1054339E+03  0.7546771E-02  0.1269267E+00
         21   -1    0    0  504  501  0.00000000000E+00  0.00000000000E+00  0.49427345238E+02  0.49427345238E+02  0.00000000000E+00 0. -1.
         21   -1    0    0  506  502 -0.00000000000E+00 -0.00000000000E+00 -0.52438889167E+03  0.52438889167E+03  0.00000000000E+00 0. -1.
         21    1    1    2  503  502 -0.10028274263E+03 -0.21452930331E+02 -0.17041295616E+03  0.19889050333E+03  0.00000000000E+00 0. -1.
         21    1    1    2  504  505  0.32133731985E+02 -0.42770392589E+02 -0.81443173997E+02  0.97441643070E+02  0.00000000000E+00 0. -1.
         21    1    1    2  505  503 -0.75739818665E+01 -0.36615773221E+02 -0.36412125775E+02  0.52191215289E+02  0.00000000000E+00 0. -1.
         21    1    1    2  506  501  0.75722992510E+02  0.10083909614E+03 -0.18669329050E+03  0.22529287521E+03  0.00000000000E+00 0. -1.
<scales pt_clust_3="105.43387" pt_clust_4="92.19610" pt_clust_5="33.38642" pt_clust_6="14000.00000"></scales>
<clustering>
<clus scale="   33.386">  4  5 -1 -1</clus>
<clus scale="   92.196">  1  4  2 -1</clus>
<clus scale="  105.434">  2  3  1 -1</clus>
<clus scale="   92.196">  1  3  2 -1</clus>
</clustering>
</event>
<event>
 6    0  0.9315069E+002  0.1450297E+03  0.7546771E-02  0.1206717E+00
         21   -1    0    0  506  501  0.00000000000E+00  0.00000000000E+00  0.86382203932E+03  0.86382203932E+03  0.00000000000E+00 0.  1.
         21   -1    0    0  504  502 -0.00000000000E+00 -0.00000000000E+00 -0.80887231934E+03  0.80887231934E+03  0.00000000000E+00 0.  1.
         21    1    1    2  503  505  0.86452996768E+01  0.87834074320E+02 -0.14723639502E+03  0.17166281437E+03  0.00000000000E+00 0.  1.
         21    1    1    2  504  503  0.45477022032E+02  0.58745725720E+02 -0.62565751708E+03  0.63005281405E+03  0.00000000000E+00 0.  1.
         21    1    1    2  505  501 -0.56081030841E+01 -0.99136053468E+02  0.78383780654E+03  0.79010196486E+03  0.00000000000E+00 0.  1.
         21    1    1    2  506  502 -0.48514218625E+02 -0.47443746572E+02  0.44005825531E+02  0.80876765379E+02  0.00000000000E+00 0. -1.
<scales pt_clust_3="145.02971" pt_clust_4="74.10713" pt_clust_5="14000.00000" pt_clust_6="67.85675"></scales>
<clustering>
<clus scale="   67.857">  1  6  2 -1</clus>
<clus scale="   74.107">  2  4  1 -1</clus>
<clus scale="  145.030">  2  3  1 -1</clus>
<clus scale="   67.857">  1  3  2 -1</clus>
</clustering>
</event>
<event>
 6    0  0.9315069E+002  0.9383528E+02  0.7546771E-02  0.1293821E+00
         21   -1    0    0  506  501  0.00000000000E+00  0.00000000000E+00  0.14316509409E+04  0.14316509409E+04  0.00000000000E+00 0.  1.
         21   -1    0    0  505  502 -0.00000000000E+00 -0.00000000000E+00 -0.18448526662E+03  0.18448526662E+03  0.00000000000E+00 0.  1.
         21    1    1    2  503  501 -0.57008384443E+02 -0.28882205401E+02  0.59034902163E+03  0.59379803386E+03  0.00000000000E+00 0.  1.
         21    1    1    2  504  502  0.41998345745E+02  0.24036977182E+02  0.43922542301E+02  0.65351564936E+02  0.00000000000E+00 0.  1.
         21    1    1    2  505  503  0.27670647221E+02 -0.89760113145E+02 -0.15605185320E+03  0.18213929701E+03  0.00000000000E+00 0.  1.
         21    1    1    2  506  504 -0.12660608523E+02  0.94605341363E+02  0.76894596359E+03  0.77484731176E+03  0.00000000000E+00 0.  1.
<scales pt_clust_3="63.42766" pt_clust_4="48.39047" pt_clust_5="14000.00000" pt_clust_6="93.83528"></scales>
<clustering>
<clus scale="   48.390">  2  4  1 -1</clus>
<clus scale="   63.428">  1  3  2 -1</clus>
<clus scale="   93.835">  1  6  2 -1</clus>
<clus scale="   63.428">  1  3  2 -1</clus>
</clustering>
</event>
<event>
 6    0  0.9315069E+002  0.1096075E+03  0.7546771E-02  0.1261299E+00
         21   -1    0    0  504  501  0.00000000000E+00  0.00000000000E+00  0.26012866234E+02  0.26012866234E+02  0.00000000000E+00 0. -1.
         21   -1    0    0  503  502 -0.00000000000E+00 -0.00000000000E+00 -0.29567367391E+04  0.29567367391E+04  0.00000000000E+00 0. -1.
         21    1    1    2  503  501 -0.10780329157E+02  0.11557104965E+03 -0.12677444243E+04  0.12730470566E+04  0.00000000000E+00 0. -1.
         21    1    1    2  504  506 -0.25549512354E+02 -0.29788324218E+02  0.40952502916E+01  0.39457482385E+02  0.00000000000E+00 0. -1.
         21    1    1    2  505  502  0.66720490616E+01 -0.67779639082E+02 -0.11311464153E+04  0.11331949562E+04  0.00000000000E+00 0. -1.
         21    1    1    2  506  505  0.29657792449E+02 -0.18003086351E+02 -0.53592828346E+03  0.53705011012E+03  0.00000000000E+00 0. -1.
<scales pt_clust_3="100.55746" pt_clust_4="39.24439" pt_clust_5="31.12701" pt_clust_6="31.12701"></scales>
<clustering>
<clus scale="   31.127">  5  6 -1 -1</clus>
<clus scale="   39.244">  1  4  2 -1</clus>
<clus scale="  100.557">  1  3  2 -1</clus>
<clus scale="   39.244">  1  3  2 -1</clus>
</clustering>
</event>
<event>
 6    0  0.9315069E+002  0.1137238E+03  0.7546771E-02  0.1253825E+00
         21   -1    0    0  503  501  0.00000000000E+00  0.00000000000E+00  0.14473823010E+04  0.14473823010E+04  0.00000000000E+00 0. -1.
         21   -1    0    0  506  502 -0.00000000000E+00 -0.00000000000E+00 -0.95468914691E+02  0.95468914691E+02  0.00000000000E+00 0. -1.
         21    1    1    2  503  505  0.43005730249E+02 -0.77472751507E+02  0.30355753269E+03  0.31622570375E+03  0.00000000000E+00 0. -1.
         21    1    1    2  504  501 -0.54489880154E+02  0.46606230552E+02  0.69875985641E+03  0.70242908873E+03  0.00000000000E+00 0. -1.
         21    1    1    2  505  502  0.12341718873E+03  0.40629034594E+02  0.38504669922E+03  0.40637849538E+03  0.00000000000E+00 0. -1.
         21    1    1    2  506  504 -0.11193303882E+03 -0.97625136400E+01 -0.35450701987E+02  0.11781792785E+03  0.00000000000E+00 0. -1.
<scales pt_clust_3="61.60635" pt_clust_4="71.70277" pt_clust_5="14000.00000" pt_clust_6="113.72381"></scales>
<clustering>
<clus scale="   71.703">  1  4  2 -1</clus>
<clus scale="   61.606">  1  3  2 -1</clus>
<clus scale="  113.724">  2  6  1 -1</clus>
<clus scale="   71.703">  1  3  2 -1</clus>
</clustering>
</event>
<event>
 6    0  0.9315069E+002  0.1691223E+03  0.7546771E-02  0.1178766E+00
         21   -1    0    0  504  501  0.00000000000E+00  0.00000000000E+00  0.12514355148E+04  0.12514355148E+04  0.00000000000E+00 0. -1.
         21   -1    0    0  505  502 -0.00000000000E+00 -0.00000000000E+00 -0.68674391688E+02  0.68674391688E+02  0.00000000000E+00 0. -1.
         21    1    1    2  503  501 -0.28724075654E+02 -0.64461819813E+02  0.30511438534E+03  0.31316958166E+03  0.00000000000E+00 0. -1.
         21    1    1    2  504  502  0.31604843636E+02  0.27577864398E+02  0.51696368594E+03  0.51866256596E+03  0.00000000000E+00 0. -1.
         21    1    1    2  505  506  0.84285986360E+02  0.12549850743E+03  0.59518172170E+02  0.16246973774E+03  0.00000000000E+00 0. -1.
         21    1    1    2  506  503 -0.87166754342E+02 -0.88614552012E+02  0.30116487969E+03  0.32580802115E+03  0.00000000000E+00 0. -1.
<scales pt_clust_3="44.64725" pt_clust_4="41.94526" pt_clust_5="157.31369" pt_clust_6="44.64725"></scales>
<clustering>
<clus scale="   41.945">  1  4  2 -1</clus>
<clus scale="   44.647">  3  6 -1 -1</clus>
<clus scale="  157.314">  2  5  1 -1</clus>
<clus scale="   41.945">  1  3  2 -1</clus>
</clustering>
</event>
<event>
 6    0  0.9315069E+002  0.1030299E+03  0.7546771E-02  0.1274050E+00
         21   -1    0    0  504  501  0.00000000000E+00  0.00000000000E+00  0.16176549204E+02  0.16176549204E+02  0.00000000000E+00 0. -1.
         21   -1    0    0  503  502 -0.00000000000E+00 -0.00000000000E+00 -0.14029488621E+04  0.14029488621E+04  0.00000000000E+00 0. -1.
         21    1    1    2  503  506 -0.62457577025E+02 -0.80413967477E+02 -0.53787971220E+03  0.54743213268E+03  0.00000000000E+00 0. -1.
         21    1    1    2  504  502  0.76399774106E+02  0.71618499730E+02 -0.63521579759E+03  0.64378975178E+03  0.00000000000E+00 0. -1.
         21    1    1    2  505  501  0.15537985724E+02 -0.25979658804E+02 -0.54683885047E+02  0.62503591543E+02  0.00000000000E+00 0.  1.
         21    1    1    2  506  505 -0.29480182805E+02  0.34775126551E+02 -0.15899291802E+03  0.16539993526E+03  0.00000000000E+00 0. -1.
<scales pt_clust_3="103.02994" pt_clust_4="14000.00000" pt_clust_5="30.27163" pt_clust_6="37.81216"></scales>
<clustering>
<clus scale="   30.272">  1  5  2 -1</clus>
<clus scale="   37.812">  1  6  2 -1</clus>
<clus scale="  103.030">  1  3  2 -1</clus>
<clus scale="   30.272">  1  3  2 -1</clus>
</clustering>
</event>
<event>
 6    0  0.9315069E+002  0.9971308E+02  0.7546771E-02  0.1280900E+00
         21   -1    0    0  505  501  0.00000000000E+00  0.00000000000E+00  0.43081132508E+03  0.43081132508E+03  0.00000000000E+00 0. -1.
         21   -1    0    0  503  502 -0.00000000000E+00 -0.00000000000E+00 -0.11740895969E+03  0.11740895969E+03  0.00000000000E+00 0. -1.
         21    1    1    2  503  504 -0.59329523106E+02  0.83083534545E+02 -0.70604467407E+02  0.12412838854E+03  0.00000000000E+00 0. -1.
         21    1    1    2  504  506  0.16565870476E+02 -0.80613242068E+02  0.26341959274E+03  0.27597609443E+03  0.00000000000E+00 0. -1.
         21    1    1    2  505  502  0.43743720895E+02 -0.33136445312E+02  0.69934960723E+02  0.88895645883E+02  0.00000000000E+00 0. -1.
         21    1    1    2  506  501 -0.98006826548E+00  0.30666152834E+02  0.50652279334E+02  0.59220155903E+02  0.00000000000E+00 0. -1.
<scales pt_clust_3="99.71308" pt_clust_4="14000.00000" pt_clust_5="51.04948" pt_clust_6="30.68181"></scales>
<clustering>
<clus scale="   30.682">  1  6  2 -1</clus>
<clus scale="   51.049">  1  5  2 -1</clus>
<clus scale="   99.713">  2  3  1 -1</clus>
<clus scale="   30.682">  1  3  2 -1</clus>
</clustering>
</event>
<event>
 6    0  0.9315069E+002  0.1125623E+03  0.7546771E-02  0.1255897E+00
         21   -1    0    0  506  501  0.00000000000E+00  0.00000000000E+00  0.21294743055E+04  0.21294743055E+04  0.00000000000E+00 0.  1.
         21   -1    0    0  504  502 -0.00000000000E+00 -0.00000000000E+00 -0.43792934241E+03  0.43792934241E+03  0.00000000000E+00 0.  1.
         21    1    1    2  503  505 -0.62041978750E+02 -0.64393504800E+02  0.55473435444E+02  0.10522847822E+03  0.00000000000E+00 0. -1.
         21    1    1    2  504  501  0.61860782602E+02  0.77296604756E+02  0.20075725531E+04  0.20100122083E+04  0.00000000000E+00 0.  1.
         21    1    1    2  505  502  0.16742547147E+02  0.50975451074E+02 -0.38164431410E+03  0.38539744677E+03  0.00000000000E+00 0.  1.
         21    1    1    2  506  503 -0.16561350999E+02 -0.63878551031E+02  0.10143288561E+02  0.66765514538E+02  0.00000000000E+00 0. -1.
<scales pt_clust_3="44.17447" pt_clust_4="100.13035" pt_clust_5="53.65454" pt_clust_6="44.17447"></scales>
<clustering>
<clus scale="   44.174">  3  6 -1 -1</clus>
<clus scale="   53.655">  2  5  1 -1</clus>
<clus scale="  100.130">  1  4  2 -1</clus>
<clus scale="  100.130">  1  3  2 -1</clus>
</clustering>
</event>
<event>
 6    0  0.9315069E+002  0.8148941E+02  0.7546771E-02  0.1324877E+00
         21   -1    0    0  503  501  0.00000000000E+00  0.00000000000E+00  0.24619616088E+03  0.24619616088E+03  0.00000000000E+00 0. -1.
         21   -1    0    0  506  502 -0.00000000000E+00 -0.00000000000E+00 -0.14124211858E+03  0.14124211858E+03  0.00000000000E+00 0. -1.
         21    1    1    2  503  502 -0.33834882813E+02  0.24786364842E+02  0.78926668580E+02  0.89378868812E+02  0.00000000000E+00 0. -1.
         21    1    1    2  504  505 -0.26353697689E+02  0.91662854219E+02 -0.10163373340E+02  0.95916059047E+02  0.00000000000E+00 0. -1.
         21    1    1    2  505  501  0.56644171402E+02 -0.40842013714E+02  0.86566153484E+02  0.11122199048E+03  0.00000000000E+00 0. -1.
         21    1    1    2  506  504  0.35444091004E+01 -0.75607205347E+02 -0.50375406417E+02  0.90921361120E+02  0.00000000000E+00 0. -1.
<scales pt_clust_3="41.94238" pt_clust_4="81.48941" pt_clust_5="44.23687" pt_clust_6="14000.00000"></scales>
<clustering>
<clus scale="   41.942">  1  3  2 -1</clus>
<clus scale="   44.237">  1  5  2 -1</clus>
<clus scale="   81.489">  1  4  2 -1</clus>
<clus scale="   41.942">  1  3  2 -1</clus>
</clustering>
</event>
<event>
 6    0  0.9315069E+002  0.7763155E+02  0.7546771E-02  0.1335910E+00
         21   -1    0    0  506  501  0.00000000000E+00  0.00000000000E+00  0.64110936668E+02  0.64110936668E+02  0.00000000000E+00 0.  1.
         21   -1    0    0  503  502 -0.00000000000E+00 -0.00000000000E+00 -0.49834221578E+03  0.49834221578E+03  0.00000000000E+00 0.  1.
         21    1    1    2  503  505 -0.42689736921E+02 -0.60002684849E+02 -0.32795194693E+03  0.33611785927E+03  0.00000000000E+00 0.  1.
         21    1    1    2  504  502  0.85688124517E+02  0.68270151148E+02 -0.74283973768E+02  0.13236833828E+03  0.00000000000E+00 0.  1.
         21    1    1    2  505  501 -0.19055426109E+02 -0.37498551067E+02  0.33911590884E+01  0.42198940227E+02  0.00000000000E+00 0.  1.
         21    1    1    2  506  504 -0.23942961487E+02  0.29231084768E+02 -0.35386517507E+02  0.51768014669E+02  0.00000000000E+00 0.  1.
<scales pt_clust_3="14000.00000" pt_clust_4="77.63155" pt_clust_5="38.53329" pt_clust_6="37.78521"></scales>
<clustering>
<clus scale="   37.785">  1  6  2 -1</clus>
<clus scale="   38.533">  1  5  2 -1</clus>
<clus scale="   77.632">  1  4  2 -1</clus>
<clus scale="   37.785">  1  3  2 -1</clus>
</clustering>
</event>
<event>
 6    0  0.9315069E+002  0.1039592E+03  0.7546771E-02  0.1272184E+00
         21   -1    0    0  504  501  0.00000000000E+00  0.00000000000E+00  0.12736519391E+04  0.12736519391E+04  0.00000000000E+00 0. -1.
         21   -1    0    0  501  502 -0.00000000000E+00 -0.00000000000E+00 -0.93588475319E+02  0.93588475319E+02  0.00000000000E+00 0.  1.
         21    1    1    2  503  506 -0.44177306001E+01 -0.73185745557E+02  0.22644749768E+03  0.23802129926E+03  0.00000000000E+00 0. -1.
         21    1    1    2  504  505  0.66111483852E+02  0.63457199383E+02  0.68491963014E+03  0.69102275231E+03  0.00000000000E+00 0. -1.
         21    1    1    2  505  503  0.71798564921E+01 -0.57193810019E+02  0.32284463475E+03  0.32795021029E+03  0.00000000000E+00 0. -1.
         21    1    1    2  506  502 -0.68873609744E+02  0.66922356194E+02 -0.54148298835E+02  0.11024615252E+03  0.00000000000E+00 0.  1.
<scales pt_clust_3="35.41645" pt_clust_4="91.63812" pt_clust_5="35.41645" pt_clust_6="95.97951"></scales>
<clustering>
<clus scale="   35.416">  3  5 -1 -1</clus>
<clus scale="   91.638">  1  4  2 -1</clus>
<clus scale="   95.980">  2  6  1 -1</clus>
<clus scale="   91.638">  1  3  2 -1</clus>
</clustering>
</event>
<event>
 6    0  0.9315069E+002  0.1535138E+03  0.7546771E-02  0.1196221E+00
         21   -1    0    0  506  501  0.00000000000E+00  0.00000000000E+00  0.15569602227E+04  0.15569602227E+04  0.00000000000E+00 0. -1.
         21   -1    0    0  505  502 -0.00000000000E+00 -0.00000000000E+00 -0.11061933353E+03  0.11061933353E+03  0.00000000000E+00 0.  1.
         21    1    1    2  503  501  0.15903193627E+02 -0.65245266961E+02  0.26321014655E+02  0.72129413146E+02  0.00000000000E+00 0.  1.
         21    1    1    2  504  502 -0.80911294234E+01  0.18301501775E+03  0.14298425510E+03  0.23238859762E+03  0.00000000000E+00 0. -1.
         21    1    1    2  505  503 -0.30775530331E+02 -0.56539928107E+02 -0.17631414375E+02  0.66744014791E+02  0.00000000000E+00 0.  1.
         21    1    1    2  506  504  0.22963466128E+02 -0.61229822680E+02  0.12946670338E+04  0.12963175307E+04  0.00000000000E+00 0. -1.
<scales pt_clust_3="63.12882" pt_clust_4="139.31615" pt_clust_5="63.12882" pt_clust_6="65.39428"></scales>
<clustering>
<clus scale="   63.129">  3  5 -1 -1</clus>
<clus scale="   65.394">  1  6  2 -1</clus>
<clus scale="  139.316">  1  4  2 -1</clus>
<clus scale="   65.394">  1  3  2 -1</clus>
</clustering>
</event>
<event>
 6    0  0.9315069E+002  0.8868737E+02  0.7546771E-02  0.1306062E+00
         21   -1    0    0  506  501  0.00000000000E+00  0.00000000000E+00  0.33069824402E+03  0.33069824402E+03  0.00000000000E+00 0. -1.
         21   -1    0    0  505  502 -0.00000000000E+00 -0.00000000000E+00 -0.11410496180E+04  0.11410496180E+04  0.00000000000E+00 0. -1.
         21    1    1    2  503  501  0.45694127889E+02 -0.46866846029E+02 -0.10498275073E+02  0.66292294875E+02  0.00000000000E+00 0.  1.
         21    1    1    2  504  503 -0.99011465036E+02  0.20378362837E+02 -0.43849034279E+03  0.44999147614E+03  0.00000000000E+00 0. -1.
         21    1    1    2  505  504  0.63933694816E+02  0.86242049746E+02 -0.65086990263E+03  0.65966418625E+03  0.00000000000E+00 0. -1.
         21    1    1    2  506  502 -0.10616357668E+02 -0.59753566553E+02  0.28950714652E+03  0.29579990475E+03  0.00000000000E+00 0. -1.
<scales pt_clust_3="98.28736" pt_clust_4="14000.00000" pt_clust_5="88.68737" pt_clust_6="60.68934"></scales>
<clustering>
<clus scale="   60.689">  1  6  2 -1</clus>
<clus scale="   98.287">  1  3  2 -1</clus>
<clus scale="   88.687">  2  5  1 -1</clus>
<clus scale="   60.689">  1  3  2 -1</clus>
</clustering>
</event>
<event>
 6    0  0.9315069E+002  0.1128909E+03  0.7546771E-02  0.1255308E+00
         21   -1    0    0  503  501  0.00000000000E+00  0.00000000000E+00  0.27414064067E+03  0.27414064067E+03  0.00000000000E+00 0. -1.
         21   -1    0    0  505  502 -0.00000000000E+00 -0.00000000000E+00 -0.40819305122E+03  0.40819305122E+03  0.00000000000E+00 0.  1.
         21    1    1    2  503  504  0.32984733784E+02  0.35904910383E+02  0.18528628042E+03  0.19159373936E+03  0.00000000000E+00 0. -1.
         21    1    1    2  504  502  0.40718829494E+02 -0.80127773160E+02 -0.29848924704E+03  0.31172794823E+03  0.00000000000E+00 0.  1.
         21    1    1    2  505  506  0.33247380838E+02 -0.12719460611E+02 -0.43017200351E+02  0.55835943055E+02  0.00000000000E+00 0. -1.
         21    1    1    2  506  501 -0.10695094412E+03  0.56942323389E+02  0.22167756428E+02  0.12317606125E+03  0.00000000000E+00 0.  1.
<scales pt_clust_3="48.87233" pt_clust_4="112.89093" pt_clust_5="35.59737" pt_clust_6="14000.00000"></scales>
<clustering>
<clus scale="   35.597">  2  5  1 -1</clus>
<clus scale="   48.872">  1  3  2 -1</clus>
<clus scale="  112.891">  2  4  1 -1</clus>
<clus scale="   48.872">  1  3  2 -1</clus>
</clustering>
</event>
<event>
 6    0  0.9315069E+002  0.3555206E+03  0.7546771E-02  0.1060372E+00
         21   -1    0    0  506  501  0.00000000000E+00  0.00000000000E+00  0.31707505758E+03  0.31707505758E+03  0.00000000000E+00 0.  1.
         21   -1    0    0  503  502 -0.00000000000E+00 -0.00000000000E+00 -0.10166975493E+04  0.10166975493E+04  0.00000000000E+00 0.  1.
         21    1    1    2  503  505  0.19470264080E+03 -0.29343693661E+03 -0.67490475769E+03  0.76125605814E+03  0.00000000000E+00 0.  1.
         21    1    1    2  504  502 -0.18378774570E+03  0.10953105526E+03 -0.79563658031E+02  0.22826599225E+03  0.00000000000E+00 0.  1.
         21    1    1    2  505  501  0.59810432228E+02  0.80725146407E+02  0.15451496263E+03  0.18430602470E+03  0.00000000000E+00 0. -1.
         21    1    1    2  506  504 -0.70725327326E+02  0.10318073494E+03 -0.99669038628E+02  0.15994453179E+03  0.00000000000E+00 0.  1.
<scales pt_clust_3="343.27116" pt_clust_4="70.74453" pt_clust_5="100.46809" pt_clust_6="70.74453"></scales>
<clustering>
<clus scale="   70.745">  4  6 -1 -1</clus>
<clus scale="  100.468">  1  5  2 -1</clus>
<clus scale="  343.271">  2  3  1 -1</clus>
<clus scale="  100.468">  1  3  2 -1</clus>
</clustering>
</event>
<event>
 6    0  0.9315069E+002  0.1203487E+03  0.7546771E-02  0.1242523E+00
         21   -1    0    0  504  501  0.00000000000E+00  0.00000000000E+00  0.79799559552E+03  0.79799559552E+03  0.00000000000E+00 0.  1.
         21   -1    0    0  506  502 -0.00000000000E+00 -0.00000000000E+00 -0.65275560129E+03  0.65275560129E+03  0.00000000000E+00 0.  1.
         21    1    1    2  503  501 -0.44335421454E+02  0.50478910167E+02  0.74912747554E+03  0.75213411342E+03  0.00000000000E+00 0.  1.
         21    1    1    2  504  505  0.46242177176E+01  0.98663768393E+02 -0.23575563099E+03  0.25561032867E+03  0.00000000000E+00 0.  1.
         21    1    1    2  505  502  0.46653437852E+02  0.90864153341E+01 -0.22358417142E+03  0.22858037517E+03  0.00000000000E+00 0.  1.
         21    1    1    2  506  503 -0.69422341151E+01 -0.15822909389E+03 -0.14454767890E+03  0.21442637954E+03  0.00000000000E+00 0.  1.
<scales pt_clust_3="67.10018" pt_clust_4="14000.00000" pt_clust_5="47.53006" pt_clust_6="120.34866"></scales>
<clustering>
<clus scale="   47.530">  2  5  1 -1</clus>
<clus scale="   67.100">  1  3  2 -1</clus>
<clus scale="  120.349">  1  6  2 -1</clus>
<clus scale="   67.100">  1  3  2 -1</clus>
</clustering>
</event>
<event>
 6    0  0.9315069E+002  0.5954053E+02  0.7546771E-02  0.1399770E+00
         21   -1    0    0  504  501  0.00000000000E+00  0.00000000000E+00  0.28914610593E+03  0.28914610593E+03  0.00000000000E+00 0. -1.
         21   -1    0    0  505  502 -0.00000000000E+00 -0.00000000000E+00 -0.61648194242E+03  0.61648194242E+03  0.00000000000E+00 0.  1.
         21    1    1    2  503  501  0.15963397952E+02 -0.10093075571E+03  0.16796688358E+03  0.19660804027E+03  0.00000000000E+00 0. -1.
         21    1    1    2  504  506  0.32638119023E+02  0.25669514094E+02  0.85328042265E+02  0.94894918536E+02  0.00000000000E+00 0. -1.
         21    1    1    2  505  503 -0.53161691828E+02  0.26799964122E+02 -0.55671949498E+03  0.55989373960E+03  0.00000000000E+00 0.  1.
         21    1    1    2  506  502  0.45601748536E+01  0.48461277490E+02 -0.23911267350E+02  0.54231349945E+02  0.00000000000E+00 0.  1.
<scales pt_clust_3="59.54053" pt_clust_4="41.52314" pt_clust_5="14000.00000" pt_clust_6="50.90647"></scales>
<clustering>
<clus scale="   41.523">  1  4  2 -1</clus>
<clus scale="   50.906">  1  6  2 -1</clus>
<clus scale="   59.541">  1  3  2 -1</clus>
<clus scale="   41.523">  1  3  2 -1</clus>
</clustering>
</event>
<event>
 6    0  0.9315069E+002  0.1869730E+03  0.7546771E-02  0.1161220E+00
         21   -1    0    0  505  501  0.00000000000E+00  0.00000000000E+00  0.66531363529E+03  0.66531363529E+03  0.00000000000E+00 0.  1.
         21   -1    0    0  506  502 -0.00000000000E+00 -0.00000000000E+00 -0.84418409331E+02  0.84418409331E+02  0.00000000000E+00 0. -1.
         21    1    1    2  503  501  0.48290613282E+00  0.10605252717E+03  0.86821256644E+02  0.13705948461E+03  0.00000000000E+00 0. -1.
         21    1    1    2  504  502  0.30572295376E+02  0.82651772995E+00 -0.20114062472E+02  0.36604970773E+02  0.00000000000E+00 0.  1.
         21    1    1    2  505  504 -0.67208904847E+01 -0.17992789409E+03  0.39600232661E+03  0.43501386199E+03  0.00000000000E+00 0.  1.
         21    1    1    2  506  503 -0.24334311024E+02  0.73048849194E+02  0.11818570518E+03  0.14105372724E+03  0.00000000000E+00 0. -1.
<scales pt_clust_3="43.33216" pt_clust_4="30.58347" pt_clust_5="179.68300" pt_clust_6="43.33216"></scales>
<clustering>
<clus scale="   30.583">  2  4  1 -1</clus>
<clus scale="   43.332">  3  6 -1 -1</clus>
<clus scale="  179.683">  1  5  2 -1</clus>
<clus scale="  179.683">  1  3  2 -1</clus>
</clustering>
</event>
<event>
 6    0  0.9315069E+002  0.1136379E+03  0.7546771E-02  0.1253978E+00
         21   -1    0    0  504  501  0.00000000000E+00  0.00000000000E+00  0.15490332952E+03  0.15490332952E+03  0.00000000000E+00 0.  1.
         21   -1    0    0  505  502 -0.00000000000E+00 -0.00000000000E+00 -0.29556040103E+03  0.29556040103E+03  0.00000000000E+00 0.  1.
         21    1    1    2  503  506  0.66786212580E+02  0.15431837052E+02 -0.11944684557E+03  0.13771742338E+03  0.00000000000E+00 0.  1.
         21    1    1    2  504  502 -0.10925949363E+03 -0.57579816236E+02  0.77825512819E+02  0.14597904860E+03  0.00000000000E+00 0.  1.
         21    1    1    2  505  503  0.36655839606E+02 -0.25776687967E+02 -0.86546086390E+02  0.97459290420E+02  0.00000000000E+00 0.  1.
         21    1    1    2  506  501  0.58174414396E+01  0.67924667150E+02 -0.12489652370E+02  0.69307968147E+02  0.00000000000E+00 0.  1.
<scales pt_clust_3="36.76642" pt_clust_4="104.14337" pt_clust_5="36.76642" pt_clust_6="68.17333"></scales>
<clustering>
<clus scale="   36.766">  3  5 -1 -1</clus>
<clus scale="   68.173">  1  6  2 -1</clus>
<clus scale="  104.143">  1  4  2 -1</clus>
<clus scale="   68.173">  1  3  2 -1</clus>
</clustering>
</event>
<event>
 6    0  0.9315069E+002  0.2167098E+03  0.7546771E-02  0.1136360E+00
         21   -1    0    0  505  501  0.00000000000E+00  0.00000000000E+00  0.51698994324E+03  0.51698994324E+03  0.00000000000E+00 0.  1.
         21   -1    0    0  503  502 -0.00000000000E+00 -0.00000000000E+00 -0.22618552642E+03  0.22618552642E+03  0.00000000000E+00 0.  1.
         21    1    1    2  503  504 -0.39757816758E+02  0.24744731208E+03  0.23347278133E+03  0.34252065029E+03  0.00000000000E+00 0.  1.
         21    1    1    2  504  501  0.30171264881E+02  0.30315477930E+02  0.19659405459E+02  0.47072557289E+02  0.00000000000E+00 0.  1.
         21    1    1    2  505  506  0.71408693307E+02 -0.11168460023E+03  0.99656063726E+02  0.16584324661E+03  0.00000000000E+00 0.  1.
         21    1    1    2  506  502 -0.61822141429E+02 -0.16607818978E+03 -0.61983833704E+02  0.18773901548E+03  0.00000000000E+00 0.  1.
<scales pt_clust_3="42.25620" pt_clust_4="42.25620" pt_clust_5="132.56188" pt_clust_6="191.05036"></scales>
<clustering>
<clus scale="   42.256">  3  4 -1 -1</clus>
<clus scale="  132.562">  1  5  2 -1</clus>
<clus scale="  191.050">  2  6  1 -1</clus>
<clus scale="  132.562">  1  3  2 -1</clus>
</clustering>
</event>
<event>
 6    0  0.9315069E+002  0.8518795E+02  0.7546771E-02  0.1314942E+00
         21   -1    0    0  505  501  0.00000000000E+00  0.00000000000E+00  0.14953563237E+04  0.14953563237E+04  0.00000000000E+00 0. -1.
         21   -1    0    0  504  502 -0.00000000000E+00 -0.00000000000E+00 -0.12335820606E+03  0.12335820606E+03  0.00000000000E+00 0.  1.
         21    1    1    2  503  502  0.37777466173E+02  0.39497549504E+02  0.23546901690E+02  0.59511763093E+02  0.00000000000E+00 0. -1.
         21    1    1    2  504  506  0.14435585036E+02 -0.64063458694E+02  0.64947498063E+02  0.92361736449E+02  0.00000000000E+00 0.  1.
         21    1    1    2  505  503  0.87442767077E+01  0.84489019791E+02 -0.70350689839E+02  0.11029087179E+03  0.00000000000E+00 0.  1.
         21    1    1    2  506  501 -0.60957327917E+02 -0.59923110601E+02  0.13538544077E+04  0.13565501584E+04  0.00000000000E+00 0. -1.
<scales pt_clust_3="54.65522" pt_clust_4="62.02131" pt_clust_5="14000.00000" pt_clust_6="85.18795"></scales>
<clustering>
<clus scale="   54.655">  2  3  1 -1</clus>
<clus scale="   62.021">  2  4  1 -1</clus>
<clus scale="   85.188">  1  6  2 -1</clus>
<clus scale="   85.188">  1  3  2 -1</clus>
</clustering>
</event>
<event>
 6    0  0.9315069E+002  0.6683604E+02  0.7546771E-02  0.1371195E+00
         21   -1    0    0  506  501  0.00000000000E+00  0.00000000000E+00  0.16823392988E+04  0.16823392988E+04  0.00000000000E+00 0. -1.
         21   -1    0    0  504  502 -0.00000000000E+00 -0.00000000000E+00 -0.26043382603E+02  0.26043382603E+02  0.00000000000E+00 0. -1.
         21    1    1    2  503  501 -0.13283812600E+02 -0.26903461553E+02  0.13387586259E+03  0.13719694787E+03  0.00000000000E+00 0. -1.
         21    1    1    2  504  505  0.21980405793E+02 -0.59417515641E+02  0.37399523768E+02  0.73568361283E+02  0.00000000000E+00 0. -1.
         21    1    1    2  505  503  0.33036426921E+02 -0.44638495575E+02  0.36652698969E+03  0.37071017650E+03  0.00000000000E+00 0. -1.
         21    1    1    2  506  502 -0.41733020114E+02  0.13095947277E+03  0.11184935401E+04  0.11269071957E+04  0.00000000000E+00 0. -1.
<scales pt_clust_3="30.00427" pt_clust_4="66.83604" pt_clust_5="59.14686" pt_clust_6="14000.00000"></scales>
<clustering>
<clus scale="   30.004">  1  3  2 -1</clus>
<clus scale="   59.147">  1  5  2 -1</clus>
<clus scale="   66.836">  2  4  1 -1</clus>
<clus scale="   30.004">  1  3  2 -1</clus>
</clustering>
</event>
<event>
 6    0  0.9315069E+002  0.2663995E+03  0.7546771E-02  0.1103358E+00
         21   -1    0    0  506  501  0.00000000000E+00  0.00000000000E+00  0.11610383713E+04  0.11610383713E+04  0.00000000000E+00 0. -1.
         21   -1    0    0  505  502 -0.00000000000E+00 -0.00000000000E+00 -0.40303576946E+03  0.40303576946E+03  0.00000000000E+00 0. -1.
         21    1    1    2  503  504  0.14761916557E+03  0.46928571765E+02  0.26258857716E+03  0.30487123470E+03  0.00000000000E+00 0.  1.
         21    1    1    2  504  502  0.25616812158E+03  0.10592860203E+02 -0.25585258357E+03  0.36220830984E+03  0.00000000000E+00 0. -1.
         21    1    1    2  505  501 -0.35865602426E+03 -0.11864451128E+03  0.45622828804E+03  0.59233007234E+03  0.00000000000E+00 0. -1.
         21    1    1    2  506  503 -0.45131262888E+02  0.61123079308E+02  0.29503832025E+03  0.30466452391E+03  0.00000000000E+00 0. -1.
<scales pt_clust_3="148.72955" pt_clust_4="14000.00000" pt_clust_5="266.39948" pt_clust_6="75.97935"></scales>
<clustering>
<clus scale="   75.979">  1  6  2 -1</clus>
<clus scale="  148.730">  1  3  2 -1</clus>
<clus scale="  266.399">  1  5  2 -1</clus>
<clus scale="   75.979">  1  3  2 -1</clus>
</clustering>
</event>
<event>
 6    0  0.9315069E+002  0.1308315E+03  0.7546771E-02  0.1226227E+00
         21   -1    0    0  504  501  0.00000000000E+00  0.00000000000E+00  0.42198089117E+04  0.42198089117E+04  0.00000000000E+00 0.  1.
         21   -1    0    0  506  502 -0.00000000000E+00 -0.00000000000E+00 -0.44436614122E+02  0.44436614122E+02  0.00000000000E+00 0.  1.
         21    1    1    2  503  505  0.43478512144E+02 -0.20320283137E+02  0.74108840388E+02  0.88291648239E+02  0.00000000000E+00 0.  1.
         21    1    1    2  504  503 -0.12381999606E+03  0.32249238405E+02  0.40301687111E+04  0.40321993062E+04  0.00000000000E+00 0.  1.
         21    1    1    2  505  502  0.30671332706E+02 -0.48631713795E+02  0.55818158331E+02  0.80133894427E+02  0.00000000000E+00 0.  1.
         21    1    1    2  506  501  0.49670151210E+02  0.36702758527E+02  0.15276587747E+02  0.63620676968E+02  0.00000000000E+00 0.  1.
<scales pt_clust_3="32.08850" pt_clust_4="126.02902" pt_clust_5="32.08850" pt_clust_6="61.75934"></scales>
<clustering>
<clus scale="   32.088">  3  5 -1 -1</clus>
<clus scale="   61.759">  2  6  1 -1</clus>
<clus scale="  126.029">  1  4  2 -1</clus>
<clus scale="  126.029">  1  3  2 -1</clus>
</clustering>
</event>
<event>
 6    0  0.9315069E+002  0.8414135E+02  0.7546771E-02  0.1317693E+00
         21   -1    0    0  504  501  0.00000000000E+00  0.00000000000E+00  0.37898320445E+03  0.37898320445E+03  0.00000000000E+00 0.  1.
         21   -1    0    0  503  502 -0.00000000000E+00 -0.00000000000E+00 -0.54077507395E+02  0.54077507395E+02  0.00000000000E+00 0.  1.
         21    1    1    2  503  506  0.21688168444E+02  0.33639010025E+02  0.92236481382E+01  0.41073535651E+02  0.00000000000E+00 0. -1.
         21    1    1    2  504  502  0.85994181690E+02 -0.23315845318E+02  0.17671089340E+03  0.19790241983E+03  0.00000000000E+00 0.  1.
         21    1    1    2  505  501 -0.80778264415E+02 -0.44249596364E+02  0.91378848430E+02  0.12974301030E+03  0.00000000000E+00 0.  1.
         21    1    1    2  506  505 -0.26904085719E+02  0.33926431657E+02  0.47592307084E+02  0.64341746067E+02  0.00000000000E+00 0.  1.
<scales pt_clust_3="40.02449" pt_clust_4="84.14135" pt_clust_5="14000.00000" pt_clust_6="46.87088"></scales>
<clustering>
<clus scale="   40.024">  2  3  1 -1</clus>
<clus scale="   46.871">  2  6  1 -1</clus>
<clus scale="   84.141">  1  4  2 -1</clus>
<clus scale="   84.141">  1  3  2 -1</clus>
</clustering>
</event>
<event>
 6    0  0.9315069E+002  0.1154079E+03  0.7546771E-02  0.1250871E+00
         21   -1    0    0  503  501  0.00000000000E+00  0.00000000000E+00  0.20801859132E+03  0.20801859132E+03  0.00000000000E+00 0.  1.
         21   -1    0    0  506  502 -0.00000000000E+00 -0.00000000000E+00 -0.90797665595E+03  0.90797665595E+03  0.00000000000E+00 0.  1.
         21    1    1    2  503  505 -0.38597350686E+02  0.55142454973E+02 -0.27397571808E+03  0.28212256187E+03  0.00000000000E+00 0.  1.
         21    1    1    2  504  501  0.10168701425E+03 -0.61481866092E+02  0.18140558314E+03  0.21685998782E+03  0.00000000000E+00 0.  1.
         21    1    1    2  505  502 -0.34676061751E+02 -0.49395576221E+01 -0.55683298846E+03  0.55793351354E+03  0.00000000000E+00 0.  1.
         21    1    1    2  506  504 -0.28413601811E+02  0.11278968741E+02 -0.50554941222E+02  0.59079184030E+02  0.00000000000E+00 0. -1.
<scales pt_clust_3="115.40790" pt_clust_4="14000.00000" pt_clust_5="53.29453" pt_clust_6="30.57038"></scales>
<clustering>
<clus scale="   30.570">  2  6  1 -1</clus>
<clus scale="   53.295">  2  5  1 -1</clus>
<clus scale="  115.408">  2  3  1 -1</clus>
<clus scale="  115.408">  1  3  2 -1</clus>
</clustering>
</event>
<event>
 6    0  0.9315069E+002  0.1226007E+03  0.7546771E-02  0.1238867E+00
         21   -1    0    0  505  501  0.00000000000E+00  0.00000000000E+00  0.97169399113E+03  0.97169399113E+03  0.00000000000E+00 0.  1.
         21   -1    0    0  506  502 -0.00000000000E+00 -0.00000000000E+00 -0.13240733173E+03  0.13240733173E+03  0.00000000000E+00 0. -1.
         21    1    1    2  503  502 -0.29894224117E+02  0.11704375126E+02  0.35324873860E+00  0.32105791025E+02  0.00000000000E+00 0.  1.
         21    1    1    2  504  503 -0.17417352245E+03 -0.20774442006E+02  0.18624333715E+03  0.25584091541E+03  0.00000000000E+00 0.  1.
         21    1    1    2  505  504  0.74198508438E+02  0.26378411839E+02  0.67813258739E+03  0.68268956733E+03  0.00000000000E+00 0.  1.
         21    1    1    2  506  501  0.12986923813E+03 -0.17308344960E+02 -0.25442513878E+02  0.13346504910E+03  0.00000000000E+00 0. -1.
<scales pt_clust_3="32.10385" pt_clust_4="14000.00000" pt_clust_5="78.27495" pt_clust_6="122.60069"></scales>
<clustering>
<clus scale="   32.104">  2  3  1 -1</clus>
<clus scale="   78.275">  1  5  2 -1</clus>
<clus scale="  122.601">  2  6  1 -1</clus>
<clus scale="   78.275">  1  3  2 -1</clus>
</clustering>
</event>
<event>
 6    0  0.9315069E+002  0.1465468E+03  0.7546771E-02  0.1204782E+00
         21   -1    0    0  505  501  0.00000000000E+00  0.00000000000E+00  0.20595774881E+03  0.20595774881E+03  0.00000000000E+00 0.  1.
         21   -1    0    0  503  502 -0.00000000000E+00 -0.00000000000E+00 -0.28984164339E+03  0.28984164339E+03  0.00000000000E+00 0.  1.
         21    1    1    2  503  504 -0.51081927092E+02 -0.37752579013E+02 -0.52746563404E+02  0.82564038470E+02  0.00000000000E+00 0.  1.
         21    1    1    2  504  501  0.39021267951E+02 -0.12348399449E+03 -0.14863005121E+03  0.19713408729E+03  0.00000000000E+00 0.  1.
         21    1    1    2  505  506  0.35070610681E+02  0.24909652502E+02  0.30945497161E+02  0.52991153185E+02  0.00000000000E+00 0. -1.
         21    1    1    2  506  502 -0.23009951541E+02  0.13632692100E+03  0.86547222869E+02  0.16311011325E+03  0.00000000000E+00 0.  1.
<scales pt_clust_3="59.60863" pt_clust_4="146.54682" pt_clust_5="43.01672" pt_clust_6="14000.00000"></scales>
<clustering>
<clus scale="   43.017">  1  5  2 -1</clus>
<clus scale="   59.609">  2  3  1 -1</clus>
<clus scale="  146.547">  2  4  1 -1</clus>
<clus scale="   43.017">  1  3  2 -1</clus>
</clustering>
</event>
<event>
 6    0  0.9315069E+002  0.1795494E+03  0.7546771E-02  0.1168240E+00
         21   -1    0    0  505  501  0.00000000000E+00  0.00000000000E+00  0.13019910557E+03  0.13019910557E+03  0.00000000000E+00 0. -1.
         21   -1    0    0  503  502 -0.00000000000E+00 -0.00000000000E+00 -0.64157528777E+03  0.64157528777E+03  0.00000000000E+00 0. -1.
         21    1    1    2  503  504  0.90940319378E+00 -0.46745988388E+02 -0.29707059465E+03  0.30072737264E+03  0.00000000000E+00 0. -1.
         21    1    1    2  504  501 -0.13879349864E+03 -0.43817183531E+02 -0.24415247394E+03  0.28424287391E+03  0.00000000000E+00 0. -1.
         21    1    1    2  505  506  0.42173558716E+02  0.65432593745E+02  0.39654958105E+02  0.87364461203E+02  0.00000000000E+00 0. -1.
         21    1    1    2  506  502  0.95710536731E+02  0.25130578174E+02 -0.98080717154E+01  0.99439685596E+02  0.00000000000E+00 0. -1.
<scales pt_clust_3="46.75483" pt_clust_4="159.52031" pt_clust_5="72.36832" pt_clust_6="72.36832"></scales>
<clustering>
<clus scale="   46.755">  2  3  1 -1</clus>
<clus scale="   72.368">  5  6 -1 -1</clus>
<clus scale="  159.520">  2  4  1 -1</clus>
<clus scale="  179.549">  1  3  2 -1</clus>
</clustering>
</event>
<event>
 6    0  0.9315069E+002  0.8562626E+02  0.7546771E-02  0.1313803E+00
         21   -1    0    0  506  501  0.00000000000E+00  0.00000000000E+00  0.74028830925E+02  0.74028830925E+02  0.00000000000E+00 0.  1.
         21   -1    0    0  503  502 -0.00000000000E+00 -0.00000000000E+00 -0.37761036434E+03  0.37761036434E+03  0.00000000000E+00 0.  1.
         21    1    1    2  503  505 -0.19667534931E+02  0.68761056094E+02 -0.17345721994E+03  0.18762276492E+03  0.00000000000E+00 0.  1.
         21    1    1    2  504  502  0.37303693223E+02  0.95512196535E+01 -0.63707784503E+02  0.74441071535E+02  0.00000000000E+00 0.  1.
         21    1    1    2  505  501  0.22285570198E+02  0.39412953159E+02  0.60587639748E+01  0.45680807093E+02  0.00000000000E+00 0.  1.
         21    1    1    2  506  504 -0.39921728490E+02 -0.11772522891E+03 -0.72475292940E+02  0.14389455171E+03  0.00000000000E+00 0.  1.
<scales pt_clust_3="85.62626" pt_clust_4="38.50703" pt_clust_5="47.02385" pt_clust_6="14000.00000"></scales>
<clustering>
<clus scale="   38.507">  2  4  1 -1</clus>
<clus scale="   47.024">  1  5  2 -1</clus>
<clus scale="   85.626">  2  3  1 -1</clus>
<clus scale="   47.024">  1  3  2 -1</clus>
</clustering>
</event>
<event>
 6    0  0.9315069E+002  0.9634024E+02  0.7546771E-02  0.1288186E+00
         21   -1    0    0  504  501  0.00000000000E+00  0.00000000000E+00  0.69680990685E+02  0.69680990685E+02  0.00000000000E+00 0. -1.
         21   -1    0    0  503  502 -0.00000000000E+00 -0.00000000000E+00 -0.14053743018E+04  0.14053743018E+04  0.00000000000E+00 0. -1.
         21    1    1    2  503  505 -0.83534374669E+01 -0.32469286172E+02 -0.10347343059E+04  0.10352773146E+04  0.00000000000E+00 0. -1.
         21    1    1    2  504  502 -0.28789127333E+02 -0.10810353860E+02 -0.22563215461E+02  0.38141529795E+02  0.00000000000E+00 0. -1.
         21    1    1    2  505  506  0.13543318301E+02 -0.69655686278E+02 -0.27732222267E+03  0.28625679256E+03  0.00000000000E+00 0. -1.
         21    1    1    2  506  501  0.23599246500E+02  0.11293532631E+03 -0.10735671570E+01  0.11537965553E+03  0.00000000000E+00 0. -1.
<scales pt_clust_3="33.60420" pt_clust_4="30.75187" pt_clust_5="96.34024" pt_clust_6="14000.00000"></scales>
<clustering>
<clus scale="   30.752">  1  4  2 -1</clus>
<clus scale="   33.604">  2  3  1 -1</clus>
<clus scale="   96.340">  2  5  1 -1</clus>
<clus scale="   30.752">  1  3  2 -1</clus>
</clustering>
</event>
<event>
 6    0  0.9315069E+002  0.1484467E+03  0.7546771E-02  0.1202395E+00
         21   -1    0    0  502  501  0.00000000000E+00  0.00000000000E+00  0.28352173921E+03  0.28352173921E+03  0.00000000000E+00 0. -1.
         21   -1    0    0  504  502 -0.00000000000E+00 -0.00000000000E+00 -0.13825709165E+04  0.13825709165E+04  0.00000000000E+00 0.  1.
         21    1    1    2  503  501  0.89054542166E+02 -0.46702455221E+01  0.24531413740E+03  0.26102020742E+03  0.00000000000E+00 0. -1.
         21    1    1    2  504  506  0.93716375877E+02  0.92385908000E+02 -0.95122330558E+03  0.96028313126E+03  0.00000000000E+00 0.  1.
         21    1    1    2  505  503 -0.78428184497E+02 -0.61439011293E+02 -0.20861308484E+03  0.23118207413E+03  0.00000000000E+00 0. -1.
         21    1    1    2  506  505 -0.10434273355E+03 -0.26276651185E+02 -0.18452692430E+03  0.21360724293E+03  0.00000000000E+00 0. -1.
<scales pt_clust_3="89.17692" pt_clust_4="140.91561" pt_clust_5="44.91945" pt_clust_6="44.91945"></scales>
<clustering>
<clus scale="   44.919">  5  6 -1 -1</clus>
<clus scale="   89.177">  1  3  2 -1</clus>
<clus scale="  140.916">  2  4  1 -1</clus>
<clus scale="   89.177">  1  3  2 -1</clus>
</clustering>
</event>
<event>
 6    0  0.9315069E+002  0.2678723E+03  0.7546771E-02  0.1102504E+00
         21   -1    0    0  505  501  0.00000000000E+00  0.00000000000E+00  0.11384498220E+03  0.11384498220E+03  0.00000000000E+00 0. -1.
         21   -1    0    0  504  502 -0.00000000000E+00 -0.00000000000E+00 -0.16233230555E+04  0.16233230555E+04  0.00000000000E+00 0.  1.
         21    1    1    2  503  501  0.28720990049E+03  0.29548668002E+02 -0.17942163653E+03  0.33993348522E+03  0.00000000000E+00 0. -1.
         21    1    1    2  504  506 -0.40605695871E+02  0.48352411819E+01 -0.29984162955E+03  0.30261725811E+03  0.00000000000E+00 0.  1.
         21    1    1    2  505  502 -0.62407856482E+02  0.11244013404E+03 -0.27630037300E+03  0.30476125150E+03  0.00000000000E+00 0. -1.
         21    1    1    2  506  503 -0.18419634814E+03 -0.14682404322E+03 -0.75391443419E+03  0.78985604285E+03  0.00000000000E+00 0.  1.
<scales pt_clust_3="267.87231" pt_clust_4="40.89257" pt_clust_5="134.05584" pt_clust_6="14000.00000"></scales>
<clustering>
<clus scale="   40.893">  2  4  1 -1</clus>
<clus scale="  134.056">  2  5  1 -1</clus>
<clus scale="  267.872">  1  3  2 -1</clus>
<clus scale="  267.872">  1  3  2 -1</clus>
</clustering>
</event>
<event>
 6    0  0.9315069E+002  0.1438863E+03  0.7546771E-02  0.1208193E+00
         21   -1    0    0  503  501  0.00000000000E+00  0.00000000000E+00  0.11201593045E+03  0.11201593045E+03  0.00000000000E+00 0.  1.
         21   -1    0    0  506  502 -0.00000000000E+00 -0.00000000000E+00 -0.44989273231E+03  0.44989273231E+03  0.00000000000E+00 0.  1.
         21    1    1    2  503  504 -0.13728314906E+02 -0.41003356186E+02  0.68238874067E+01  0.43775647203E+02  0.00000000000E+00 0.  1.
         21    1    1    2  504  505 -0.10958593593E+03 -0.45114294546E+02 -0.14147989899E+02  0.11935050290E+03  0.00000000000E+00 0.  1.
         21    1    1    2  505  502  0.11889273195E+03  0.44547851238E+02 -0.33352389033E+03  0.35687277590E+03  0.00000000000E+00 0.  1.
         21    1    1    2  506  501  0.44215188833E+01  0.41569799495E+02  0.29711909657E+01  0.41909736757E+02  0.00000000000E+00 0.  1.
<scales pt_clust_3="37.88597" pt_clust_4="37.88597" pt_clust_5="129.49675" pt_clust_6="41.80428"></scales>
<clustering>
<clus scale="   37.886">  3  4 -1 -1</clus>
<clus scale="   41.804">  1  6  2 -1</clus>
<clus scale="  129.497">  2  5  1 -1</clus>
<clus scale="   41.804">  1  3  2 -1</clus>
</clustering>
</event>
<event>
 6    0  0.9315069E+002  0.2315320E+03  0.7546771E-02  0.1125566E+00
         21   -1    0    0  505  501  0.00000000000E+00  0.00000000000E+00  0.27326888412E+03  0.27326888412E+03  0.00000000000E+00 0.  1.
         21   -1    0    0  504  502 -0.00000000000E+00 -0.00000000000E+00 -0.36164872383E+03  0.36164872383E+03  0.00000000000E+00 0.  1.
         21    1    1    2  503  501 -0.41058451559E+02  0.25836687399E+02  0.11065283810E+03  0.12081962357E+03  0.00000000000E+00 0.  1.
         21    1    1    2  504  503  0.84267474448E+02  0.20091559891E+03 -0.24149576043E+02  0.21920603814E+03  0.00000000000E+00 0.  1.
         21    1    1    2  505  506 -0.31055652604E+02 -0.17214857505E+03 -0.10023694144E+03  0.20161108570E+03  0.00000000000E+00 0.  1.
         21    1    1    2  506  502 -0.12153370285E+02 -0.54603711258E+02 -0.74646160326E+02  0.93280860544E+02  0.00000000000E+00 0.  1.
<scales pt_clust_3="48.51114" pt_clust_4="224.75213" pt_clust_5="31.45284" pt_clust_6="31.45284"></scales>
<clustering>
<clus scale="   31.453">  5  6 -1 -1</clus>
<clus scale="   48.511">  1  3  2 -1</clus>
<clus scale="  224.752">  1  4  2 -1</clus>
<clus scale="   48.511">  1  3  2 -1</clus>
</clustering>
</event>
<event>
 6    0  0.9315069E+002  0.3858313E+03  0.7546771E-02  0.1048799E+00
         21   -1    0    0  506  501  0.00000000000E+00  0.00000000000E+00  0.45728204015E+03  0.45728204015E+03  0.00000000000E+00 0. -1.
         21   -1    0    0  503  502 -0.00000000000E+00 -0.00000000000E+00 -0.70566645144E+03  0.70566645144E+03  0.00000000000E+00 0. -1.
         21    1    1    2  503  501 -0.45324766295E+01  0.61770145670E+02  0.20065050616E+03  0.20999219000E+03  0.00000000000E+00 0. -1.
         21    1    1    2  504  502  0.34586327706E+01  0.42348511640E+02 -0.48998649727E+02  0.64855425786E+02  0.00000000000E+00 0.  1.
         21    1    1    2  505  504 -0.24206171383E+03 -0.35366870526E+03 -0.30791003416E+03  0.52771584733E+03  0.00000000000E+00 0. -1.
         21    1    1    2  506  505  0.24313555769E+03  0.24955004795E+03 -0.92126233559E+02  0.36038502848E+03  0.00000000000E+00 0. -1.
<scales pt_clust_3="62.23849" pt_clust_4="42.48951" pt_clust_5="385.83130" pt_clust_6="14000.00000"></scales>
<clustering>
<clus scale="   42.490">  2  4  1 -1</clus>
<clus scale="   62.238">  1  3  2 -1</clus>
<clus scale="  385.831">  2  5  1 -1</clus>
<clus scale="   62.238">  1  3  2 -1</clus>
</clustering>
</event>
<event>
 6    0  0.1719853E+003  0.1704454E+03  0.7546771E-02  0.1177384E+00
         21   -1    0    0  506  501  0.00000000000E+00  0.00000000000E+00  0.30755460226E+03  0.30755460226E+03  0.00000000000E+00 0. -1.
         21   -1    0    0  504  502 -0.00000000000E+00 -0.00000000000E+00 -0.23535560124E+04  0.23535560124E+04  0.00000000000E+00 0.  1.
         21    1    1    2  503  502 -0.39462848942E+02  0.15757531396E+03 -0.22884708174E+04  0.22942288417E+04  0.00000000000E+00 0.  1.
         21    1    1    2  504  501 -0.45498656520E+02 -0.27001774038E+02 -0.20571796299E+02  0.56766383972E+02  0.00000000000E+00 0.  1.
         21    1    1    2  505  503  0.46895526827E+02 -0.11109123576E+03  0.20786210435E+03  0.24030627858E+03  0.00000000000E+00 0. -1.
         21    1    1    2  506  505  0.38065978636E+02 -0.19482304160E+02  0.55179099214E+02  0.69809110401E+02  0.00000000000E+00 0. -1.
<scales pt_clust_3="162.29187" pt_clust_4="52.90769" pt_clust_5="31.01749" pt_clust_6="31.01749"></scales>
<clustering>
<clus scale="   31.017">  5  6 -1 -1</clus>
<clus scale="   52.908">  1  4  2 -1</clus>
<clus scale="  162.292">  2  3  1 -1</clus>
<clus scale="   52.908">  1  3  2 -1</clus>
</clustering>
</event>
<event>
 6    0  0.9315069E+002  0.9364332E+02  0.7546771E-02  0.1294261E+00
         21   -1    0    0  506  501  0.00000000000E+00  0.00000000000E+00  0.28049159376E+03  0.28049159376E+03  0.00000000000E+00 0.  1.
         21   -1    0    0  505  502 -0.00000000000E+00 -0.00000000000E+00 -0.34511493515E+03  0.34511493515E+03  0.00000000000E+00 0. -1.
         21    1    1    2  503  501  0.91932909441E+02 -0.55278110190E+02 -0.12573930554E+03  0.16528067722E+03  0.00000000000E+00 0. -1.
         21    1    1    2  504  502 -0.21816682881E+02 -0.44874897700E+02 -0.68976395214E+01  0.50371634146E+02  0.00000000000E+00 0. -1.
         21    1    1    2  505  503 -0.54584128405E+02  0.69187609776E+02 -0.15820719014E+03  0.18109629326E+03  0.00000000000E+00 0. -1.
         21    1    1    2  506  504 -0.15532098156E+02  0.30965398114E+02  0.22622079381E+03  0.22885792428E+03  0.00000000000E+00 0.  1.
<scales pt_clust_3="93.64332" pt_clust_4="42.77053" pt_clust_5="14000.00000" pt_clust_6="34.64249"></scales>
<clustering>
<clus scale="   34.642">  1  6  2 -1</clus>
<clus scale="   42.771">  1  4  2 -1</clus>
<clus scale="   93.643">  1  3  2 -1</clus>
<clus scale="   34.642">  1  3  2 -1</clus>
</clustering>
</event>
<event>
 6    0  0.9315069E+002  0.8348226E+02  0.7546771E-02  0.1319450E+00
         21   -1    0    0  504  501  0.00000000000E+00  0.00000000000E+00  0.10356639186E+03  0.10356639186E+03  0.00000000000E+00 0. -1.
         21   -1    0    0  505  502 -0.00000000000E+00 -0.00000000000E+00 -0.24759668193E+03  0.24759668193E+03  0.00000000000E+00 0. -1.
         21    1    1    2  503  501  0.29254621272E+02  0.10357164189E+03  0.64251957136E+01  0.10781558797E+03  0.00000000000E+00 0. -1.
         21    1    1    2  504  502  0.16691589815E+02 -0.69386022901E+02  0.47575503085E+00  0.71367049031E+02  0.00000000000E+00 0. -1.
         21    1    1    2  505  506 -0.63460004599E+01 -0.32366789753E+02 -0.11066274168E+03  0.11547347400E+03  0.00000000000E+00 0. -1.
         21    1    1    2  506  503 -0.39600210628E+02 -0.18188292373E+01 -0.40268499132E+02  0.56506962791E+02  0.00000000000E+00 0. -1.
<scales pt_clust_3="14000.00000" pt_clust_4="83.48226" pt_clust_5="32.98304" pt_clust_6="43.99266"></scales>
<clustering>
<clus scale="   32.983">  2  5  1 -1</clus>
<clus scale="   43.993">  2  6  1 -1</clus>
<clus scale="   83.482">  1  4  2 -1</clus>
<clus scale="   83.482">  1  3  2 -1</clus>
</clustering>
</event>
<event>
 6    0  0.9315069E+002  0.2465280E+03  0.7546771E-02  0.1115519E+00
         21   -1    0    0  505  501  0.00000000000E+00  0.00000000000E+00  0.46534007029E+03  0.46534007029E+03  0.00000000000E+00 0.  1.
         21   -1    0    0  503  502 -0.00000000000E+00 -0.00000000000E+00 -0.10966740374E+04  0.10966740374E+04  0.00000000000E+00 0. -1.
         21    1    1    2  503  504 -0.14214935088E+02 -0.87696606218E+02 -0.83470651905E+03  0.83942106959E+03  0.00000000000E+00 0. -1.
         21    1    1    2  504  501  0.19489605939E+03  0.18221430506E+03  0.34829749005E+03  0.43874556238E+03  0.00000000000E+00 0.  1.
         21    1    1    2  505  506 -0.33432599276E+02  0.28128408826E+02 -0.18199083205E+00  0.43691866498E+02  0.00000000000E+00 0. -1.
         21    1    1    2  506  502 -0.14724852503E+03 -0.12264610767E+03 -0.14474294723E+03  0.24015560918E+03  0.00000000000E+00 0.  1.
<scales pt_clust_3="88.72230" pt_clust_4="246.52800" pt_clust_5="43.69149" pt_clust_6="14000.00000"></scales>
<clustering>
<clus scale="   43.691">  1  5  2 -1</clus>
<clus scale="   88.722">  2  3  1 -1</clus>
<clus scale="  246.528">  1  4  2 -1</clus>
<clus scale="   43.691">  1  3  2 -1</clus>
</clustering>
</event>
<event>
 6    0  0.9315069E+002  0.7816297E+02  0.7546771E-02  0.1334347E+00
         21   -1    0    0  503  501  0.00000000000E+00  0.00000000000E+00  0.11441934616E+04  0.11441934616E+04  0.00000000000E+00 0. -1.
         21   -1    0    0  506  502 -0.00000000000E+00 -0.00000000000E+00 -0.50565978886E+02  0.50565978886E+02  0.00000000000E+00 0.  1.
         21    1    1    2  503  505 -0.12901046592E+02 -0.14899002328E+03  0.68608807134E+03  0.70219748339E+03  0.00000000000E+00 0. -1.
         21    1    1    2  504  501 -0.73839246003E+01  0.33211480974E+02  0.24847493293E+03  0.25079337532E+03  0.00000000000E+00 0.  1.
         21    1    1    2  505  502  0.43813752697E+02  0.61099526612E+02  0.35702879738E+01  0.75269808249E+02  0.00000000000E+00 0.  1.
         21    1    1    2  506  504 -0.23528781504E+02  0.54679015694E+02  0.15549419047E+03  0.16649877353E+03  0.00000000000E+00 0. -1.
<scales pt_clust_3="14000.00000" pt_clust_4="34.02242" pt_clust_5="78.16297" pt_clust_6="65.55210"></scales>
<clustering>
<clus scale="   34.022">  1  4  2 -1</clus>
<clus scale="   65.552">  1  6  2 -1</clus>
<clus scale="   78.163">  2  5  1 -1</clus>
<clus scale="   34.022">  1  3  2 -1</clus>
</clustering>
</event>
<event>
 6    0  0.9315069E+002  0.1127557E+03  0.7546771E-02  0.1255550E+00
         21   -1    0    0  505  501  0.00000000000E+00  0.00000000000E+00  0.69404272521E+02  0.69404272521E+02  0.00000000000E+00 0.  1.
         21   -1    0    0  504  502 -0.00000000000E+00 -0.00000000000E+00 -0.63614941000E+03  0.63614941000E+03  0.00000000000E+00 0. -1.
         21    1    1    2  503  502 -0.42036446118E+02  0.15131858388E+02 -0.14662880403E+03  0.15328418742E+03  0.00000000000E+00 0.  1.
         21    1    1    2  504  501  0.44016579728E+02  0.46652666873E+02 -0.74661874056E+02  0.98429294698E+02  0.00000000000E+00 0. -1.
         21    1    1    2  505  506  0.65264323593E+02 -0.42115848254E+02  0.21229851961E+02  0.80522563437E+02  0.00000000000E+00 0.  1.
         21    1    1    2  506  503 -0.67244457203E+02 -0.19668677007E+02 -0.36668431135E+03  0.37331763697E+03  0.00000000000E+00 0. -1.
<scales pt_clust_3="34.40462" pt_clust_4="64.13993" pt_clust_5="104.19991" pt_clust_6="34.40462"></scales>
<clustering>
<clus scale="   34.405">  3  6 -1 -1</clus>
<clus scale="   64.140">  1  4  2 -1</clus>
<clus scale="  104.200">  1  5  2 -1</clus>
<clus scale="   64.140">  1  3  2 -1</clus>
</clustering>
</event>
<event>
 6    0  0.9315069E+002  0.1077667E+03  0.7546771E-02  0.1264762E+00
         21   -1    0    0  504  501  0.00000000000E+00  0.00000000000E+00  0.50339002356E+02  0.50339002356E+02  0.00000000000E+00 0.  1.
         21   -1    0    0  503  502 -0.00000000000E+00 -0.00000000000E+00 -0.75830497675E+03  0.75830497675E+03  0.00000000000E+00 0.  1.
         21    1    1    2  503  506  0.40563712001E+02 -0.47197340590E+02 -0.37467453740E+03  0.37980786283E+03  0.00000000000E+00 0.  1.
         21    1    1    2  504  505 -0.15618544930E+02  0.26449996579E+02 -0.38706896439E+02  0.49414219580E+02  0.00000000000E+00 0. -1.
         21    1    1    2  505  502  0.81517122914E+02  0.20741396234E+00 -0.24864314823E+03  0.26166486106E+03  0.00000000000E+00 0.  1.
         21    1    1    2  506  501 -0.10646228998E+03  0.20539930049E+02 -0.45941392326E+02  0.11775703565E+03  0.00000000000E+00 0.  1.
<scales pt_clust_3="60.50891" pt_clust_4="30.71712" pt_clust_5="107.76673" pt_clust_6="14000.00000"></scales>
<clustering>
<clus scale="   30.717">  1  4  2 -1</clus>
<clus scale="   60.509">  2  3  1 -1</clus>
<clus scale="  107.767">  2  5  1 -1</clus>
<clus scale="   30.717">  1  3  2 -1</clus>
</clustering>
</event>
<event>
 6    0  0.9315069E+002  0.1173514E+03  0.7546771E-02  0.1247532E+00
         21   -1    0    0  503  501  0.00000000000E+00  0.00000000000E+00  0.17340373408E+04  0.17340373408E+04  0.00000000000E+00 0. -1.
         21   -1    0    0  506  502 -0.00000000000E+00 -0.00000000000E+00 -0.87829446025E+02  0.87829446025E+02  0.00000000000E+00 0.  1.
         21    1    1    2  503  504  0.55960840651E+01 -0.74209882443E+02  0.10299278486E+04  0.10326130912E+04  0.00000000000E+00 0. -1.
         21    1    1    2  504  502 -0.77162786943E+02  0.91598704462E+02 -0.37535403830E+02  0.12551224995E+03  0.00000000000E+00 0.  1.
         21    1    1    2  505  501  0.39145427712E+02  0.32861545022E+02  0.38345080201E+03  0.38684203910E+03  0.00000000000E+00 0. -1.
         21    1    1    2  506  505  0.32421275165E+02 -0.50250367041E+02  0.27036464805E+03  0.27689940662E+03  0.00000000000E+00 0. -1.
<scales pt_clust_3="117.35138" pt_clust_4="14000.00000" pt_clust_5="51.11013" pt_clust_6="59.40275"></scales>
<clustering>
<clus scale="   51.110">  1  5  2 -1</clus>
<clus scale="   59.403">  1  6  2 -1</clus>
<clus scale="  117.351">  1  3  2 -1</clus>
<clus scale="   51.110">  1  3  2 -1</clus>
</clustering>
</event>
<event>
 6    0  0.9315069E+002  0.1295853E+03  0.7546771E-02  0.1228072E+00
         21   -1    0    0  505  501  0.00000000000E+00  0.00000000000E+00  0.28101422538E+03  0.28101422538E+03  0.00000000000E+00 0. -1.
         21   -1    0    0  503  502 -0.00000000000E+00 -0.00000000000E+00 -0.29282695747E+03  0.29282695747E+03  0.00000000000E+00 0. -1.
         21    1    1    2  503  506 -0.82183001463E+02  0.10242776583E+02 -0.15180098656E+03  0.17292339264E+03  0.00000000000E+00 0. -1.
         21    1    1    2  504  502  0.11991938618E+03  0.94584325704E+01 -0.42380613819E+02  0.12753916088E+03  0.00000000000E+00 0. -1.
         21    1    1    2  505  504  0.68791172002E+02  0.96603904466E+01  0.12273495863E+02  0.70542095161E+02  0.00000000000E+00 0. -1.
         21    1    1    2  506  501 -0.10652755672E+03 -0.29361599600E+02  0.17009537243E+03  0.20283653417E+03  0.00000000000E+00 0. -1.
<scales pt_clust_3="82.81884" pt_clust_4="36.85847" pt_clust_5="36.85847" pt_clust_6="120.16580"></scales>
<clustering>
<clus scale="   36.858">  4  5 -1 -1</clus>
<clus scale="   82.819">  2  3  1 -1</clus>
<clus scale="  120.166">  1  6  2 -1</clus>
<clus scale="  120.166">  1  3  2 -1</clus>
</clustering>
</event>
<event>
 6    0  0.9315069E+002  0.1943285E+03  0.7546771E-02  0.1154614E+00
         21   -1    0    0  505  501  0.00000000000E+00  0.00000000000E+00  0.12383777534E+04  0.12383777534E+04  0.00000000000E+00 0. -1.
         21   -1    0    0  503  502 -0.00000000000E+00 -0.00000000000E+00 -0.12092326665E+03  0.12092326665E+03  0.00000000000E+00 0.  1.
         21    1    1    2  503  501  0.19117989619E+03 -0.25454563392E+02  0.10927629293E+04  0.11096524263E+04  0.00000000000E+00 0. -1.
         21    1    1    2  504  502 -0.34445913208E+02 -0.22867792016E+02 -0.48957457208E+02  0.64080336022E+02  0.00000000000E+00 0.  1.
         21    1    1    2  505  506 -0.81198180804E+02  0.38757001032E+02  0.60186577299E+02  0.10824820452E+03  0.00000000000E+00 0.  1.
         21    1    1    2  506  504 -0.75535802178E+02  0.95653543752E+01  0.13462437399E+02  0.77320053257E+02  0.00000000000E+00 0.  1.
<scales pt_clust_3="188.81941" pt_clust_4="41.34558" pt_clust_5="44.48843" pt_clust_6="44.48843"></scales>
<clustering>
<clus scale="   41.346">  2  4  1 -1</clus>
<clus scale="   44.488">  5  6 -1 -1</clus>
<clus scale="  188.819">  1  3  2 -1</clus>
<clus scale="  188.819">  1  3  2 -1</clus>
</clustering>
</event>
<event>
 6    0  0.9315069E+002  0.1139504E+03  0.7546771E-02  0.1253424E+00
         21   -1    0    0  506  501  0.00000000000E+00  0.00000000000E+00  0.24824515600E+03  0.24824515600E+03  0.00000000000E+00 0.  1.
         21   -1    0    0  503  502 -0.00000000000E+00 -0.00000000000E+00 -0.19060958775E+03  0.19060958775E+03  0.00000000000E+00 0.  1.
         21    1    1    2  503  504  0.72623737722E+02 -0.11070861359E+02 -0.44600774946E+02  0.85941842997E+02  0.00000000000E+00 0.  1.
         21    1    1    2  504  505  0.20813303330E+02  0.85696377619E+02 -0.34181422530E+02  0.94580295933E+02  0.00000000000E+00 0.  1.
         21    1    1    2  505  501  0.14503080694E+02  0.37343269331E+02  0.85944030785E+02  0.94822125801E+02  0.00000000000E+00 0.  1.
         21    1    1    2  506  502 -0.10794012175E+03 -0.11196878559E+03  0.50473734939E+02  0.16351047902E+03  0.00000000000E+00 0.  1.
<scales pt_clust_3="74.77868" pt_clust_4="14000.00000" pt_clust_5="40.06069" pt_clust_6="113.95041"></scales>
<clustering>
<clus scale="   40.061">  1  5  2 -1</clus>
<clus scale="   74.779">  2  3  1 -1</clus>
<clus scale="  113.950">  1  6  2 -1</clus>
<clus scale="   40.061">  1  3  2 -1</clus>
</clustering>
</event>
<event>
 6    0  0.9315069E+002  0.1882341E+03  0.7546771E-02  0.1160064E+00
         21   -1    0    0  506  501  0.00000000000E+00  0.00000000000E+00  0.59719801405E+03  0.59719801405E+03  0.00000000000E+00 0. -1.
         21   -1    0    0  505  502 -0.00000000000E+00 -0.00000000000E+00 -0.53013275465E+03  0.53013275465E+03  0.00000000000E+00 0. -1.
         21    1    1    2  503  501  0.36927860245E+02  0.38632004831E+02 -0.29482791264E+01  0.53523742483E+02  0.00000000000E+00 0.  1.
         21    1    1    2  504  502 -0.18829935940E+03 -0.54568295990E+02 -0.38563101461E+03  0.43260331379E+03  0.00000000000E+00 0. -1.
         21    1    1    2  505  503 -0.36016068961E+02  0.36289742020E+02 -0.67764881944E+02  0.84889232675E+02  0.00000000000E+00 0. -1.
         21    1    1    2  506  504  0.18738756812E+03 -0.20353450862E+02  0.52340943507E+03  0.55631447974E+03  0.00000000000E+00 0. -1.
<scales pt_clust_3="53.62063" pt_clust_4="188.23405" pt_clust_5="51.12830" pt_clust_6="14000.00000"></scales>
<clustering>
<clus scale="   51.128">  2  5  1 -1</clus>
<clus scale="   53.621">  2  3  1 -1</clus>
<clus scale="  188.234">  2  4  1 -1</clus>
<clus scale="  188.234">  1  3  2 -1</clus>
</clustering>
</event>
<event>
 6    0  0.9315069E+002  0.1364196E+03  0.7546771E-02  0.1218230E+00
         21   -1    0    0  506  501  0.00000000000E+00  0.00000000000E+00  0.15395259718E+03  0.15395259718E+03  0.00000000000E+00 0.  1.
         21   -1    0    0  504  502 -0.00000000000E+00 -0.00000000000E+00 -0.10719812897E+04  0.10719812897E+04  0.00000000000E+00 0.  1.
         21    1    1    2  503  501  0.13616666747E+03 -0.20787338912E+02 -0.15828369579E+03  0.20982660256E+03  0.00000000000E+00 0.  1.
         21    1    1    2  504  503  0.35588385224E+02  0.17610060061E+02 -0.79771581408E+03  0.79870342894E+03  0.00000000000E+00 0.  1.
         21    1    1    2  505  502 -0.37820301733E+02  0.37045878334E+02 -0.32700770632E+02  0.62226302515E+02  0.00000000000E+00 0.  1.
         21    1    1    2  506  505 -0.13393475096E+03 -0.33868599482E+02  0.70671588020E+02  0.15517755282E+03  0.00000000000E+00 0.  1.
<scales pt_clust_3="14000.00000" pt_clust_4="39.70702" pt_clust_5="51.08493" pt_clust_6="136.41958"></scales>
<clustering>
<clus scale="   39.707">  2  4  1 -1</clus>
<clus scale="   51.085">  2  5  1 -1</clus>
<clus scale="  136.420">  1  6  2 -1</clus>
<clus scale="  136.420">  1  3  2 -1</clus>
</clustering>
</event>
<event>
 6    0  0.9315069E+002  0.1537205E+03  0.7546771E-02  0.1195974E+00
         21   -1    0    0  506  501  0.00000000000E+00  0.00000000000E+00  0.74106785594E+03  0.74106785594E+03  0.00000000000E+00 0. -1.
         21   -1    0    0  503  502 -0.00000000000E+00 -0.00000000000E+00 -0.26730506521E+03  0.26730506521E+03  0.00000000000E+00 0. -1.
         21    1    1    2  503  501 -0.16634090651E+01  0.14348095551E+03 -0.22613751217E+03  0.26782032398E+03  0.00000000000E+00 0. -1.
         21    1    1    2  504  505  0.76357522008E+01 -0.98361904173E+02  0.18980918437E+03  0.21391796412E+03  0.00000000000E+00 0. -1.
         21    1    1    2  505  502 -0.36550856465E+02 -0.62269544146E+02  0.16942523349E+03  0.18416940837E+03  0.00000000000E+00 0.  1.
         21    1    1    2  506  504  0.30578513329E+02  0.17150492804E+02  0.34066588504E+03  0.34246522467E+03  0.00000000000E+00 0. -1.
<scales pt_clust_3="144.37569" pt_clust_4="42.24144" pt_clust_5="42.24144" pt_clust_6="35.05973"></scales>
<clustering>
<clus scale="   35.060">  1  6  2 -1</clus>
<clus scale="   42.241">  4  5 -1 -1</clus>
<clus scale="  144.376">  2  3  1 -1</clus>
<clus scale="   35.060">  1  3  2 -1</clus>
</clustering>
</event>
<event>
 6    0  0.9315069E+002  0.1160501E+03  0.7546771E-02  0.1249759E+00
         21   -1    0    0  505  501  0.00000000000E+00  0.00000000000E+00  0.10687576462E+03  0.10687576462E+03  0.00000000000E+00 0. -1.
         21   -1    0    0  504  502 -0.00000000000E+00 -0.00000000000E+00 -0.45033621791E+03  0.45033621791E+03  0.00000000000E+00 0. -1.
         21    1    1    2  503  501 -0.49636087434E+02 -0.44009621082E+02  0.24738715610E+02  0.70799660829E+02  0.00000000000E+00 0. -1.
         21    1    1    2  504  503 -0.75589749605E+02 -0.71881396712E+02 -0.12734280101E+03  0.16461146499E+03  0.00000000000E+00 0. -1.
         21    1    1    2  505  506  0.14655197820E+01  0.67708240394E+02 -0.33493063258E+02  0.75553549565E+02  0.00000000000E+00 0. -1.
         21    1    1    2  506  502  0.12376031726E+03  0.48182777400E+02 -0.20736330463E+03  0.24624730714E+03  0.00000000000E+00 0. -1.
<scales pt_clust_3="66.33693" pt_clust_4="14000.00000" pt_clust_5="54.51087" pt_clust_6="116.05007"></scales>
<clustering>
<clus scale="   66.337">  1  3  2 -1</clus>
<clus scale="   54.511">  1  5  2 -1</clus>
<clus scale="  116.050">  1  6  2 -1</clus>
<clus scale="   66.337">  1  3  2 -1</clus>
</clustering>
</event>
<event>
 6    0  0.9315069E+002  0.7623304E+02  0.7546771E-02  0.1340095E+00
         21   -1    0    0  506  501  0.00000000000E+00  0.00000000000E+00  0.26558027619E+04  0.26558027619E+04  0.00000000000E+00 0. -1.
         21   -1    0    0  503  502 -0.00000000000E+00 -0.00000000000E+00 -0.20256532532E+02  0.20256532532E+02  0.00000000000E+00 0.  1.
         21    1    1    2  503  504 -0.10692526126E+03  0.38305855739E+02  0.11714076827E+04  0.11769011467E+04  0.00000000000E+00 0. -1.
         21    1    1    2  504  505  0.36574751466E+02 -0.83714823323E+01  0.44839724450E+03  0.44996431307E+03  0.00000000000E+00 0. -1.
         21    1    1    2  505  501  0.21018035855E+02  0.25844559812E+02  0.94782091787E+03  0.94840613213E+03  0.00000000000E+00 0. -1.
         21    1    1    2  506  502  0.49332473940E+02 -0.55778933218E+02  0.67920384333E+02  0.10078770254E+03  0.00000000000E+00 0.  1.
<scales pt_clust_3="76.23304" pt_clust_4="42.13261" pt_clust_5="33.31215" pt_clust_6="14000.00000"></scales>
<clustering>
<clus scale="   33.312">  1  5  2 -1</clus>
<clus scale="   42.133">  1  4  2 -1</clus>
<clus scale="   76.233">  1  3  2 -1</clus>
<clus scale="   33.312">  1  3  2 -1</clus>
</clustering>
</event>
<event>
 6    0  0.9315069E+002  0.8258546E+02  0.7546771E-02  0.1321870E+00
         21   -1    0    0  506  501  0.00000000000E+00  0.00000000000E+00  0.99725328761E+02  0.99725328761E+02  0.00000000000E+00 0.  1.
         21   -1    0    0  505  502 -0.00000000000E+00 -0.00000000000E+00 -0.54496909643E+03  0.54496909643E+03  0.00000000000E+00 0.  1.
         21    1    1    2  503  502 -0.36279651823E+02  0.76832392397E+02 -0.42096125127E+03  0.42945058473E+03  0.00000000000E+00 0.  1.
         21    1    1    2  504  501 -0.20676450917E+02  0.49180676806E+02 -0.88824233721E+01  0.54084674711E+02  0.00000000000E+00 0.  1.
         21    1    1    2  505  504  0.59318846794E+02 -0.50434540477E+02  0.15647232426E+02  0.79417909445E+02  0.00000000000E+00 0. -1.
         21    1    1    2  506  503 -0.23627440540E+01 -0.75578528726E+02 -0.31047325454E+02  0.81741256302E+02  0.00000000000E+00 0.  1.
<scales pt_clust_3="14000.00000" pt_clust_4="53.35030" pt_clust_5="50.73724" pt_clust_6="82.58546"></scales>
<clustering>
<clus scale="   53.350">  1  4  2 -1</clus>
<clus scale="   50.737">  1  5  2 -1</clus>
<clus scale="   82.585">  1  6  2 -1</clus>
<clus scale="   53.350">  1  3  2 -1</clus>
</clustering>
</event>
<event>
 6    0  0.9315069E+002  0.3689935E+03  0.7546771E-02  0.1055078E+00
         21   -1    0    0  505  501  0.00000000000E+00  0.00000000000E+00  0.16184721430E+03  0.16184721430E+03  0.00000000000E+00 0. -1.
         21   -1    0    0  504  502 -0.00000000000E+00 -0.00000000000E+00 -0.17465608213E+04  0.17465608213E+04  0.00000000000E+00 0. -1.
         21    1    1    2  503  502 -0.64479704581E+02 -0.23311678168E+02 -0.53774520027E+03  0.54209866911E+03  0.00000000000E+00 0. -1.
         21    1    1    2  504  506  0.83224102669E+02  0.66574386640E+02 -0.18136862033E+03  0.21036391483E+03  0.00000000000E+00 0. -1.
         21    1    1    2  505  503 -0.32787363133E+03 -0.76081444893E+02 -0.13626303775E+03  0.36312135690E+03  0.00000000000E+00 0. -1.
         21    1    1    2  506  501  0.30912923324E+03  0.32818736421E+02 -0.72933674866E+03  0.79282409478E+03  0.00000000000E+00 0. -1.
<scales pt_clust_3="68.56432" pt_clust_4="67.22478" pt_clust_5="350.67708" pt_clust_6="67.22478"></scales>
<clustering>
<clus scale="   67.225">  4  6 -1 -1</clus>
<clus scale="   68.564">  2  3  1 -1</clus>
<clus scale="  350.677">  1  5  2 -1</clus>
<clus scale="  350.677">  1  3  2 -1</clus>
</clustering>
</event>
<event>
 6    0  0.9315069E+002  0.1186241E+03  0.7546771E-02  0.1245384E+00
         21   -1    0    0  506  501  0.00000000000E+00  0.00000000000E+00  0.30426099071E+03  0.30426099071E+03  0.00000000000E+00 0.  1.
         21   -1    0    0  505  502 -0.00000000000E+00 -0.00000000000E+00 -0.91911910182E+02  0.91911910182E+02  0.00000000000E+00 0.  1.
         21    1    1    2  503  501 -0.77065980300E+02 -0.76431970091E+01  0.12725252203E+03  0.14896572809E+03  0.00000000000E+00 0.  1.
         21    1    1    2  504  502  0.10547180562E+03  0.19958148931E+02 -0.20076483342E+02  0.10920482898E+03  0.00000000000E+00 0.  1.
         21    1    1    2  505  503 -0.49580575418E+02  0.11204496137E+02  0.37091936572E+02  0.62925240970E+02  0.00000000000E+00 0. -1.
         21    1    1    2  506  504  0.21174750096E+02 -0.23519448059E+02  0.68081105262E+02  0.75077102850E+02  0.00000000000E+00 0.  1.
<scales pt_clust_3="35.03097" pt_clust_4="110.61211" pt_clust_5="35.03097" pt_clust_6="31.64703"></scales>
<clustering>
<clus scale="   31.647">  1  6  2 -1</clus>
<clus scale="   35.031">  3  5 -1 -1</clus>
<clus scale="  110.612">  2  4  1 -1</clus>
<clus scale="   31.647">  1  3  2 -1</clus>
</clustering>
</event>
<event>
 6    0  0.9315069E+002  0.1195405E+03  0.7546771E-02  0.1243857E+00
         21   -1    0    0  504  501  0.00000000000E+00  0.00000000000E+00  0.23328035227E+02  0.23328035227E+02  0.00000000000E+00 0. -1.
         21   -1    0    0  503  502 -0.00000000000E+00 -0.00000000000E+00 -0.12399889816E+04  0.12399889816E+04  0.00000000000E+00 0.  1.
         21    1    1    2  503  505  0.29051200616E+02 -0.18217462336E+02 -0.27771702797E+03  0.27982600989E+03  0.00000000000E+00 0. -1.
         21    1    1    2  504  502 -0.12690294119E+03 -0.25199606612E+02 -0.75626195551E+03  0.76724932194E+03  0.00000000000E+00 0.  1.
         21    1    1    2  505  506  0.51139272520E+02  0.45368156297E+02 -0.97606273356E+02  0.11916576437E+03  0.00000000000E+00 0. -1.
         21    1    1    2  506  501  0.46712468057E+02 -0.19510873487E+01 -0.85075689508E+02  0.97075920594E+02  0.00000000000E+00 0. -1.
<scales pt_clust_3="34.29064" pt_clust_4="111.18524" pt_clust_5="37.07901" pt_clust_6="37.07901"></scales>
<clustering>
<clus scale="   34.291">  2  3  1 -1</clus>
<clus scale="   37.079">  5  6 -1 -1</clus>
<clus scale="  111.185">  2  4  1 -1</clus>
<clus scale="  119.540">  1  3  2 -1</clus>
</clustering>
</event>
<event>
 6    0  0.9315069E+002  0.2102660E+03  0.7546771E-02  0.1141356E+00
         21   -1    0    0  504  501  0.00000000000E+00  0.00000000000E+00  0.43417983256E+03  0.43417983256E+03  0.00000000000E+00 0. -1.
         21   -1    0    0  505  502 -0.00000000000E+00 -0.00000000000E+00 -0.48392771693E+03  0.48392771693E+03  0.00000000000E+00 0. -1.
         21    1    1    2  503  502 -0.10192785339E+03 -0.56318083218E+02 -0.26872161903E+03  0.29286912150E+03  0.00000000000E+00 0. -1.
         21    1    1    2  504  503  0.92521828754E+02 -0.19822065116E+03  0.25022846107E+03  0.33236425511E+03  0.00000000000E+00 0. -1.
         21    1    1    2  505  506 -0.27039217285E+02  0.22227240405E+03 -0.65574582277E+02  0.23331559466E+03  0.00000000000E+00 0. -1.
         21    1    1    2  506  501  0.36445241925E+02  0.32266330332E+02  0.34319855869E+02  0.59558578214E+02  0.00000000000E+00 0.  1.
<scales pt_clust_3="114.97111" pt_clust_4="14000.00000" pt_clust_5="210.26599" pt_clust_6="48.67619"></scales>
<clustering>
<clus scale="   48.676">  1  6  2 -1</clus>
<clus scale="  114.971">  2  3  1 -1</clus>
<clus scale="  210.266">  2  5  1 -1</clus>
<clus scale="   48.676">  1  3  2 -1</clus>
</clustering>
</event>
<event>
 6    0  0.9315069E+002  0.8872236E+02  0.7546771E-02  0.1305976E+00
         21   -1    0    0  503  501  0.00000000000E+00  0.00000000000E+00  0.92064826800E+03  0.92064826800E+03  0.00000000000E+00 0. -1.
         21   -1    0    0  504  502 -0.00000000000E+00 -0.00000000000E+00 -0.84368333001E+03  0.84368333001E+03  0.00000000000E+00 0. -1.
         21    1    1    2  503  505 -0.56930946624E+02 -0.15261026161E+02 -0.17818689938E+03  0.18768218539E+03  0.00000000000E+00 0. -1.
         21    1    1    2  504  506 -0.39662591982E+02  0.23235245660E+02 -0.48489508629E+02  0.66814895724E+02  0.00000000000E+00 0. -1.
         21    1    1    2  505  502  0.13645811081E+03  0.33189209753E+02 -0.59399514780E+03  0.61037085059E+03  0.00000000000E+00 0. -1.
         21    1    1    2  506  501 -0.39864572205E+02 -0.41163429252E+02  0.89763649379E+03  0.89946366631E+03  0.00000000000E+00 0. -1.
<scales pt_clust_3="14000.00000" pt_clust_4="45.96736" pt_clust_5="88.72236" pt_clust_6="57.31550"></scales>
<clustering>
<clus scale="   45.967">  2  4  1 -1</clus>
<clus scale="   57.316">  1  6  2 -1</clus>
<clus scale="   88.722">  2  5  1 -1</clus>
<clus scale="   57.316">  1  3  2 -1</clus>
</clustering>
</event>
<event>
 6    0  0.9315069E+002  0.1829506E+03  0.7546771E-02  0.1164978E+00
         21   -1    0    0  506  501  0.00000000000E+00  0.00000000000E+00  0.22861978868E+03  0.22861978868E+03  0.00000000000E+00 0.  1.
         21   -1    0    0  503  502 -0.00000000000E+00 -0.00000000000E+00 -0.33434924493E+03  0.33434924493E+03  0.00000000000E+00 0.  1.
         21    1    1    2  503  505 -0.46532292046E+02 -0.18696830811E+03 -0.23736916618E+03  0.30572295219E+03  0.00000000000E+00 0.  1.
         21    1    1    2  504  502  0.10891127332E+02  0.64439259802E+02  0.46845324370E+02  0.80408452750E+02  0.00000000000E+00 0.  1.
         21    1    1    2  505  501  0.20118181862E+02  0.73770684569E+02 -0.15379558150E+01  0.76480196465E+02  0.00000000000E+00 0. -1.
         21    1    1    2  506  504  0.15522982852E+02  0.48758363742E+02  0.86332341381E+02  0.10035743221E+03  0.00000000000E+00 0.  1.
<scales pt_clust_3="179.00371" pt_clust_4="33.44489" pt_clust_5="76.46473" pt_clust_6="33.44489"></scales>
<clustering>
<clus scale="   33.445">  4  6 -1 -1</clus>
<clus scale="   76.465">  1  5  2 -1</clus>
<clus scale="  179.004">  2  3  1 -1</clus>
<clus scale="   76.465">  1  3  2 -1</clus>
</clustering>
</event>
<event>
 6    0  0.1886912E+003  0.8414461E+02  0.7546771E-02  0.1317685E+00
         21   -1    0    0  503  501  0.00000000000E+00  0.00000000000E+00  0.27632182996E+04  0.27632182996E+04  0.00000000000E+00 0. -1.
         21   -1    0    0  505  502 -0.00000000000E+00 -0.00000000000E+00 -0.18798603550E+03  0.18798603550E+03  0.00000000000E+00 0.  1.
         21    1    1    2  503  502 -0.82001276712E+02 -0.16922159545E+02  0.12554201252E+03  0.15090184152E+03  0.00000000000E+00 0.  1.
         21    1    1    2  504  501  0.10450340501E+02  0.47488470155E+02  0.21145528752E+04  0.21151118709E+04  0.00000000000E+00 0. -1.
         21    1    1    2  505  506  0.15317129169E+02 -0.59287002317E+02 -0.16763499166E+03  0.17846863455E+03  0.00000000000E+00 0.  1.
         21    1    1    2  506  504  0.56233807042E+02  0.28720691707E+02  0.50277236802E+03  0.50672198810E+03  0.00000000000E+00 0. -1.
<scales pt_clust_3="14000.00000" pt_clust_4="48.62473" pt_clust_5="60.87167" pt_clust_6="84.14461"></scales>
<clustering>
<clus scale="   48.625">  1  4  2 -1</clus>
<clus scale="   60.872">  2  5  1 -1</clus>
<clus scale="   84.145">  1  6  2 -1</clus>
<clus scale="   48.625">  1  3  2 -1</clus>
</clustering>
</event>
<event>
 6    0  0.9315069E+002  0.1848241E+03  0.7546771E-02  0.1163214E+00
         21   -1    0    0  504  501  0.00000000000E+00  0.00000000000E+00  0.13778942059E+04  0.13778942059E+04  0.00000000000E+00 0.  1.
         21   -1    0    0  503  502 -0.00000000000E+00 -0.00000000000E+00 -0.63513356754E+02  0.63513356754E+02  0.00000000000E+00 0. -1.
         21    1    1    2  503  506  0.94947788605E+02 -0.12367413895E+03  0.79542249210E+02  0.17503526678E+03  0.00000000000E+00 0. -1.
         21    1    1    2  504  505 -0.14401621085E+03  0.10575903488E+03  0.87492612179E+03  0.89298452452E+03  0.00000000000E+00 0.  1.
         21    1    1    2  505  502  0.46013660406E+02 -0.13948752827E+02  0.94270661233E+02  0.10582429881E+03  0.00000000000E+00 0. -1.
         21    1    1    2  506  501  0.30547618391E+01  0.31863856899E+02  0.26564181690E+03  0.26756347253E+03  0.00000000000E+00 0.  1.
<scales pt_clust_3="184.82412" pt_clust_4="14000.00000" pt_clust_5="47.59633" pt_clust_6="32.00995"></scales>
<clustering>
<clus scale="   32.010">  1  6  2 -1</clus>
<clus scale="   47.596">  2  5  1 -1</clus>
<clus scale="  184.824">  2  3  1 -1</clus>
<clus scale="   32.010">  1  3  2 -1</clus>
</clustering>
</event>
<event>
 6    0  0.9315069E+002  0.8687299E+02  0.7546771E-02  0.1310606E+00
         21   -1    0    0  504  501  0.00000000000E+00  0.00000000000E+00  0.48899670404E+03  0.48899670404E+03  0.00000000000E+00 0. -1.
         21   -1    0    0  505  502 -0.00000000000E+00 -0.00000000000E+00 -0.19696899902E+04  0.19696899902E+04  0.00000000000E+00 0.  1.
         21    1    1    2  503  501 -0.12319088575E+02 -0.27718479671E+02 -0.59086981846E+01  0.30902860269E+02  0.00000000000E+00 0. -1.
         21    1    1    2  504  502  0.56542331659E+02 -0.46220004344E+02  0.46559540640E+03  0.47128802927E+03  0.00000000000E+00 0. -1.
         21    1    1    2  505  506  0.40863139819E+02  0.35594684380E+01 -0.15567557274E+04  0.15572960094E+04  0.00000000000E+00 0.  1.
         21    1    1    2  506  503 -0.85086382903E+02  0.70379015576E+02 -0.38362426698E+03  0.39919979534E+03  0.00000000000E+00 0.  1.
<scales pt_clust_3="30.33272" pt_clust_4="86.87299" pt_clust_5="41.00956" pt_clust_6="14000.00000"></scales>
<clustering>
<clus scale="   30.333">  1  3  2 -1</clus>
<clus scale="   41.010">  2  5  1 -1</clus>
<clus scale="   86.873">  1  4  2 -1</clus>
<clus scale="   30.333">  1  3  2 -1</clus>
</clustering>
</event>
<event>
 6    0  0.9315069E+002  0.1599544E+03  0.7546771E-02  0.1188748E+00
         21   -1    0    0  506  501  0.00000000000E+00  0.00000000000E+00  0.13247082308E+04  0.13247082308E+04  0.00000000000E+00 0.  1.
         21   -1    0    0  501  502 -0.00000000000E+00 -0.00000000000E+00 -0.11284272207E+03  0.11284272207E+03  0.00000000000E+00 0.  1.
         21    1    1    2  503  502  0.71832759235E+02 -0.49996893070E+02 -0.25740151676E+02  0.91226038083E+02  0.00000000000E+00 0.  1.
         21    1    1    2  504  503  0.72335424042E+02 -0.28694478785E+01 -0.98738031687E+01  0.73062571071E+02  0.00000000000E+00 0.  1.
         21    1    1    2  505  504 -0.12758385689E+03  0.85721265828E+02  0.46154015140E+03  0.48646180458E+03  0.00000000000E+00 0.  1.
         21    1    1    2  506  505 -0.16584326389E+02 -0.32854924880E+02  0.78593931214E+03  0.78680053910E+03  0.00000000000E+00 0.  1.
<scales pt_clust_3="41.76808" pt_clust_4="41.76808" pt_clust_5="153.10891" pt_clust_6="36.80334"></scales>
<clustering>
<clus scale="   36.803">  1  6  2 -1</clus>
<clus scale="   41.768">  3  4 -1 -1</clus>
<clus scale="  153.109">  1  5  2 -1</clus>
<clus scale="   36.803">  1  3  2 -1</clus>
</clustering>
</event>
<event>
 6    0  0.9315069E+002  0.7077222E+02  0.7546771E-02  0.1357487E+00
         21   -1    0    0  505  501  0.00000000000E+00  0.00000000000E+00  0.87865418269E+02  0.87865418269E+02  0.00000000000E+00 0.  1.
         21   -1    0    0  503  502 -0.00000000000E+00 -0.00000000000E+00 -0.14562770295E+04  0.14562770295E+04  0.00000000000E+00 0.  1.
         21    1    1    2  503  506  0.97350606387E+02 -0.33259305688E+02 -0.53565611885E+03  0.54544550566E+03  0.00000000000E+00 0.  1.
         21    1    1    2  504  502 -0.51896851971E+02 -0.10451173015E+02 -0.68016654674E+03  0.68222360086E+03  0.00000000000E+00 0.  1.
         21    1    1    2  505  504 -0.60058990345E+02  0.10414980620E+00 -0.22379189401E+03  0.23171082191E+03  0.00000000000E+00 0.  1.
         21    1    1    2  506  501  0.14605235929E+02  0.43606328897E+02  0.71202948343E+02  0.84762519365E+02  0.00000000000E+00 0.  1.
<scales pt_clust_3="14000.00000" pt_clust_4="50.72265" pt_clust_5="70.77222" pt_clust_6="45.98722"></scales>
<clustering>
<clus scale="   45.987">  1  6  2 -1</clus>
<clus scale="   50.723">  2  4  1 -1</clus>
<clus scale="   70.772">  1  5  2 -1</clus>
<clus scale="   45.987">  1  3  2 -1</clus>
</clustering>
</event>
<event>
 6    0  0.9315069E+002  0.1211738E+03  0.7546771E-02  0.1241173E+00
         21   -1    0    0  503  501  0.00000000000E+00  0.00000000000E+00  0.87326817906E+03  0.87326817906E+03  0.00000000000E+00 0. -1.
         21   -1    0    0  505  502 -0.00000000000E+00 -0.00000000000E+00 -0.26355158828E+02  0.26355158828E+02  0.00000000000E+00 0. -1.
         21    1    1    2  503  504  0.48650381304E+02 -0.12381431611E+02  0.19472667764E+03  0.20109360615E+03  0.00000000000E+00 0. -1.
         21    1    1    2  504  502  0.47671549936E+02  0.25814290088E+02  0.88769136032E+02  0.10401400751E+03  0.00000000000E+00 0. -1.
         21    1    1    2  505  506 -0.11511131335E+03  0.21762193342E+02  0.22421643068E+03  0.25297670902E+03  0.00000000000E+00 0. -1.
         21    1    1    2  506  501  0.18789382107E+02 -0.35195051819E+02  0.33920077589E+03  0.34153901522E+03  0.00000000000E+00 0. -1.
<scales pt_clust_3="53.98474" pt_clust_4="53.98474" pt_clust_5="106.86747" pt_clust_6="39.89652"></scales>
<clustering>
<clus scale="   39.897">  1  6  2 -1</clus>
<clus scale="   53.985">  3  4 -1 -1</clus>
<clus scale="  106.867">  2  5  1 -1</clus>
<clus scale="   39.897">  1  3  2 -1</clus>
</clustering>
</event>
<event>
 6    0  0.9315069E+002  0.1555885E+03  0.7546771E-02  0.1193769E+00
         21   -1    0    0  505  501  0.00000000000E+00  0.00000000000E+00  0.14337305501E+04  0.14337305501E+04  0.00000000000E+00 0. -1.
         21   -1    0    0  506  502 -0.00000000000E+00 -0.00000000000E+00 -0.44715485309E+02  0.44715485309E+02  0.00000000000E+00 0. -1.
         21    1    1    2  503  501  0.35282856131E+02 -0.17827752348E+03  0.94418048552E+03  0.96151159357E+03  0.00000000000E+00 0. -1.
         21    1    1    2  504  503 -0.32171971932E+02  0.14429654761E+02  0.44567092036E+01  0.35540300666E+02  0.00000000000E+00 0. -1.
         21    1    1    2  505  502  0.93218353420E+01  0.12875847960E+03  0.41906352687E+03  0.43849730015E+03  0.00000000000E+00 0.  1.
         21    1    1    2  506  504 -0.12432719541E+02  0.35089389119E+02  0.21314343176E+02  0.42896841014E+02  0.00000000000E+00 0. -1.
<scales pt_clust_3="14000.00000" pt_clust_4="31.48373" pt_clust_5="155.58855" pt_clust_6="74.08264"></scales>
<clustering>
<clus scale="   31.484">  4  6 -1 -1</clus>
<clus scale="   74.083">  2  4  1 -1</clus>
<clus scale="  155.589">  2  5  1 -1</clus>
<clus scale="  155.589">  1  3  2 -1</clus>
</clustering>
</event>
<event>
 6    0  0.9315069E+002  0.9066836E+02  0.7546771E-02  0.1301241E+00
         21   -1    0    0  504  501  0.00000000000E+00  0.00000000000E+00  0.19877694463E+04  0.19877694463E+04  0.00000000000E+00 0.  1.
         21   -1    0    0  506  502 -0.00000000000E+00 -0.00000000000E+00 -0.69426487118E+02  0.69426487118E+02  0.00000000000E+00 0.  1.
         21    1    1    2  503  502 -0.59654309232E+02 -0.48176007345E+02  0.13863641596E+03  0.15842859629E+03  0.00000000000E+00 0. -1.
         21    1    1    2  504  503 -0.23316330093E+02 -0.66609622388E+02  0.42132197339E+03  0.42719164120E+03  0.00000000000E+00 0. -1.
         21    1    1    2  505  501  0.68029108734E+02  0.82023092966E+02  0.14070262747E+04  0.14110558760E+04  0.00000000000E+00 0.  1.
         21    1    1    2  506  505  0.14941530590E+02  0.32762536768E+02 -0.48641704884E+02  0.60519819943E+02  0.00000000000E+00 0.  1.
<scales pt_clust_3="56.24187" pt_clust_4="90.66836" pt_clust_5="14000.00000" pt_clust_6="36.00879"></scales>
<clustering>
<clus scale="   36.009">  2  6  1 -1</clus>
<clus scale="   56.242">  2  3  1 -1</clus>
<clus scale="   90.668">  2  4  1 -1</clus>
<clus scale="   90.668">  1  3  2 -1</clus>
</clustering>
</event>
<event>
 6    0  0.9315069E+002  0.2806677E+03  0.7546771E-02  0.1095325E+00
         21   -1    0    0  502  501  0.00000000000E+00  0.00000000000E+00  0.10733548332E+04  0.10733548332E+04  0.00000000000E+00 0.  1.
         21   -1    0    0  505  502 -0.00000000000E+00 -0.00000000000E+00 -0.98644837732E+02  0.98644837732E+02  0.00000000000E+00 0. -1.
         21    1    1    2  503  501 -0.11737821191E+02  0.30121682290E+02  0.48680132701E+02  0.58436696605E+02  0.00000000000E+00 0. -1.
         21    1    1    2  504  506  0.99120343838E+02  0.45989248609E+02  0.39375223733E+03  0.40863269320E+03  0.00000000000E+00 0.  1.
         21    1    1    2  505  504 -0.21736226598E+03 -0.16582531459E+03  0.20559167182E+03  0.34207064351E+03  0.00000000000E+00 0. -1.
         21    1    1    2  506  503  0.12997974334E+03  0.89714383695E+02  0.32668595366E+03  0.36285963766E+03  0.00000000000E+00 0.  1.
<scales pt_clust_3="32.32789" pt_clust_4="60.24102" pt_clust_5="271.12260" pt_clust_6="60.24102"></scales>
<clustering>
<clus scale="   32.328">  1  3  2 -1</clus>
<clus scale="   60.241">  4  6 -1 -1</clus>
<clus scale="  271.123">  2  5  1 -1</clus>
<clus scale="   32.328">  1  3  2 -1</clus>
</clustering>
</event>
<event>
 6    0  0.9315069E+002  0.1055972E+03  0.7546771E-02  0.1268948E+00
         21   -1    0    0  503  501  0.00000000000E+00  0.00000000000E+00  0.10251295482E+03  0.10251295482E+03  0.00000000000E+00 0. -1.
         21   -1    0    0  506  502 -0.00000000000E+00 -0.00000000000E+00 -0.39137014782E+03  0.39137014782E+03  0.00000000000E+00 0.  1.
         21    1    1    2  503  502 -0.34188875531E+01  0.36678076909E+02 -0.32506203881E+02  0.49128641428E+02  0.00000000000E+00 0. -1.
         21    1    1    2  504  505  0.72058302531E+02  0.37733746498E+02 -0.21620509684E+03  0.23099973699E+03  0.00000000000E+00 0.  1.
         21    1    1    2  505  501 -0.50360180630E+02 -0.99951327618E+02  0.46798495137E+02  0.12131164343E+03  0.00000000000E+00 0. -1.
         21    1    1    2  506  504 -0.18279234349E+02  0.25539504212E+02 -0.86944387416E+02  0.92443080795E+02  0.00000000000E+00 0.  1.
<scales pt_clust_3="40.56383" pt_clust_4="14000.00000" pt_clust_5="105.59717" pt_clust_6="31.40695"></scales>
<clustering>
<clus scale="   31.407">  2  6  1 -1</clus>
<clus scale="   40.564">  2  3  1 -1</clus>
<clus scale="  105.597">  1  5  2 -1</clus>
<clus scale="  105.597">  1  3  2 -1</clus>
</clustering>
</event>
<event>
 6    0  0.9315069E+002  0.1323000E+03  0.7546771E-02  0.1224082E+00
         21   -1    0    0  506  501  0.00000000000E+00  0.00000000000E+00  0.20787415747E+03  0.20787415747E+03  0.00000000000E+00 0.  1.
         21   -1    0    0  504  502 -0.00000000000E+00 -0.00000000000E+00 -0.16586141891E+03  0.16586141891E+03  0.00000000000E+00 0. -1.
         21    1    1    2  503  501  0.83745026817E+02  0.11565063745E+03  0.60651976420E+02  0.15513530128E+03  0.00000000000E+00 0.  1.
         21    1    1    2  504  503 -0.77267140578E+02 -0.88902132573E+02 -0.27808794847E+02  0.12102532487E+03  0.00000000000E+00 0. -1.
         21    1    1    2  505  502  0.22687244399E+02 -0.46114212006E+02 -0.16707418922E+02  0.54040442766E+02  0.00000000000E+00 0. -1.
         21    1    1    2  506  505 -0.29165130638E+02  0.19365707131E+02  0.25876975909E+02  0.43534507463E+02  0.00000000000E+00 0. -1.
<scales pt_clust_3="132.30004" pt_clust_4="14000.00000" pt_clust_5="48.16945" pt_clust_6="35.00908"></scales>
<clustering>
<clus scale="   35.009">  1  6  2 -1</clus>
<clus scale="   48.169">  2  5  1 -1</clus>
<clus scale="  132.300">  1  3  2 -1</clus>
<clus scale="   35.009">  1  3  2 -1</clus>
</clustering>
</event>
<event>
 6    0  0.9315069E+002  0.8505125E+02  0.7546771E-02  0.1315299E+00
         21   -1    0    0  503  501  0.00000000000E+00  0.00000000000E+00  0.18657952519E+04  0.18657952519E+04  0.00000000000E+00 0.  1.
         21   -1    0    0  504  502 -0.00000000000E+00 -0.00000000000E+00 -0.34535888637E+02  0.34535888637E+02  0.00000000000E+00 0.  1.
         21    1    1    2  503  505 -0.36811106653E+02 -0.45221349105E+01  0.17953290315E+03  0.18332367711E+03  0.00000000000E+00 0.  1.
         21    1    1    2  504  506  0.53135159142E+02 -0.12864402697E+03  0.14900830142E+03  0.20390219396E+03  0.00000000000E+00 0.  1.
         21    1    1    2  505  502 -0.22502243195E+02  0.53480282481E+02  0.20853005921E+03  0.21645155845E+03  0.00000000000E+00 0. -1.
         21    1    1    2  506  501  0.61781907057E+01  0.79685879397E+02  0.12941880995E+04  0.12966537110E+04  0.00000000000E+00 0.  1.
<scales pt_clust_3="37.08783" pt_clust_4="14000.00000" pt_clust_5="59.46729" pt_clust_6="85.05125"></scales>
<clustering>
<clus scale="   37.088">  1  3  2 -1</clus>
<clus scale="   59.467">  2  5  1 -1</clus>
<clus scale="   85.051">  1  6  2 -1</clus>
<clus scale="   37.088">  1  3  2 -1</clus>
</clustering>
</event>
<event>
 6    0  0.9315069E+002  0.1881801E+03  0.7546771E-02  0.1160113E+00
         21   -1    0    0  505  501  0.00000000000E+00  0.00000000000E+00  0.21626340275E+04  0.21626340275E+04  0.00000000000E+00 0. -1.
         21   -1    0    0  503  502 -0.00000000000E+00 -0.00000000000E+00 -0.16822158407E+03  0.16822158407E+03  0.00000000000E+00 0.  1.
         21    1    1    2  503  504  0.94818939486E+02 -0.36616201188E+02 -0.13462354974E+03  0.16868573626E+03  0.00000000000E+00 0.  1.
         21    1    1    2  504  501  0.11769097537E+03 -0.55416175988E+02  0.62537657728E+03  0.63876285244E+03  0.00000000000E+00 0. -1.
         21    1    1    2  505  506 -0.98724625247E+02  0.25262368575E+01  0.67735686665E+03  0.68451826733E+03  0.00000000000E+00 0. -1.
         21    1    1    2  506  502 -0.11378528961E+03  0.89506140319E+02  0.82630254928E+03  0.83888875558E+03  0.00000000000E+00 0. -1.
<scales pt_clust_3="101.64338" pt_clust_4="171.06969" pt_clust_5="64.75481" pt_clust_6="64.75481"></scales>
<clustering>
<clus scale="   64.755">  5  6 -1 -1</clus>
<clus scale="  101.643">  2  3  1 -1</clus>
<clus scale="  171.070">  1  4  2 -1</clus>
<clus scale="  171.070">  1  3  2 -1</clus>
</clustering>
</event>
<event>
 6    0  0.9315069E+002  0.1163622E+03  0.7546771E-02  0.1249222E+00
         21   -1    0    0  503  501  0.00000000000E+00  0.00000000000E+00  0.23030014171E+03  0.23030014171E+03  0.00000000000E+00 0.  1.
         21   -1    0    0  504  502 -0.00000000000E+00 -0.00000000000E+00 -0.16498462497E+03  0.16498462497E+03  0.00000000000E+00 0. -1.
         21    1    1    2  503  505 -0.57830941257E+02  0.54817698175E+02 -0.85377362196E+02  0.11678480969E+03  0.00000000000E+00 0. -1.
         21    1    1    2  504  506  0.52309967205E+02 -0.49061408301E+02  0.43483436244E+02  0.83869921194E+02  0.00000000000E+00 0.  1.
         21    1    1    2  505  502 -0.22515816648E+02  0.45204209871E+02 -0.20341004080E+02  0.54443907247E+02  0.00000000000E+00 0. -1.
         21    1    1    2  506  501  0.28036790699E+02 -0.50960499745E+02  0.12755044676E+03  0.14018612855E+03  0.00000000000E+00 0.  1.
<scales pt_clust_3="32.65875" pt_clust_4="108.89099" pt_clust_5="32.65875" pt_clust_6="58.16386"></scales>
<clustering>
<clus scale="   32.659">  3  5 -1 -1</clus>
<clus scale="   58.164">  1  6  2 -1</clus>
<clus scale="  108.891">  1  4  2 -1</clus>
<clus scale="   58.164">  1  3  2 -1</clus>
</clustering>
</event>
<event>
 6    0  0.9315069E+002  0.7776769E+02  0.7546771E-02  0.1335508E+00
         21   -1    0    0  506  501  0.00000000000E+00  0.00000000000E+00  0.23801474905E+03  0.23801474905E+03  0.00000000000E+00 0.  1.
         21   -1    0    0  505  502 -0.00000000000E+00 -0.00000000000E+00 -0.30325850849E+03  0.30325850849E+03  0.00000000000E+00 0. -1.
         21    1    1    2  503  502 -0.23774962322E+02 -0.76986792628E+02 -0.18325979745E+03  0.20019083004E+03  0.00000000000E+00 0. -1.
         21    1    1    2  504  503  0.12249521255E+01  0.97657172626E+02 -0.32373878406E+02  0.10289067925E+03  0.00000000000E+00 0. -1.
         21    1    1    2  505  501 -0.23852030254E+02  0.20944542088E+02 -0.32224744491E+02  0.45233033814E+02  0.00000000000E+00 0.  1.
         21    1    1    2  506  504  0.46402040451E+02 -0.41614922087E+02  0.18261466090E+03  0.19295871443E+03  0.00000000000E+00 0.  1.
<scales pt_clust_3="14000.00000" pt_clust_4="77.76769" pt_clust_5="31.74261" pt_clust_6="61.70879"></scales>
<clustering>
<clus scale="   31.743">  2  5  1 -1</clus>
<clus scale="   61.709">  1  6  2 -1</clus>
<clus scale="   77.768">  1  4  2 -1</clus>
<clus scale="   61.709">  1  3  2 -1</clus>
</clustering>
</event>
<event>
 6    0  0.9315069E+002  0.1357971E+03  0.7546771E-02  0.1219099E+00
         21   -1    0    0  503  501  0.00000000000E+00  0.00000000000E+00  0.11634821563E+04  0.11634821563E+04  0.00000000000E+00 0.  1.
         21   -1    0    0  504  502 -0.00000000000E+00 -0.00000000000E+00 -0.27438111673E+03  0.27438111673E+03  0.00000000000E+00 0. -1.
         21    1    1    2  503  505  0.79017108623E+02 -0.95501648451E+02  0.62330150053E+03  0.63550690702E+03  0.00000000000E+00 0.  1.
         21    1    1    2  504  501 -0.89507806322E+01  0.97879661652E+02  0.35960648869E+03  0.37279668902E+03  0.00000000000E+00 0. -1.
         21    1    1    2  505  506 -0.38941057068E+01 -0.44193280905E+02  0.15891565927E+03  0.16499211162E+03  0.00000000000E+00 0. -1.
         21    1    1    2  506  502 -0.66172222284E+02  0.41815267705E+02 -0.25272260889E+03  0.26456756539E+03  0.00000000000E+00 0. -1.
<scales pt_clust_3="36.76673" pt_clust_4="121.09496" pt_clust_5="36.76673" pt_clust_6="78.27694"></scales>
<clustering>
<clus scale="   36.767">  3  5 -1 -1</clus>
<clus scale="   78.277">  2  6  1 -1</clus>
<clus scale="  121.095">  1  4  2 -1</clus>
<clus scale="  121.095">  1  3  2 -1</clus>
</clustering>
</event>
<event>
 6    0  0.9315069E+002  0.1537579E+03  0.7546771E-02  0.1195930E+00
         21   -1    0    0  506  501  0.00000000000E+00  0.00000000000E+00  0.11764951437E+03  0.11764951437E+03  0.00000000000E+00 0.  1.
         21   -1    0    0  503  502 -0.00000000000E+00 -0.00000000000E+00 -0.26940327467E+03  0.26940327467E+03  0.00000000000E+00 0. -1.
         21    1    1    2  503  501  0.12858035862E+03  0.22040827603E+01 -0.64640182503E+02  0.14393095496E+03  0.00000000000E+00 0.  1.
         21    1    1    2  504  502 -0.53208335635E+02  0.24403667224E+01 -0.65556394252E+02  0.84467290699E+02  0.00000000000E+00 0. -1.
         21    1    1    2  505  504 -0.10930124100E+03 -0.14091381509E+02 -0.41992942323E+02  0.11793530227E+03  0.00000000000E+00 0. -1.
         21    1    1    2  506  505  0.33929218015E+02  0.94469320261E+01  0.20435758772E+02  0.40719241108E+02  0.00000000000E+00 0.  1.
<scales pt_clust_3="144.17576" pt_clust_4="38.61883" pt_clust_5="38.61883" pt_clust_6="35.21983"></scales>
<clustering>
<clus scale="   35.220">  1  6  2 -1</clus>
<clus scale="   38.619">  4  5 -1 -1</clus>
<clus scale="  144.176">  2  3  1 -1</clus>
<clus scale="   35.220">  1  3  2 -1</clus>
</clustering>
</event>
<event>
 6    0  0.9315069E+002  0.1449869E+03  0.7546771E-02  0.1206772E+00
         21   -1    0    0  506  501  0.00000000000E+00  0.00000000000E+00  0.27342334629E+03  0.27342334629E+03  0.00000000000E+00 0. -1.
         21   -1    0    0  503  502 -0.00000000000E+00 -0.00000000000E+00 -0.26392590552E+03  0.26392590552E+03  0.00000000000E+00 0. -1.
         21    1    1    2  503  505  0.39603244547E+02 -0.53879783915E+02 -0.12427075167E+03  0.14111933890E+03  0.00000000000E+00 0. -1.
         21    1    1    2  504  501 -0.74827091472E-01 -0.41944949879E+02  0.16186430650E+03  0.16721075963E+03  0.00000000000E+00 0. -1.
         21    1    1    2  505  504 -0.15511478552E+01 -0.59360683912E+02 -0.35319811651E+02  0.69091142335E+02  0.00000000000E+00 0. -1.
         21    1    1    2  506  502 -0.37977269600E+02  0.15518541771E+03  0.72236975899E+01  0.15992801093E+03  0.00000000000E+00 0. -1.
<scales pt_clust_3="64.93137" pt_clust_4="41.94502" pt_clust_5="64.93137" pt_clust_6="128.73720"></scales>
<clustering>
<clus scale="   41.945">  1  4  2 -1</clus>
<clus scale="   64.931">  3  5 -1 -1</clus>
<clus scale="  128.737">  1  6  2 -1</clus>
<clus scale="   41.945">  1  3  2 -1</clus>
</clustering>
</event>
<event>
 6    0  0.9315069E+002  0.1185683E+03  0.7546771E-02  0.1245478E+00
         21   -1    0    0  503  501  0.00000000000E+00  0.00000000000E+00  0.10308372104E+03  0.10308372104E+03  0.00000000000E+00 0.  1.
         21   -1    0    0  506  502 -0.00000000000E+00 -0.00000000000E+00 -0.57831016532E+03  0.57831016532E+03  0.00000000000E+00 0. -1.
         21    1    1    2  503  505  0.38406917693E+02 -0.60269980105E+02 -0.12184982816E+03  0.14126196392E+03  0.00000000000E+00 0. -1.
         21    1    1    2  504  502 -0.26365016087E+02  0.86060446747E+02 -0.14005091861E+03  0.16648055253E+03  0.00000000000E+00 0. -1.
         21    1    1    2  505  504  0.44155879512E+00 -0.12312469774E+03 -0.24191026610E+03  0.27144145411E+03  0.00000000000E+00 0. -1.
         21    1    1    2  506  501 -0.12483460401E+02  0.97334231094E+02  0.28584568580E+02  0.10220991580E+03  0.00000000000E+00 0.  1.
<scales pt_clust_3="40.74312" pt_clust_4="90.00841" pt_clust_5="40.74312" pt_clust_6="105.82322"></scales>
<clustering>
<clus scale="   40.743">  3  5 -1 -1</clus>
<clus scale="   90.008">  2  4  1 -1</clus>
<clus scale="  105.823">  1  6  2 -1</clus>
<clus scale="  105.823">  1  3  2 -1</clus>
</clustering>
</event>
<event>
 6    0  0.9315069E+002  0.2848457E+03  0.7546771E-02  0.1093071E+00
         21   -1    0    0  502  501  0.00000000000E+00  0.00000000000E+00  0.18135395437E+04  0.18135395437E+04  0.00000000000E+00 0.  1.
         21   -1    0    0  503  502 -0.00000000000E+00 -0.00000000000E+00 -0.16701325528E+03  0.16701325528E+03  0.00000000000E+00 0.  1.
         21    1    1    2  503  505 -0.12241740816E+03  0.38261316264E+01 -0.13915823226E+02  0.12326520693E+03  0.00000000000E+00 0.  1.
         21    1    1    2  504  501 -0.53264606767E+02 -0.59547374807E+02  0.81008771703E+03  0.81401788522E+03  0.00000000000E+00 0.  1.
         21    1    1    2  505  506 -0.69520673240E+02 -0.21999763518E+03  0.26541382253E+03  0.35167681283E+03  0.00000000000E+00 0.  1.
         21    1    1    2  506  504  0.24520268817E+03  0.27571887836E+03  0.58494057210E+03  0.69159289402E+03  0.00000000000E+00 0.  1.
<scales pt_clust_3="125.32663" pt_clust_4="79.89373" pt_clust_5="284.84571" pt_clust_6="14000.00000"></scales>
<clustering>
<clus scale="   79.894">  1  4  2 -1</clus>
<clus scale="  125.327">  2  3  1 -1</clus>
<clus scale="  284.846">  2  5  1 -1</clus>
<clus scale="   79.894">  1  3  2 -1</clus>
</clustering>
</event>
<event>
 6    0  0.9315069E+002  0.3201819E+03  0.7546771E-02  0.1075566E+00
         21   -1    0    0  505  501  0.00000000000E+00  0.00000000000E+00  0.63052775839E+03  0.63052775839E+03  0.00000000000E+00 0.  1.
         21   -1    0    0  501  502 -0.00000000000E+00 -0.00000000000E+00 -0.70831725918E+03  0.70831725918E+03  0.00000000000E+00 0.  1.
         21    1    1    2  503  502  0.13930691704E+03 -0.89424633572E+01 -0.44895607448E+03  0.47015735833E+03  0.00000000000E+00 0.  1.
         21    1    1    2  504  506 -0.23903681529E+03  0.16638283663E+03  0.44920262759E+03  0.53535488045E+03  0.00000000000E+00 0.  1.
         21    1    1    2  505  504 -0.23373661843E+02  0.43488696520E+02  0.45615432873E+02  0.67218766049E+02  0.00000000000E+00 0.  1.
         21    1    1    2  506  503  0.12310356009E+03 -0.20092906979E+03 -0.12365148678E+03  0.26611401274E+03  0.00000000000E+00 0.  1.
<scales pt_clust_3="139.59364" pt_clust_4="30.10079" pt_clust_5="30.10079" pt_clust_6="311.72370"></scales>
<clustering>
<clus scale="   30.101">  4  5 -1 -1</clus>
<clus scale="  139.594">  2  3  1 -1</clus>
<clus scale="  311.724">  2  6  1 -1</clus>
<clus scale="  320.182">  1  3  2 -1</clus>
</clustering>
</event>
<event>
 6    0  0.9315069E+002  0.1259004E+03  0.7546771E-02  0.1233669E+00
         21   -1    0    0  502  501  0.00000000000E+00  0.00000000000E+00  0.19463276432E+03  0.19463276432E+03  0.00000000000E+00 0. -1.
         21   -1    0    0  503  502 -0.00000000000E+00 -0.00000000000E+00 -0.91979305840E+03  0.91979305840E+03  0.00000000000E+00 0.  1.
         21    1    1    2  503  505 -0.53285700878E+02  0.54242261383E+02 -0.29434970709E+03  0.30401207033E+03  0.00000000000E+00 0. -1.
         21    1    1    2  504  501  0.40947632244E+02 -0.19659504765E+02  0.10843712293E+03  0.11756621259E+03  0.00000000000E+00 0. -1.
         21    1    1    2  505  506 -0.76564538753E+02 -0.10999776948E+02 -0.58501922424E+03  0.59011068150E+03  0.00000000000E+00 0.  1.
         21    1    1    2  506  504  0.88902607386E+02 -0.23582979671E+02  0.45771514326E+02  0.10273685830E+03  0.00000000000E+00 0. -1.
<scales pt_clust_3="73.51413" pt_clust_4="45.42251" pt_clust_5="14000.00000" pt_clust_6="125.90036"></scales>
<clustering>
<clus scale="   45.423">  1  4  2 -1</clus>
<clus scale="   73.514">  2  3  1 -1</clus>
<clus scale="  125.900">  1  6  2 -1</clus>
<clus scale="   45.423">  1  3  2 -1</clus>
</clustering>
</event>
<event>
 6    0  0.9315069E+002  0.2345541E+03  0.7546771E-02  0.1123475E+00
         21   -1    0    0  505  501  0.00000000000E+00  0.00000000000E+00  0.13316636623E+04  0.13316636623E+04  0.00000000000E+00 0.  1.
         21   -1    0    0  503  502 -0.00000000000E+00 -0.00000000000E+00 -0.23345816561E+03  0.23345816561E+03  0.00000000000E+00 0.  1.
         21    1    1    2  503  504  0.73792532061E+02 -0.13798129336E+02  0.13390087015E+03  0.15350950846E+03  0.00000000000E+00 0.  1.
         21    1    1    2  504  501  0.16960304595E+03  0.72547160932E+02  0.34117700412E+03  0.38785310608E+03  0.00000000000E+00 0.  1.
         21    1    1    2  505  506 -0.21413861951E+03 -0.12106397595E+02  0.80533926935E+03  0.83341061427E+03  0.00000000000E+00 0.  1.
         21    1    1    2  506  502 -0.29256958501E+02 -0.46642634000E+02 -0.18221164690E+03  0.19034859913E+03  0.00000000000E+00 0.  1.
<scales pt_clust_3="43.64921" pt_clust_4="43.64921" pt_clust_5="224.35234" pt_clust_6="55.05910"></scales>
<clustering>
<clus scale="   43.649">  3  4 -1 -1</clus>
<clus scale="   55.059">  2  6  1 -1</clus>
<clus scale="  224.352">  1  5  2 -1</clus>
<clus scale="  224.352">  1  3  2 -1</clus>
</clustering>
</event>
<event>
 6    0  0.9315069E+002  0.9576337E+02  0.7546771E-02  0.1289466E+00
         21   -1    0    0  506  501  0.00000000000E+00  0.00000000000E+00  0.85251844021E+03  0.85251844021E+03  0.00000000000E+00 0.  1.
         21   -1    0    0  503  502 -0.00000000000E+00 -0.00000000000E+00 -0.94884875176E+02  0.94884875176E+02  0.00000000000E+00 0.  1.
         21    1    1    2  503  501  0.52854827912E+01 -0.86724830806E+02  0.12249738045E+03  0.15018235856E+03  0.00000000000E+00 0.  1.
         21    1    1    2  504  502  0.62926421771E+01  0.37227996119E+02 -0.50563238621E+02  0.63104374971E+02  0.00000000000E+00 0.  1.
         21    1    1    2  505  504 -0.26551422372E+02 -0.47848684892E+02  0.15717793952E+02  0.56934380849E+02  0.00000000000E+00 0.  1.
         21    1    1    2  506  505  0.14973297403E+02  0.97345519579E+02  0.66998162926E+03  0.67718220100E+03  0.00000000000E+00 0.  1.
<scales pt_clust_3="14000.00000" pt_clust_4="37.75607" pt_clust_5="36.08516" pt_clust_6="95.76337"></scales>
<clustering>
<clus scale="   37.756">  2  4  1 -1</clus>
<clus scale="   36.085">  2  5  1 -1</clus>
<clus scale="   95.763">  1  6  2 -1</clus>
<clus scale="   95.763">  1  3  2 -1</clus>
</clustering>
</event>
<event>
 6    0  0.9315069E+002  0.1415532E+03  0.7546771E-02  0.1211254E+00
         21   -1    0    0  503  501  0.00000000000E+00  0.00000000000E+00  0.57300034255E+03  0.57300034255E+03  0.00000000000E+00 0.  1.
         21   -1    0    0  504  502 -0.00000000000E+00 -0.00000000000E+00 -0.12828611751E+04  0.12828611751E+04  0.00000000000E+00 0. -1.
         21    1    1    2  503  506  0.75934838992E+01  0.60630126332E+02  0.38088370170E+03  0.38575389491E+03  0.00000000000E+00 0.  1.
         21    1    1    2  504  501  0.29701579621E+02  0.43967541486E+02 -0.11407823137E+04  0.11420155935E+04  0.00000000000E+00 0. -1.
         21    1    1    2  505  502 -0.10874321033E+03 -0.17147734695E+03 -0.25253866854E+02  0.20461506323E+03  0.00000000000E+00 0.  1.
         21    1    1    2  506  505  0.71448146811E+02  0.66879679135E+02  0.75291646228E+02  0.12347696609E+03  0.00000000000E+00 0.  1.
<scales pt_clust_3="61.91969" pt_clust_4="53.05967" pt_clust_5="141.55317" pt_clust_6="14000.00000"></scales>
<clustering>
<clus scale="   53.060">  2  4  1 -1</clus>
<clus scale="   61.920">  1  3  2 -1</clus>
<clus scale="  141.553">  2  5  1 -1</clus>
<clus scale="   61.920">  1  3  2 -1</clus>
</clustering>
</event>
<event>
 6    0  0.9315069E+002  0.1135528E+03  0.7546771E-02  0.1254129E+00
         21   -1    0    0  503  501  0.00000000000E+00  0.00000000000E+00  0.28604597761E+03  0.28604597761E+03  0.00000000000E+00 0.  1.
         21   -1    0    0  504  502 -0.00000000000E+00 -0.00000000000E+00 -0.19500095802E+03  0.19500095802E+03  0.00000000000E+00 0.  1.
         21    1    1    2  503  506 -0.64627603090E+01 -0.11104455769E+03  0.13130288570E+03  0.17208459796E+03  0.00000000000E+00 0.  1.
         21    1    1    2  504  505 -0.25947745820E+02  0.15536693092E+02 -0.68336418685E+01  0.31006015651E+02  0.00000000000E+00 0.  1.
         21    1    1    2  505  501 -0.43730083153E+02  0.11616911937E+03  0.74123034191E+02  0.14457457821E+03  0.00000000000E+00 0.  1.
         21    1    1    2  506  502  0.76140589283E+02 -0.20661254772E+02 -0.10754725843E+03  0.13338174380E+03  0.00000000000E+00 0.  1.
<scales pt_clust_3="113.55283" pt_clust_4="30.24358" pt_clust_5="14000.00000" pt_clust_6="59.24419"></scales>
<clustering>
<clus scale="   30.244">  2  4  1 -1</clus>
<clus scale="   59.244">  2  6  1 -1</clus>
<clus scale="  113.553">  1  3  2 -1</clus>
<clus scale="  113.553">  1  3  2 -1</clus>
</clustering>
</event>
<event>
 6    0  0.9315069E+002  0.8804226E+02  0.7546771E-02  0.1307663E+00
         21   -1    0    0  504  501  0.00000000000E+00  0.00000000000E+00  0.12275173373E+04  0.12275173373E+04  0.00000000000E+00 0. -1.
         21   -1    0    0  505  502 -0.00000000000E+00 -0.00000000000E+00 -0.30743748259E+03  0.30743748259E+03  0.00000000000E+00 0. -1.
         21    1    1    2  503  506 -0.84023137203E+02  0.40428826787E+02  0.10641242569E+03  0.14148491779E+03  0.00000000000E+00 0. -1.
         21    1    1    2  504  503  0.77220676132E+02 -0.41157198328E+02  0.10385198769E+04  0.10421998285E+04  0.00000000000E+00 0. -1.
         21    1    1    2  505  501  0.45493636939E+02 -0.17368013639E+02  0.51942189676E+02  0.71199086848E+02  0.00000000000E+00 0. -1.
         21    1    1    2  506  502 -0.38691175868E+02  0.18096385180E+02 -0.27679463756E+03  0.28007098676E+03  0.00000000000E+00 0. -1.
<scales pt_clust_3="88.04226" pt_clust_4="14000.00000" pt_clust_5="34.56970" pt_clust_6="42.71401"></scales>
<clustering>
<clus scale="   42.714">  2  6  1 -1</clus>
<clus scale="   34.570">  2  5  1 -1</clus>
<clus scale="   88.042">  2  3  1 -1</clus>
<clus scale="   88.042">  1  3  2 -1</clus>
</clustering>
</event>
<event>
 6    0  0.9315069E+002  0.6014519E+02  0.7546771E-02  0.1397223E+00
         21   -1    0    0  506  501  0.00000000000E+00  0.00000000000E+00  0.12942489013E+04  0.12942489013E+04  0.00000000000E+00 0.  1.
         21   -1    0    0  504  502 -0.00000000000E+00 -0.00000000000E+00 -0.25573918158E+02  0.25573918158E+02  0.00000000000E+00 0. -1.
         21    1    1    2  503  501  0.44421123953E+02  0.18195654732E+02  0.62219065166E+03  0.62403968232E+03  0.00000000000E+00 0.  1.
         21    1    1    2  504  505 -0.48163807588E+02  0.74675573014E+02  0.91020927720E+02  0.12720457087E+03  0.00000000000E+00 0. -1.
         21    1    1    2  505  503 -0.30183869735E+02 -0.68534784211E+02  0.42650394141E+03  0.43302851485E+03  0.00000000000E+00 0.  1.
         21    1    1    2  506  502  0.33926553370E+02 -0.24336443535E+02  0.12895946238E+03  0.13555005143E+03  0.00000000000E+00 0. -1.
<scales pt_clust_3="48.94535" pt_clust_4="60.14519" pt_clust_5="14000.00000" pt_clust_6="41.75253"></scales>
<clustering>
<clus scale="   41.753">  2  6  1 -1</clus>
<clus scale="   48.945">  1  3  2 -1</clus>
<clus scale="   60.145">  2  4  1 -1</clus>
<clus scale="   48.945">  1  3  2 -1</clus>
</clustering>
</event>
<event>
 6    0  0.9315069E+002  0.1102355E+03  0.7546771E-02  0.1260134E+00
         21   -1    0    0  503  501  0.00000000000E+00  0.00000000000E+00  0.14606180059E+04  0.14606180059E+04  0.00000000000E+00 0. -1.
         21   -1    0    0  506  502 -0.00000000000E+00 -0.00000000000E+00 -0.94345786669E+02  0.94345786669E+02  0.00000000000E+00 0. -1.
         21    1    1    2  503  505 -0.41818392676E+02 -0.12028561302E+03  0.11240138009E+04  0.11312048583E+04  0.00000000000E+00 0. -1.
         21    1    1    2  504  501 -0.29990935630E+02  0.40844537860E+02  0.22169762523E+03  0.22741497208E+03  0.00000000000E+00 0. -1.
         21    1    1    2  505  502 -0.33538710907E+02  0.57010712060E+01 -0.41415392856E+02  0.53596474769E+02  0.00000000000E+00 0. -1.
         21    1    1    2  506  504  0.10534803921E+03  0.73740003953E+02  0.61976185890E+02  0.14274748743E+03  0.00000000000E+00 0. -1.
<scales pt_clust_3="14000.00000" pt_clust_4="52.18470" pt_clust_5="34.01981" pt_clust_6="110.23552"></scales>
<clustering>
<clus scale="   34.020">  2  5  1 -1</clus>
<clus scale="   52.185">  1  4  2 -1</clus>
<clus scale="  110.236">  2  6  1 -1</clus>
<clus scale="   52.185">  1  3  2 -1</clus>
</clustering>
</event>
<event>
 6    0  0.9315069E+002  0.1336757E+03  0.7546771E-02  0.1222101E+00
         21   -1    0    0  504  501  0.00000000000E+00  0.00000000000E+00  0.12252696265E+03  0.12252696265E+03  0.00000000000E+00 0. -1.
         21   -1    0    0  506  502 -0.00000000000E+00 -0.00000000000E+00 -0.36601252781E+03  0.36601252781E+03  0.00000000000E+00 0.  1.
         21    1    1    2  503  505  0.53982227826E+02 -0.10025122854E+02 -0.15952205362E+02  0.57175666723E+02  0.00000000000E+00 0.  1.
         21    1    1    2  504  503  0.23966581544E+02 -0.44199954249E+02  0.60046226546E+02  0.78317190379E+02  0.00000000000E+00 0.  1.
         21    1    1    2  505  502  0.39209224634E+02 -0.32763590066E+02 -0.37036470118E+02  0.63107180647E+02  0.00000000000E+00 0.  1.
         21    1    1    2  506  501 -0.11715803400E+03  0.86988667169E+02 -0.25054311623E+03  0.28993945271E+03  0.00000000000E+00 0. -1.
<scales pt_clust_3="32.63790" pt_clust_4="50.27955" pt_clust_5="32.63790" pt_clust_6="129.32345"></scales>
<clustering>
<clus scale="   32.638">  3  5 -1 -1</clus>
<clus scale="   50.280">  1  4  2 -1</clus>
<clus scale="  129.323">  2  6  1 -1</clus>
<clus scale="   50.280">  1  3  2 -1</clus>
</clustering>
</event>
<event>
 6    0  0.9315069E+002  0.7559440E+02  0.7546771E-02  0.1342040E+00
         21   -1    0    0  506  501  0.00000000000E+00  0.00000000000E+00  0.58539120695E+03  0.58539120695E+03  0.00000000000E+00 0.  1.
         21   -1    0    0  505  502 -0.00000000000E+00 -0.00000000000E+00 -0.17816775088E+03  0.17816775088E+03  0.00000000000E+00 0.  1.
         21    1    1    2  503  502 -0.59580881954E+01  0.39984643957E+02 -0.15550161524E+03  0.16067054151E+03  0.00000000000E+00 0.  1.
         21    1    1    2  504  503 -0.45671066358E+02  0.35598842592E+02  0.15572823320E+03  0.16614573877E+03  0.00000000000E+00 0.  1.
         21    1    1    2  505  501  0.92115768309E+02 -0.38663458734E+02  0.21492605359E+03  0.23700925367E+03  0.00000000000E+00 0.  1.
         21    1    1    2  506  504 -0.40486613756E+02 -0.36920027814E+02  0.19207078452E+03  0.19973342388E+03  0.00000000000E+00 0.  1.
<scales pt_clust_3="40.42611" pt_clust_4="75.59440" pt_clust_5="14000.00000" pt_clust_6="50.89689"></scales>
<clustering>
<clus scale="   40.426">  2  3  1 -1</clus>
<clus scale="   50.897">  1  6  2 -1</clus>
<clus scale="   75.594">  1  4  2 -1</clus>
<clus scale="   50.897">  1  3  2 -1</clus>
</clustering>
</event>
<event>
 6    0  0.9315069E+002  0.1930029E+03  0.7546771E-02  0.1155780E+00
         21   -1    0    0  505  501  0.00000000000E+00  0.00000000000E+00  0.22039367681E+03  0.22039367681E+03  0.00000000000E+00 0.  1.
         21   -1    0    0  503  502 -0.00000000000E+00 -0.00000000000E+00 -0.11183962038E+04  0.11183962038E+04  0.00000000000E+00 0. -1.
         21    1    1    2  503  501 -0.24448895110E+01  0.30168888899E+02  0.14254204419E+03  0.14572018976E+03  0.00000000000E+00 0.  1.
         21    1    1    2  504  506  0.10146956003E+03 -0.10575630064E+03 -0.99411365592E+02  0.17709626294E+03  0.00000000000E+00 0.  1.
         21    1    1    2  505  504  0.46621507314E+02 -0.26107011385E+02  0.46664718528E+01  0.53636899121E+02  0.00000000000E+00 0.  1.
         21    1    1    2  506  502 -0.14564617783E+03  0.10169442312E+03 -0.94579967748E+03  0.96233652883E+03  0.00000000000E+00 0. -1.
<scales pt_clust_3="30.26779" pt_clust_4="41.90578" pt_clust_5="41.90578" pt_clust_6="179.74376"></scales>
<clustering>
<clus scale="   30.268">  1  3  2 -1</clus>
<clus scale="   41.906">  4  5 -1 -1</clus>
<clus scale="  179.744">  2  6  1 -1</clus>
<clus scale="   30.268">  1  3  2 -1</clus>
</clustering>
</event>
<event>
 6    0  0.9315069E+002  0.1692293E+03  0.7546771E-02  0.1178654E+00
         21   -1    0    0  504  501  0.00000000000E+00  0.00000000000E+00  0.42707129930E+03  0.42707129930E+03  0.00000000000E+00 0.  1.
         21   -1    0    0  503  502 -0.00000000000E+00 -0.00000000000E+00 -0.18428908115E+03  0.18428908115E+03  0.00000000000E+00 0.  1.
         21    1    1    2  503  501 -0.92610714551E+02 -0.14078744093E+03 -0.42776154823E+02  0.17386100021E+03  0.00000000000E+00 0.  1.
         21    1    1    2  504  505  0.15337458091E+02  0.39516745888E+02  0.18809198409E+03  0.19280924590E+03  0.00000000000E+00 0.  1.
         21    1    1    2  505  506  0.12429762004E+03  0.91029781441E+02  0.11627512492E+03  0.19301871446E+03  0.00000000000E+00 0.  1.
         21    1    1    2  506  502 -0.47024363581E+02  0.10240913601E+02 -0.18808736030E+02  0.51671419882E+02  0.00000000000E+00 0.  1.
<scales pt_clust_3="169.22935" pt_clust_4="42.38881" pt_clust_5="14000.00000" pt_clust_6="47.75844"></scales>
<clustering>
<clus scale="   42.389">  1  4  2 -1</clus>
<clus scale="   47.758">  2  6  1 -1</clus>
<clus scale="  169.229">  2  3  1 -1</clus>
<clus scale="   42.389">  1  3  2 -1</clus>
</clustering>
</event>
<event>
 6    0  0.9315069E+002  0.7830566E+02  0.7546771E-02  0.1333930E+00
         21   -1    0    0  505  501  0.00000000000E+00  0.00000000000E+00  0.37099629521E+03  0.37099629521E+03  0.00000000000E+00 0.  1.
         21   -1    0    0  506  502 -0.00000000000E+00 -0.00000000000E+00 -0.15434320162E+03  0.15434320162E+03  0.00000000000E+00 0.  1.
         21    1    1    2  503  501  0.65324779163E+01 -0.62427196107E+02  0.24377848274E+03  0.25172957063E+03  0.00000000000E+00 0.  1.
         21    1    1    2  504  502  0.26082237463E+02  0.76810678603E+02 -0.11156072453E+03  0.13793461754E+03  0.00000000000E+00 0.  1.
         21    1    1    2  505  504  0.99776382651E+01  0.37652298410E+02  0.31514500658E+02  0.50104017729E+02  0.00000000000E+00 0.  1.
         21    1    1    2  506  503 -0.42592353645E+02 -0.52035780906E+02  0.52920834724E+02  0.85571290930E+02  0.00000000000E+00 0. -1.
<scales pt_clust_3="36.93869" pt_clust_4="78.30566" pt_clust_5="38.95188" pt_clust_6="14000.00000"></scales>
<clustering>
<clus scale="   38.952">  1  5  2 -1</clus>
<clus scale="   36.939">  1  3  2 -1</clus>
<clus scale="   78.306">  2  4  1 -1</clus>
<clus scale="   38.952">  1  3  2 -1</clus>
</clustering>
</event>
<event>
 6    0  0.9315069E+002  0.1247452E+03  0.7546771E-02  0.1235468E+00
         21   -1    0    0  504  501  0.00000000000E+00  0.00000000000E+00  0.12808742768E+04  0.12808742768E+04  0.00000000000E+00 0. -1.
         21   -1    0    0  506  502 -0.00000000000E+00 -0.00000000000E+00 -0.22147677418E+02  0.22147677418E+02  0.00000000000E+00 0. -1.
         21    1    1    2  503  501  0.72888149660E+01 -0.12253242538E+03  0.57954081861E+03  0.59239757134E+03  0.00000000000E+00 0. -1.
         21    1    1    2  504  505  0.10773168419E+02  0.12756704463E+03  0.49094300418E+03  0.50736027179E+03  0.00000000000E+00 0. -1.
         21    1    1    2  505  502 -0.32372972102E+02  0.23972548269E+02  0.13580025594E+03  0.14164886836E+03  0.00000000000E+00 0. -1.
         21    1    1    2  506  503  0.14310988717E+02 -0.29007167518E+02  0.52442520658E+02  0.61615242745E+02  0.00000000000E+00 0. -1.
<scales pt_clust_3="124.74522" pt_clust_4="14000.00000" pt_clust_5="35.57839" pt_clust_6="32.34533"></scales>
<clustering>
<clus scale="   32.345">  2  6  1 -1</clus>
<clus scale="   35.578">  2  5  1 -1</clus>
<clus scale="  124.745">  1  3  2 -1</clus>
<clus scale="  124.745">  1  3  2 -1</clus>
</clustering>
</event>
<event>
 6    0  0.9315069E+002  0.6465278E+03  0.7546771E-02  0.9813316E-01
         21   -1    0    0  504  501  0.00000000000E+00  0.00000000000E+00  0.12318387704E+04  0.12318387704E+04  0.00000000000E+00 0. -1.
         21   -1    0    0  505  502 -0.00000000000E+00 -0.00000000000E+00 -0.65088573263E+03  0.65088573263E+03  0.00000000000E+00 0. -1.
         21    1    1    2  503  502 -0.43589006032E+03  0.38948628059E+03  0.22453190543E+03  0.62619029376E+03  0.00000000000E+00 0. -1.
         21    1    1    2  504  506  0.17075465195E+03 -0.37404318184E+02  0.27257209234E+03  0.32380824527E+03  0.00000000000E+00 0. -1.
         21    1    1    2  505  501  0.37485285940E+02  0.51232521557E+02 -0.31511701500E+03  0.32144774236E+03  0.00000000000E+00 0.  1.
         21    1    1    2  506  503  0.22765012242E+03 -0.40331448396E+03  0.39896605505E+03  0.61127822168E+03  0.00000000000E+00 0. -1.
<scales pt_clust_3="589.52047" pt_clust_4="165.46051" pt_clust_5="63.48163" pt_clust_6="165.46051"></scales>
<clustering>
<clus scale="   63.482">  2  5  1 -1</clus>
<clus scale="  165.461">  4  6 -1 -1</clus>
<clus scale="  589.520">  2  3  1 -1</clus>
<clus scale="  646.528">  1  3  2 -1</clus>
</clustering>
</event>
<event>
 6    0  0.9315069E+002  0.1158203E+03  0.7546771E-02  0.1250156E+00
         21   -1    0    0  505  501  0.00000000000E+00  0.00000000000E+00  0.17748964454E+03  0.17748964454E+03  0.00000000000E+00 0. -1.
         21   -1    0    0  503  502 -0.00000000000E+00 -0.00000000000E+00 -0.12616029235E+03  0.12616029235E+03  0.00000000000E+00 0. -1.
         21    1    1    2  503  501  0.38057166021E+02  0.49769950008E+01  0.62553226463E+02  0.73389539484E+02  0.00000000000E+00 0. -1.
         21    1    1    2  504  502 -0.17392611735E+02 -0.10736621070E+03 -0.32479660564E+02  0.11351182535E+03  0.00000000000E+00 0. -1.
         21    1    1    2  505  506  0.30668125559E+01  0.60833319384E+02  0.30325266915E+02  0.68042045090E+02  0.00000000000E+00 0. -1.
         21    1    1    2  506  504 -0.23731366842E+02  0.41555896317E+02 -0.90694806267E+01  0.48706526972E+02  0.00000000000E+00 0. -1.
<scales pt_clust_3="38.38122" pt_clust_4="105.57699" pt_clust_5="39.55339" pt_clust_6="39.55339"></scales>
<clustering>
<clus scale="   38.381">  1  3  2 -1</clus>
<clus scale="   39.553">  5  6 -1 -1</clus>
<clus scale="  105.577">  2  4  1 -1</clus>
<clus scale="   38.381">  1  3  2 -1</clus>
</clustering>
</event>
<event>
 6    0  0.9315069E+002  0.7941414E+02  0.7546771E-02  0.1330722E+00
         21   -1    0    0  506  501  0.00000000000E+00  0.00000000000E+00  0.44010872402E+02  0.44010872402E+02  0.00000000000E+00 0.  1.
         21   -1    0    0  505  502 -0.00000000000E+00 -0.00000000000E+00 -0.12113716940E+04  0.12113716940E+04  0.00000000000E+00 0.  1.
         21    1    1    2  503  504  0.64204770618E+01  0.76694754138E+02 -0.22849533703E+03  0.24110874493E+03  0.00000000000E+00 0.  1.
         21    1    1    2  504  501 -0.14538192475E+02 -0.61445190987E+02 -0.25200195070E+02  0.67984706864E+02  0.00000000000E+00 0.  1.
         21    1    1    2  505  503 -0.38756501904E+02  0.44308064035E+02 -0.83492983804E+03  0.83700245246E+03  0.00000000000E+00 0.  1.
         21    1    1    2  506  502  0.46874217318E+02 -0.59557627186E+02 -0.78735451441E+02  0.10928666213E+03  0.00000000000E+00 0.  1.
<scales pt_clust_3="14000.00000" pt_clust_4="59.19726" pt_clust_5="58.86655" pt_clust_6="79.41414"></scales>
<clustering>
<clus scale="   58.867">  2  5  1 -1</clus>
<clus scale="   59.197">  1  4  2 -1</clus>
<clus scale="   79.414">  2  6  1 -1</clus>
<clus scale="   59.197">  1  3  2 -1</clus>
</clustering>
</event>
<event>
 6    0  0.9315069E+002  0.8529735E+02  0.7546771E-02  0.1314657E+00
         21   -1    0    0  504  501  0.00000000000E+00  0.00000000000E+00  0.28073990207E+03  0.28073990207E+03  0.00000000000E+00 0.  1.
         21   -1    0    0  506  502 -0.00000000000E+00 -0.00000000000E+00 -0.72077362026E+03  0.72077362026E+03  0.00000000000E+00 0. -1.
         21    1    1    2  503  501  0.24703685036E+02  0.29155734137E+02  0.14283620229E+03  0.14785976319E+03  0.00000000000E+00 0.  1.
         21    1    1    2  504  505 -0.91426730138E+02 -0.36573215121E+02  0.35327670155E+02  0.10461592291E+03  0.00000000000E+00 0.  1.
         21    1    1    2  505  502 -0.14353410608E+02  0.28327797878E+02 -0.65628480220E+03  0.65705268140E+03  0.00000000000E+00 0. -1.
         21    1    1    2  506  503  0.81076455710E+02 -0.20910316894E+02  0.38087211565E+02  0.91985154824E+02  0.00000000000E+00 0.  1.
<scales pt_clust_3="38.71451" pt_clust_4="85.29735" pt_clust_5="31.75665" pt_clust_6="14000.00000"></scales>
<clustering>
<clus scale="   31.757">  2  5  1 -1</clus>
<clus scale="   38.715">  1  3  2 -1</clus>
<clus scale="   85.297">  1  4  2 -1</clus>
<clus scale="   38.715">  1  3  2 -1</clus>
</clustering>
</event>
<event>
 6    0  0.9315069E+002  0.2421752E+03  0.7546771E-02  0.1118352E+00
         21   -1    0    0  504  501  0.00000000000E+00  0.00000000000E+00  0.22719762801E+03  0.22719762801E+03  0.00000000000E+00 0.  1.
         21   -1    0    0  503  502 -0.00000000000E+00 -0.00000000000E+00 -0.42558018950E+03  0.42558018950E+03  0.00000000000E+00 0.  1.
         21    1    1    2  503  505  0.11287124850E+03 -0.13995797228E+03 -0.16293265480E+03  0.24264212895E+03  0.00000000000E+00 0.  1.
         21    1    1    2  504  506  0.42429084662E+01  0.60998567228E+02  0.76954689213E+02  0.98289631539E+02  0.00000000000E+00 0. -1.
         21    1    1    2  505  501  0.12504128861E+02 -0.81456993689E+02 -0.49912685855E+02  0.96347658345E+02  0.00000000000E+00 0. -1.
         21    1    1    2  506  502 -0.12961828583E+03  0.16041639874E+03 -0.62491910057E+02  0.21549839867E+03  0.00000000000E+00 0.  1.
<scales pt_clust_3="47.23290" pt_clust_4="61.14595" pt_clust_5="47.23290" pt_clust_6="231.90832"></scales>
<clustering>
<clus scale="   47.233">  3  5 -1 -1</clus>
<clus scale="   61.146">  1  4  2 -1</clus>
<clus scale="  231.908">  1  6  2 -1</clus>
<clus scale="   61.146">  1  3  2 -1</clus>
</clustering>
</event>
<event>
 6    0  0.9315069E+002  0.6938014E+02  0.7546771E-02  0.1362214E+00
         21   -1    0    0  506  501  0.00000000000E+00  0.00000000000E+00  0.83392179682E+02  0.83392179682E+02  0.00000000000E+00 0.  1.
         21   -1    0    0  503  502 -0.00000000000E+00 -0.00000000000E+00 -0.18383094140E+04  0.18383094140E+04  0.00000000000E+00 0. -1.
         21    1    1    2  503  501 -0.10894243345E+03 -0.19898973690E+02 -0.27897877354E+02  0.11420470446E+03  0.00000000000E+00 0.  1.
         21    1    1    2  504  505  0.47173506437E+02 -0.42488797003E+02 -0.46861029480E+02  0.78908767981E+02  0.00000000000E+00 0.  1.
         21    1    1    2  505  502  0.14161730811E+02  0.49626932157E+02 -0.16784785302E+04  0.16792717360E+04  0.00000000000E+00 0. -1.
         21    1    1    2  506  504  0.47607196207E+02  0.12760838536E+02 -0.16797972617E+01  0.49316385205E+02  0.00000000000E+00 0.  1.
<scales pt_clust_3="69.38014" pt_clust_4="14000.00000" pt_clust_5="51.77744" pt_clust_6="49.28777"></scales>
<clustering>
<clus scale="   49.288">  1  6  2 -1</clus>
<clus scale="   51.777">  2  5  1 -1</clus>
<clus scale="   69.380">  1  3  2 -1</clus>
<clus scale="   49.288">  1  3  2 -1</clus>
</clustering>
</event>
<event>
 6    0  0.9315069E+002  0.1085027E+03  0.7546771E-02  0.1263368E+00
         21   -1    0    0  504  501  0.00000000000E+00  0.00000000000E+00  0.13876065919E+03  0.13876065919E+03  0.00000000000E+00 0. -1.
         21   -1    0    0  501  502 -0.00000000000E+00 -0.00000000000E+00 -0.25362176307E+03  0.25362176307E+03  0.00000000000E+00 0. -1.
         21    1    1    2  503  502  0.63806120925E+02  0.56221802812E+01 -0.16354384571E+03  0.17564002803E+03  0.00000000000E+00 0. -1.
         21    1    1    2  504  505  0.65521556287E+02 -0.40698394072E+01 -0.37013573675E+01  0.65752094852E+02  0.00000000000E+00 0. -1.
         21    1    1    2  505  506 -0.64614392585E+02  0.26584003408E+02  0.16349623074E+02  0.71756805537E+02  0.00000000000E+00 0. -1.
         21    1    1    2  506  503 -0.64713284628E+02 -0.28136344282E+02  0.36034476119E+02  0.79233493839E+02  0.00000000000E+00 0. -1.
<scales pt_clust_3="64.05334" pt_clust_4="91.90709" pt_clust_5="57.38569" pt_clust_6="57.38569"></scales>
<clustering>
<clus scale="   57.386">  5  6 -1 -1</clus>
<clus scale="   64.053">  2  3  1 -1</clus>
<clus scale="   91.907">  1  4  2 -1</clus>
<clus scale="   91.907">  1  3  2 -1</clus>
</clustering>
</event>
<event>
 6    0  0.9315069E+002  0.1354097E+03  0.7546771E-02  0.1219642E+00
         21   -1    0    0  506  501  0.00000000000E+00  0.00000000000E+00  0.12742620354E+03  0.12742620354E+03  0.00000000000E+00 0. -1.
         21   -1    0    0  503  502 -0.00000000000E+00 -0.00000000000E+00 -0.28658816850E+03  0.28658816850E+03  0.00000000000E+00 0.  1.
         21    1    1    2  503  504  0.11341854275E+03  0.81780960377E+02 -0.39206150922E+02  0.14522056876E+03  0.00000000000E+00 0. -1.
         21    1    1    2  504  501  0.51576081577E+01  0.44401582715E+02 -0.12572905540E+02  0.46434679101E+02  0.00000000000E+00 0. -1.
         21    1    1    2  505  502 -0.65130978603E+02 -0.80864048601E+02 -0.11125483521E+03  0.15217975255E+03  0.00000000000E+00 0.  1.
         21    1    1    2  506  505 -0.53445172306E+02 -0.45318494492E+02  0.38719267187E+01  0.70179371629E+02  0.00000000000E+00 0.  1.
<scales pt_clust_3="36.06326" pt_clust_4="36.06326" pt_clust_5="119.44648" pt_clust_6="70.07248"></scales>
<clustering>
<clus scale="   36.063">  3  4 -1 -1</clus>
<clus scale="   70.072">  1  6  2 -1</clus>
<clus scale="  119.446">  2  5  1 -1</clus>
<clus scale="   70.072">  1  3  2 -1</clus>
</clustering>
</event>
<event>
 6    0  0.9315069E+002  0.9293743E+02  0.7546771E-02  0.1295890E+00
         21   -1    0    0  504  501  0.00000000000E+00  0.00000000000E+00  0.21588979581E+04  0.21588979581E+04  0.00000000000E+00 0. -1.
         21   -1    0    0  505  502 -0.00000000000E+00 -0.00000000000E+00 -0.18412054041E+03  0.18412054041E+03  0.00000000000E+00 0. -1.
         21    1    1    2  503  502 -0.11648057214E+03 -0.17718210533E+02 -0.12246782828E+03  0.16994124759E+03  0.00000000000E+00 0. -1.
         21    1    1    2  504  503  0.91788282587E+02 -0.13593490671E+02  0.19619098130E+04  0.19641028451E+04  0.00000000000E+00 0. -1.
         21    1    1    2  505  506 -0.16133983344E+02 -0.40391335821E+02 -0.73872156278E+01  0.44117302532E+02  0.00000000000E+00 0. -1.
         21    1    1    2  506  501  0.40826272900E+02  0.71703037025E+02  0.14272264856E+03  0.16485710324E+03  0.00000000000E+00 0.  1.
<scales pt_clust_3="14000.00000" pt_clust_4="92.93743" pt_clust_5="43.49443" pt_clust_6="79.50157"></scales>
<clustering>
<clus scale="   43.494">  2  5  1 -1</clus>
<clus scale="   79.502">  2  6  1 -1</clus>
<clus scale="   92.937">  1  4  2 -1</clus>
<clus scale="   92.937">  1  3  2 -1</clus>
</clustering>
</event>
<event>
 6    0  0.9315069E+002  0.1064421E+03  0.7546771E-02  0.1267304E+00
         21   -1    0    0  505  501  0.00000000000E+00  0.00000000000E+00  0.19067001794E+04  0.19067001794E+04  0.00000000000E+00 0. -1.
         21   -1    0    0  503  502 -0.00000000000E+00 -0.00000000000E+00 -0.19443200615E+02  0.19443200615E+02  0.00000000000E+00 0. -1.
         21    1    1    2  503  506  0.80492288160E+02  0.10769614359E+03  0.39463870116E+03  0.41691386670E+03  0.00000000000E+00 0. -1.
         21    1    1    2  504  502  0.14981871799E+02 -0.66843642048E+02  0.25916969981E+03  0.26806988318E+03  0.00000000000E+00 0. -1.
         21    1    1    2  505  504 -0.69501836709E+02 -0.70196983907E+02  0.90993739759E+03  0.91528366607E+03  0.00000000000E+00 0. -1.
         21    1    1    2  506  501 -0.25972323250E+02  0.29344482361E+02  0.32351118018E+03  0.32587596402E+03  0.00000000000E+00 0.  1.
<scales pt_clust_3="14000.00000" pt_clust_4="62.86317" pt_clust_5="106.44214" pt_clust_6="39.18750"></scales>
<clustering>
<clus scale="   39.188">  1  6  2 -1</clus>
<clus scale="   62.863">  2  4  1 -1</clus>
<clus scale="  106.442">  1  5  2 -1</clus>
<clus scale="   39.188">  1  3  2 -1</clus>
</clustering>
</event>
<event>
 6    0  0.9315069E+002  0.1616444E+03  0.7546771E-02  0.1186853E+00
         21   -1    0    0  506  501  0.00000000000E+00  0.00000000000E+00  0.58199533675E+03  0.58199533675E+03  0.00000000000E+00 0.  1.
         21   -1    0    0  505  502 -0.00000000000E+00 -0.00000000000E+00 -0.15145254258E+03  0.15145254258E+03  0.00000000000E+00 0.  1.
         21    1    1    2  503  501 -0.11406039678E+02  0.55777317827E+02  0.18041810018E+03  0.18918746733E+03  0.00000000000E+00 0.  1.
         21    1    1    2  504  503  0.18635378708E+02  0.11458592261E+03  0.23638718531E+03  0.26335548671E+03  0.00000000000E+00 0.  1.
         21    1    1    2  505  504  0.44252607966E+02 -0.14814762514E+03 -0.78163051728E+02  0.17324974691E+03  0.00000000000E+00 0.  1.
         21    1    1    2  506  502 -0.51481946996E+02 -0.22215615293E+02  0.91900560408E+02  0.10765517838E+03  0.00000000000E+00 0.  1.
<scales pt_clust_3="31.25970" pt_clust_4="31.25970" pt_clust_5="155.35868" pt_clust_6="56.07071"></scales>
<clustering>
<clus scale="   31.260">  3  4 -1 -1</clus>
<clus scale="   56.071">  1  6  2 -1</clus>
<clus scale="  155.359">  2  5  1 -1</clus>
<clus scale="   56.071">  1  3  2 -1</clus>
</clustering>
</event>
<event>
 6    0  0.9315069E+002  0.1280625E+03  0.7546771E-02  0.1230359E+00
         21   -1    0    0  505  501  0.00000000000E+00  0.00000000000E+00  0.13138537615E+03  0.13138537615E+03  0.00000000000E+00 0.  1.
         21   -1    0    0  504  502 -0.00000000000E+00 -0.00000000000E+00 -0.16646691048E+04  0.16646691048E+04  0.00000000000E+00 0.  1.
         21    1    1    2  503  502  0.76738648547E+02  0.46430614266E+02 -0.10008443678E+04  0.10048552486E+04  0.00000000000E+00 0.  1.
         21    1    1    2  504  506  0.23698951047E+01 -0.30580132469E+02 -0.39057669160E+03  0.39177916346E+03  0.00000000000E+00 0.  1.
         21    1    1    2  505  503  0.25433483487E+02  0.36077463760E+02 -0.24177476751E+03  0.24577120189E+03  0.00000000000E+00 0. -1.
         21    1    1    2  506  501 -0.10454202714E+03 -0.51927945557E+02  0.99912098208E+02  0.15364886702E+03  0.00000000000E+00 0.  1.
<scales pt_clust_3="36.37729" pt_clust_4="30.67183" pt_clust_5="36.37729" pt_clust_6="116.97229"></scales>
<clustering>
<clus scale="   30.672">  2  4  1 -1</clus>
<clus scale="   36.377">  3  5 -1 -1</clus>
<clus scale="  116.972">  1  6  2 -1</clus>
<clus scale="  116.972">  1  3  2 -1</clus>
</clustering>
</event>
<event>
 6    0  0.9315069E+002  0.1093729E+03  0.7546771E-02  0.1261736E+00
         21   -1    0    0  506  501  0.00000000000E+00  0.00000000000E+00  0.87463312674E+03  0.87463312674E+03  0.00000000000E+00 0. -1.
         21   -1    0    0  504  502 -0.00000000000E+00 -0.00000000000E+00 -0.40557938875E+02  0.40557938875E+02  0.00000000000E+00 0.  1.
         21    1    1    2  503  505  0.71261443966E+02 -0.53739903408E+02  0.16370988000E+03  0.18645936668E+03  0.00000000000E+00 0.  1.
         21    1    1    2  504  503  0.42336775059E+02  0.83745676764E-01  0.39627753425E+02  0.57989381590E+02  0.00000000000E+00 0.  1.
         21    1    1    2  505  501 -0.93022638084E+02  0.27852257827E+01  0.60132187032E+03  0.60848086281E+03  0.00000000000E+00 0. -1.
         21    1    1    2  506  502 -0.20575580941E+02  0.50870931949E+02  0.29415684124E+02  0.62261454536E+02  0.00000000000E+00 0.  1.
<scales pt_clust_3="35.28983" pt_clust_4="35.28983" pt_clust_5="96.62797" pt_clust_6="54.87446"></scales>
<clustering>
<clus scale="   35.290">  3  4 -1 -1</clus>
<clus scale="   54.874">  2  6  1 -1</clus>
<clus scale="   96.628">  1  5  2 -1</clus>
<clus scale="   96.628">  1  3  2 -1</clus>
</clustering>
</event>
<event>
 6    0  0.9315069E+002  0.1420859E+03  0.7546771E-02  0.1210549E+00
         21   -1    0    0  504  501  0.00000000000E+00  0.00000000000E+00  0.27062499647E+03  0.27062499647E+03  0.00000000000E+00 0. -1.
         21   -1    0    0  503  502 -0.00000000000E+00 -0.00000000000E+00 -0.12355976861E+03  0.12355976861E+03  0.00000000000E+00 0. -1.
         21    1    1    2  503  501  0.51495408920E+02  0.13653379224E+03  0.11581211634E+02  0.14638093464E+03  0.00000000000E+00 0. -1.
         21    1    1    2  504  505 -0.72706912352E+02 -0.18504630404E+02  0.56901278946E+02  0.94161945582E+02  0.00000000000E+00 0. -1.
         21    1    1    2  505  506  0.37203768552E+02 -0.66863913289E+02  0.58804916624E+02  0.96503479284E+02  0.00000000000E+00 0. -1.
         21    1    1    2  506  502 -0.15992265121E+02 -0.51165248546E+02  0.19777820653E+02  0.57138405580E+02  0.00000000000E+00 0.  1.
<scales pt_clust_3="130.91460" pt_clust_4="75.02477" pt_clust_5="46.22337" pt_clust_6="46.22337"></scales>
<clustering>
<clus scale="   46.223">  5  6 -1 -1</clus>
<clus scale="   75.025">  1  4  2 -1</clus>
<clus scale="  130.915">  2  3  1 -1</clus>
<clus scale="   75.025">  1  3  2 -1</clus>
</clustering>
</event>
<event>
 6    0  0.9315069E+002  0.1312218E+03  0.7546771E-02  0.1225654E+00
         21   -1    0    0  505  501  0.00000000000E+00  0.00000000000E+00  0.34462885229E+02  0.34462885229E+02  0.00000000000E+00 0.  1.
         21   -1    0    0  506  502 -0.00000000000E+00 -0.00000000000E+00 -0.11578070774E+04  0.11578070774E+04  0.00000000000E+00 0.  1.
         21    1    1    2  503  504 -0.66291332833E+02 -0.32815754254E+02 -0.94453980571E+02  0.11997070051E+03  0.00000000000E+00 0.  1.
         21    1    1    2  504  502  0.20375001156E+02  0.24961399672E+02 -0.61264463020E+03  0.61349136511E+03  0.00000000000E+00 0.  1.
         21    1    1    2  505  503 -0.21154003395E+02 -0.62120812874E+02 -0.57670816457E+02  0.87363667062E+02  0.00000000000E+00 0.  1.
         21    1    1    2  506  501  0.67070335072E+02  0.69975167456E+02 -0.35857476494E+03  0.37144422995E+03  0.00000000000E+00 0.  1.
<scales pt_clust_3="53.63504" pt_clust_4="32.22130" pt_clust_5="53.63504" pt_clust_6="118.46191"></scales>
<clustering>
<clus scale="   32.221">  2  4  1 -1</clus>
<clus scale="   53.635">  3  5 -1 -1</clus>
<clus scale="  118.462">  2  6  1 -1</clus>
<clus scale="  131.222">  1  3  2 -1</clus>
</clustering>
</event>
<event>
 6    0  0.9315069E+002  0.1017957E+03  0.7546771E-02  0.1276564E+00
         21   -1    0    0  504  501  0.00000000000E+00  0.00000000000E+00  0.67187888256E+03  0.67187888256E+03  0.00000000000E+00 0.  1.
         21   -1    0    0  506  502 -0.00000000000E+00 -0.00000000000E+00 -0.28955148687E+04  0.28955148687E+04  0.00000000000E+00 0.  1.
         21    1    1    2  503  502 -0.11934476719E+03  0.29771424303E+01 -0.23574943530E+04  0.23605151262E+04  0.00000000000E+00 0.  1.
         21    1    1    2  504  503  0.16992457600E+02 -0.33957511601E+02  0.66237372034E+03  0.66346122841E+03  0.00000000000E+00 0.  1.
         21    1    1    2  505  501  0.53034579247E+02 -0.18665793490E+02 -0.25020227261E+03  0.25644152484E+03  0.00000000000E+00 0. -1.
         21    1    1    2  506  505  0.49317730347E+02  0.49646162661E+02 -0.27831308092E+03  0.28697587182E+03  0.00000000000E+00 0.  1.
<scales pt_clust_3="101.79574" pt_clust_4="37.97178" pt_clust_5="66.36682" pt_clust_6="14000.00000"></scales>
<clustering>
<clus scale="   37.972">  1  4  2 -1</clus>
<clus scale="   66.367">  1  5  2 -1</clus>
<clus scale="  101.796">  2  3  1 -1</clus>
<clus scale="   37.972">  1  3  2 -1</clus>
</clustering>
</event>
<event>
 6    0  0.9315069E+002  0.1048597E+03  0.7546771E-02  0.1270396E+00
         21   -1    0    0  505  501  0.00000000000E+00  0.00000000000E+00  0.92901014695E+02  0.92901014695E+02  0.00000000000E+00 0.  1.
         21   -1    0    0  503  502 -0.00000000000E+00 -0.00000000000E+00 -0.77005039419E+03  0.77005039419E+03  0.00000000000E+00 0. -1.
         21    1    1    2  503  506 -0.10730612113E+03 -0.73288272817E+02 -0.51271135687E+03  0.52892221548E+03  0.00000000000E+00 0. -1.
         21    1    1    2  504  501  0.15866168697E+02 -0.40017912659E+02 -0.22779576715E+02  0.48703980926E+02  0.00000000000E+00 0.  1.
         21    1    1    2  505  502  0.67643280154E+02  0.29124106309E+02  0.39921474025E+02  0.83770824316E+02  0.00000000000E+00 0.  1.
         21    1    1    2  506  504  0.23796672281E+02  0.84182079166E+02 -0.18157991994E+03  0.20155438816E+03  0.00000000000E+00 0.  1.
<scales pt_clust_3="14000.00000" pt_clust_4="43.04845" pt_clust_5="79.93953" pt_clust_6="104.85965"></scales>
<clustering>
<clus scale="   43.048">  1  4  2 -1</clus>
<clus scale="   79.940">  1  5  2 -1</clus>
<clus scale="  104.860">  1  6  2 -1</clus>
<clus scale="   43.048">  1  3  2 -1</clus>
</clustering>
</event>
<event>
 6    0  0.9315069E+002  0.1198002E+03  0.7546771E-02  0.1243427E+00
         21   -1    0    0  504  501  0.00000000000E+00  0.00000000000E+00  0.87170811361E+03  0.87170811361E+03  0.00000000000E+00 0. -1.
         21   -1    0    0  506  502 -0.00000000000E+00 -0.00000000000E+00 -0.43575803762E+02  0.43575803762E+02  0.00000000000E+00 0. -1.
         21    1    1    2  503  501  0.26337032150E+02  0.80022066972E+02  0.39877985007E+03  0.40758132844E+03  0.00000000000E+00 0. -1.
         21    1    1    2  504  505 -0.52492059208E+02 -0.88314721084E+02  0.25879932291E+03  0.27844567832E+03  0.00000000000E+00 0. -1.
         21    1    1    2  505  502  0.21362977503E+02 -0.45542632095E+02  0.16775659100E+03  0.17513646670E+03  0.00000000000E+00 0. -1.
         21    1    1    2  506  503  0.47920495544E+01  0.53835286206E+02  0.27965458660E+01  0.54120443907E+02  0.00000000000E+00 0. -1.
<scales pt_clust_3="97.22188" pt_clust_4="48.98200" pt_clust_5="48.98200" pt_clust_6="54.04814"></scales>
<clustering>
<clus scale="   48.982">  4  5 -1 -1</clus>
<clus scale="   54.048">  2  6  1 -1</clus>
<clus scale="   97.222">  1  3  2 -1</clus>
<clus scale="   97.222">  1  3  2 -1</clus>
</clustering>
</event>
<event>
 6    0  0.9315069E+002  0.8920808E+02  0.7546771E-02  0.1304781E+00
         21   -1    0    0  503  501  0.00000000000E+00  0.00000000000E+00  0.33962014271E+03  0.33962014271E+03  0.00000000000E+00 0.  1.
         21   -1    0    0  505  502 -0.00000000000E+00 -0.00000000000E+00 -0.28694101966E+03  0.28694101966E+03  0.00000000000E+00 0. -1.
         21    1    1    2  503  504 -0.29696689424E+02  0.88294633051E+01  0.23411113627E+03  0.23615223249E+03  0.00000000000E+00 0.  1.
         21    1    1    2  504  506  0.68094558254E+02  0.80380425574E+01 -0.34626396934E+01  0.68654707527E+02  0.00000000000E+00 0.  1.
         21    1    1    2  505  501  0.12437951176E+02  0.61875827372E+02  0.46571907691E+02  0.78436364197E+02  0.00000000000E+00 0.  1.
         21    1    1    2  506  502 -0.50835820006E+02 -0.78743333235E+02 -0.22454128122E+03  0.24331785815E+03  0.00000000000E+00 0. -1.
<scales pt_clust_3="30.98149" pt_clust_4="59.81218" pt_clust_5="89.20808" pt_clust_6="14000.00000"></scales>
<clustering>
<clus scale="   30.981">  1  3  2 -1</clus>
<clus scale="   59.812">  1  4  2 -1</clus>
<clus scale="   89.208">  1  5  2 -1</clus>
<clus scale="   30.981">  1  3  2 -1</clus>
</clustering>
</event>
<event>
 6    0  0.9315069E+002  0.9949104E+02  0.7546771E-02  0.1281370E+00
         21   -1    0    0  506  501  0.00000000000E+00  0.00000000000E+00  0.41261787847E+03  0.41261787847E+03  0.00000000000E+00 0. -1.
         21   -1    0    0  503  502 -0.00000000000E+00 -0.00000000000E+00 -0.12052106475E+03  0.12052106475E+03  0.00000000000E+00 0. -1.
         21    1    1    2  503  504  0.76894048117E+02  0.82312974741E+01  0.17289175298E+03  0.18939906849E+03  0.00000000000E+00 0. -1.
         21    1    1    2  504  505  0.30486900861E+02  0.68586027360E+02  0.11092311704E+03  0.13393069912E+03  0.00000000000E+00 0. -1.
         21    1    1    2  505  501 -0.79516445682E+01 -0.49428055886E+02  0.72656371553E+02  0.88234401948E+02  0.00000000000E+00 0. -1.
         21    1    1    2  506  502 -0.99429304410E+02 -0.27389268949E+02 -0.64374427856E+02  0.12157477366E+03  0.00000000000E+00 0. -1.
<scales pt_clust_3="99.49104" pt_clust_4="57.41378" pt_clust_5="50.06357" pt_clust_6="14000.00000"></scales>
<clustering>
<clus scale="   50.064">  1  5  2 -1</clus>
<clus scale="   57.414">  1  4  2 -1</clus>
<clus scale="   99.491">  1  3  2 -1</clus>
<clus scale="   50.064">  1  3  2 -1</clus>
</clustering>
</event>
<event>
 6    0  0.9315069E+002  0.8601018E+02  0.7546771E-02  0.1312812E+00
         21   -1    0    0  506  501  0.00000000000E+00  0.00000000000E+00  0.51981025980E+03  0.51981025980E+03  0.00000000000E+00 0.  1.
         21   -1    0    0  503  502 -0.00000000000E+00 -0.00000000000E+00 -0.20722949986E+03  0.20722949986E+03  0.00000000000E+00 0. -1.
         21    1    1    2  503  504  0.81142912856E+02  0.22443064503E+02 -0.35932609061E+02  0.91536964364E+02  0.00000000000E+00 0.  1.
         21    1    1    2  504  501  0.34689861633E+02  0.80712193761E+01  0.45484806640E+03  0.45624039123E+03  0.00000000000E+00 0.  1.
         21    1    1    2  505  502 -0.89920111514E+02  0.15665267329E+02 -0.70352055936E+02  0.11524078631E+03  0.00000000000E+00 0. -1.
         21    1    1    2  506  505 -0.25912662974E+02 -0.46179551209E+02 -0.35982641473E+02  0.64021617753E+02  0.00000000000E+00 0. -1.
<scales pt_clust_3="14000.00000" pt_clust_4="35.61644" pt_clust_5="86.01018" pt_clust_6="48.05806"></scales>
<clustering>
<clus scale="   35.616">  1  4  2 -1</clus>
<clus scale="   48.058">  1  6  2 -1</clus>
<clus scale="   86.010">  2  5  1 -1</clus>
<clus scale="   35.616">  1  3  2 -1</clus>
</clustering>
</event>
<event>
 6    0  0.9315069E+002  0.8507540E+02  0.7546771E-02  0.1315235E+00
         21   -1    0    0  504  501  0.00000000000E+00  0.00000000000E+00  0.34783728763E+03  0.34783728763E+03  0.00000000000E+00 0. -1.
         21   -1    0    0  503  502 -0.00000000000E+00 -0.00000000000E+00 -0.15158639368E+03  0.15158639368E+03  0.00000000000E+00 0. -1.
         21    1    1    2  503  505  0.25711718025E+02 -0.33658652345E+02 -0.74034320932E+02  0.85294067774E+02  0.00000000000E+00 0. -1.
         21    1    1    2  504  502  0.65489549523E+02 -0.54308259117E+02  0.25147658032E+03  0.26547832031E+03  0.00000000000E+00 0. -1.
         21    1    1    2  505  506 -0.88185826619E+01  0.54959898885E+02  0.21980698414E+02  0.59845709858E+02  0.00000000000E+00 0. -1.
         21    1    1    2  506  501 -0.82382684886E+02  0.33007012577E+02 -0.31720638534E+01  0.88805583369E+02  0.00000000000E+00 0. -1.
<scales pt_clust_3="42.35561" pt_clust_4="85.07540" pt_clust_5="46.14531" pt_clust_6="14000.00000"></scales>
<clustering>
<clus scale="   42.356">  2  3  1 -1</clus>
<clus scale="   46.145">  2  5  1 -1</clus>
<clus scale="   85.075">  1  4  2 -1</clus>
<clus scale="   85.075">  1  3  2 -1</clus>
</clustering>
</event>
<event>
 6    0  0.9315069E+002  0.1240563E+03  0.7546771E-02  0.1236551E+00
         21   -1    0    0  505  501  0.00000000000E+00  0.00000000000E+00  0.42728857311E+03  0.42728857311E+03  0.00000000000E+00 0.  1.
         21   -1    0    0  503  502 -0.00000000000E+00 -0.00000000000E+00 -0.15268725326E+03  0.15268725326E+03  0.00000000000E+00 0. -1.
         21    1    1    2  503  504  0.65452377711E+02  0.43643001804E+02  0.21051241817E+03  0.22473140314E+03  0.00000000000E+00 0.  1.
         21    1    1    2  504  506  0.55278118325E+02 -0.19710301901E+02  0.72021916016E+02  0.92904912428E+02  0.00000000000E+00 0.  1.
         21    1    1    2  505  502 -0.13306466544E+03  0.15081004418E+02 -0.96308548295E+02  0.16495144243E+03  0.00000000000E+00 0. -1.
         21    1    1    2  506  501  0.12334169409E+02 -0.39013704320E+02  0.88375533960E+02  0.97388068378E+02  0.00000000000E+00 0. -1.
<scales pt_clust_3="124.05632" pt_clust_4="65.28007" pt_clust_5="14000.00000" pt_clust_6="40.91700"></scales>
<clustering>
<clus scale="   40.917">  1  6  2 -1</clus>
<clus scale="   65.280">  1  4  2 -1</clus>
<clus scale="  124.056">  1  3  2 -1</clus>
<clus scale="   40.917">  1  3  2 -1</clus>
</clustering>
</event>
<event>
 6    0  0.9315069E+002  0.1410963E+03  0.7546771E-02  0.1211861E+00
         21   -1    0    0  505  501  0.00000000000E+00  0.00000000000E+00  0.44306459570E+03  0.44306459570E+03  0.00000000000E+00 0.  1.
         21   -1    0    0  504  502 -0.00000000000E+00 -0.00000000000E+00 -0.19892068173E+03  0.19892068173E+03  0.00000000000E+00 0.  1.
         21    1    1    2  503  501 -0.54402670529E+02 -0.54884119206E+01  0.22177843613E+03  0.22841945617E+03  0.00000000000E+00 0.  1.
         21    1    1    2  504  506  0.21255407298E+02 -0.58203870863E+02  0.74452619572E+02  0.96864211575E+02  0.00000000000E+00 0. -1.
         21    1    1    2  505  502  0.61887771163E+02  0.11971914409E+03 -0.14913995549E+03  0.20101118378E+03  0.00000000000E+00 0.  1.
         21    1    1    2  506  503 -0.28740507932E+02 -0.56026861304E+02  0.97052813766E+02  0.11569042589E+03  0.00000000000E+00 0.  1.
<scales pt_clust_3="54.67882" pt_clust_4="51.16847" pt_clust_5="131.32970" pt_clust_6="51.16847"></scales>
<clustering>
<clus scale="   51.168">  4  6 -1 -1</clus>
<clus scale="   54.679">  1  3  2 -1</clus>
<clus scale="  131.330">  2  5  1 -1</clus>
<clus scale="   54.679">  1  3  2 -1</clus>
</clustering>
</event>
<event>
 6    0  0.9315069E+002  0.3339416E+03  0.7546771E-02  0.1069406E+00
         21   -1    0    0  503  501  0.00000000000E+00  0.00000000000E+00  0.50108661297E+03  0.50108661297E+03  0.00000000000E+00 0. -1.
         21   -1    0    0  505  502 -0.00000000000E+00 -0.00000000000E+00 -0.34335597899E+03  0.34335597899E+03  0.00000000000E+00 0. -1.
         21    1    1    2  503  506 -0.17839813073E+03 -0.24832484515E+03  0.86166196198E+02  0.31767237074E+03  0.00000000000E+00 0. -1.
         21    1    1    2  504  501  0.11925945881E+03  0.13643846643E+03  0.18396141647E+03  0.25822485625E+03  0.00000000000E+00 0. -1.
         21    1    1    2  505  504  0.97740156911E+02  0.90365054870E+02  0.14758468918E+02  0.13392831597E+03  0.00000000000E+00 0. -1.
         21    1    1    2  506  502 -0.38601484994E+02  0.21521323848E+02 -0.12715544760E+03  0.13461704899E+03  0.00000000000E+00 0. -1.
<scales pt_clust_3="309.43687" pt_clust_4="106.69379" pt_clust_5="106.69379" pt_clust_6="44.19550"></scales>
<clustering>
<clus scale="   44.195">  2  6  1 -1</clus>
<clus scale="  106.694">  4  5 -1 -1</clus>
<clus scale="  309.437">  2  3  1 -1</clus>
<clus scale="  333.942">  1  3  2 -1</clus>
</clustering>
</event>
<event>
 6    0  0.9315069E+002  0.1199243E+03  0.7546771E-02  0.1243222E+00
         21   -1    0    0  504  501  0.00000000000E+00  0.00000000000E+00  0.44591737412E+03  0.44591737412E+03  0.00000000000E+00 0.  1.
         21   -1    0    0  503  502 -0.00000000000E+00 -0.00000000000E+00 -0.17328131830E+03  0.17328131830E+03  0.00000000000E+00 0. -1.
         21    1    1    2  503  505  0.20903392874E+02  0.31492506807E+02 -0.13867453801E+01  0.37823972311E+02  0.00000000000E+00 0.  1.
         21    1    1    2  504  506 -0.11533296672E+03  0.72040239256E+02  0.29383164265E+03  0.32377233283E+03  0.00000000000E+00 0.  1.
         21    1    1    2  505  501  0.10322311044E+03  0.12354575995E+02  0.56741309560E+02  0.11843657496E+03  0.00000000000E+00 0.  1.
         21    1    1    2  506  502 -0.87935365935E+01 -0.11588732206E+03 -0.76550151005E+02  0.13916581232E+03  0.00000000000E+00 0. -1.
<scales pt_clust_3="37.79854" pt_clust_4="119.92434" pt_clust_5="14000.00000" pt_clust_6="93.96820"></scales>
<clustering>
<clus scale="   37.799">  2  3  1 -1</clus>
<clus scale="   93.968">  2  6  1 -1</clus>
<clus scale="  119.924">  1  4  2 -1</clus>
<clus scale="  119.924">  1  3  2 -1</clus>
</clustering>
</event>
<event>
 6    0  0.9315069E+002  0.9152252E+02  0.7546771E-02  0.1299206E+00
         21   -1    0    0  506  501  0.00000000000E+00  0.00000000000E+00  0.19089166402E+02  0.19089166402E+02  0.00000000000E+00 0. -1.
         21   -1    0    0  504  502 -0.00000000000E+00 -0.00000000000E+00 -0.17185964774E+04  0.17185964774E+04  0.00000000000E+00 0. -1.
         21    1    1    2  503  502 -0.67807101811E+02  0.20903520493E+02 -0.62321886198E+03  0.62724517547E+03  0.00000000000E+00 0. -1.
         21    1    1    2  504  501 -0.14233345916E+02  0.44437443156E+02 -0.21614637736E+03  0.22112559991E+03  0.00000000000E+00 0.  1.
         21    1    1    2  505  503  0.12833879883E+03  0.13585335529E+02 -0.59475314819E+03  0.60859404853E+03  0.00000000000E+00 0. -1.
         21    1    1    2  506  505 -0.46298351102E+02 -0.78926299179E+02 -0.26538892342E+03  0.28072081984E+03  0.00000000000E+00 0. -1.
<scales pt_clust_3="74.33834" pt_clust_4="46.66127" pt_clust_5="91.52252" pt_clust_6="14000.00000"></scales>
<clustering>
<clus scale="   46.661">  1  4  2 -1</clus>
<clus scale="   74.338">  2  3  1 -1</clus>
<clus scale="   91.523">  2  5  1 -1</clus>
<clus scale="   46.661">  1  3  2 -1</clus>
</clustering>
</event>
<event>
 6    0  0.9315069E+002  0.1034450E+03  0.7546771E-02  0.1273214E+00
         21   -1    0    0  505  501  0.00000000000E+00  0.00000000000E+00  0.68963614081E+03  0.68963614081E+03  0.00000000000E+00 0.  1.
         21   -1    0    0  504  502 -0.00000000000E+00 -0.00000000000E+00 -0.24748010836E+03  0.24748010836E+03  0.00000000000E+00 0. -1.
         21    1    1    2  503  501  0.22834880268E+02 -0.21820536222E+02  0.19861337274E+02  0.37310055966E+02  0.00000000000E+00 0.  1.
         21    1    1    2  504  506  0.39096470011E+02  0.38098332876E+02 -0.17602789817E+03  0.18429823078E+03  0.00000000000E+00 0. -1.
         21    1    1    2  505  502 -0.12821553529E+03 -0.18098967775E+02  0.62918310043E+03  0.64236918512E+03  0.00000000000E+00 0.  1.
         21    1    1    2  506  503  0.66284185015E+02  0.18211711208E+01 -0.30860507086E+02  0.73138777300E+02  0.00000000000E+00 0.  1.
<scales pt_clust_3="31.58429" pt_clust_4="54.59693" pt_clust_5="14000.00000" pt_clust_6="103.44503"></scales>
<clustering>
<clus scale="   31.584">  1  3  2 -1</clus>
<clus scale="   54.597">  2  4  1 -1</clus>
<clus scale="  103.445">  2  6  1 -1</clus>
<clus scale="   31.584">  1  3  2 -1</clus>
</clustering>
</event>
<event>
 6    0  0.9315069E+002  0.7837833E+02  0.7546771E-02  0.1333718E+00
         21   -1    0    0  503  501  0.00000000000E+00  0.00000000000E+00  0.16513282699E+03  0.16513282699E+03  0.00000000000E+00 0. -1.
         21   -1    0    0  504  502 -0.00000000000E+00 -0.00000000000E+00 -0.24358361989E+03  0.24358361989E+03  0.00000000000E+00 0. -1.
         21    1    1    2  503  502  0.87450855168E+02  0.44416306969E+02 -0.87625434360E+02  0.13152443553E+03  0.00000000000E+00 0. -1.
         21    1    1    2  504  505 -0.26750775925E+02 -0.15939807233E+02 -0.56251076466E+02  0.64295140336E+02  0.00000000000E+00 0. -1.
         21    1    1    2  505  506 -0.28921231418E+02 -0.73157933156E+02 -0.44265015386E+02  0.90265787525E+02  0.00000000000E+00 0. -1.
         21    1    1    2  506  501 -0.31778847825E+02  0.44681433420E+02  0.10969073332E+03  0.12263108349E+03  0.00000000000E+00 0. -1.
<scales pt_clust_3="78.37833" pt_clust_4="31.13971" pt_clust_5="14000.00000" pt_clust_6="54.92967"></scales>
<clustering>
<clus scale="   31.140">  2  4  1 -1</clus>
<clus scale="   54.930">  1  6  2 -1</clus>
<clus scale="   78.378">  2  3  1 -1</clus>
<clus scale="   54.930">  1  3  2 -1</clus>
</clustering>
</event>
<event>
 6    0  0.9315069E+002  0.9172725E+02  0.7546771E-02  0.1298722E+00
         21   -1    0    0  503  501  0.00000000000E+00  0.00000000000E+00  0.84625019750E+03  0.84625019750E+03  0.00000000000E+00 0. -1.
         21   -1    0    0  505  502 -0.00000000000E+00 -0.00000000000E+00 -0.35587517512E+03  0.35587517512E+03  0.00000000000E+00 0.  1.
         21    1    1    2  503  502  0.44499373827E+02 -0.19277816274E+02  0.76448705845E+02  0.90533049748E+02  0.00000000000E+00 0. -1.
         21    1    1    2  504  506  0.71849219631E+02  0.60524464772E+02  0.17672038658E+03  0.20013899228E+03  0.00000000000E+00 0. -1.
         21    1    1    2  505  504 -0.21549639098E+02 -0.32009478726E+02 -0.33204967556E+03  0.33428428129E+03  0.00000000000E+00 0.  1.
         21    1    1    2  506  501 -0.94798954360E+02 -0.92371697717E+01  0.56925560552E+03  0.57716904930E+03  0.00000000000E+00 0. -1.
<scales pt_clust_3="47.78062" pt_clust_4="14000.00000" pt_clust_5="38.58748" pt_clust_6="91.72725"></scales>
<clustering>
<clus scale="   38.587">  2  5  1 -1</clus>
<clus scale="   47.781">  2  3  1 -1</clus>
<clus scale="   91.727">  1  6  2 -1</clus>
<clus scale="   91.727">  1  3  2 -1</clus>
</clustering>
</event>
<event>
 6    0  0.9315069E+002  0.1212991E+03  0.7546771E-02  0.1240969E+00
         21   -1    0    0  503  501  0.00000000000E+00  0.00000000000E+00  0.42859296161E+02  0.42859296161E+02  0.00000000000E+00 0.  1.
         21   -1    0    0  505  502 -0.00000000000E+00 -0.00000000000E+00 -0.71825505227E+03  0.71825505227E+03  0.00000000000E+00 0.  1.
         21    1    1    2  503  506 -0.35910736919E+02  0.53564316832E+02 -0.75256592957E+02  0.99107375342E+02  0.00000000000E+00 0.  1.
         21    1    1    2  504  502 -0.24375832216E+02 -0.43736285397E+02 -0.37637986042E+03  0.37969572448E+03  0.00000000000E+00 0.  1.
         21    1    1    2  505  501  0.11505740952E+03 -0.87630531589E+01 -0.17073265536E+03  0.20606949845E+03  0.00000000000E+00 0.  1.
         21    1    1    2  506  504 -0.54770840389E+02 -0.10649782766E+01 -0.53026647377E+02  0.76241750162E+02  0.00000000000E+00 0.  1.
<scales pt_clust_3="57.36440" pt_clust_4="50.07039" pt_clust_5="106.78047" pt_clust_6="57.36440"></scales>
<clustering>
<clus scale="   50.070">  2  4  1 -1</clus>
<clus scale="   57.364">  3  6 -1 -1</clus>
<clus scale="  106.780">  2  5  1 -1</clus>
<clus scale="  121.299">  1  3  2 -1</clus>
</clustering>
</event>
<event>
 6    0  0.9315069E+002  0.1003128E+03  0.7546771E-02  0.1279640E+00
         21   -1    0    0  504  501  0.00000000000E+00  0.00000000000E+00  0.32195520657E+03  0.32195520657E+03  0.00000000000E+00 0. -1.
         21   -1    0    0  506  502 -0.00000000000E+00 -0.00000000000E+00 -0.23976204742E+04  0.23976204742E+04  0.00000000000E+00 0.  1.
         21    1    1    2  503  505  0.94953074051E+02 -0.56121985795E+02 -0.81074311889E+03  0.81821156701E+03  0.00000000000E+00 0.  1.
         21    1    1    2  504  503  0.18890542832E+02  0.98574126192E+02  0.30687813917E+03  0.32287443886E+03  0.00000000000E+00 0. -1.
         21    1    1    2  505  502 -0.81373046224E+02 -0.32837923389E+02 -0.14304732015E+04  0.14331620572E+04  0.00000000000E+00 0.  1.
         21    1    1    2  506  501 -0.32470570659E+02 -0.96142170081E+01 -0.14132708638E+03  0.14532761772E+03  0.00000000000E+00 0. -1.
<scales pt_clust_3="14000.00000" pt_clust_4="100.31275" pt_clust_5="93.67813" pt_clust_6="33.86401"></scales>
<clustering>
<clus scale="   33.864">  2  6  1 -1</clus>
<clus scale="  100.313">  1  4  2 -1</clus>
<clus scale="   93.678">  2  5  1 -1</clus>
<clus scale="  100.313">  1  3  2 -1</clus>
</clustering>
</event>
<event>
 6    0  0.9315069E+002  0.2683021E+03  0.7546771E-02  0.1102255E+00
         21   -1    0    0  506  501  0.00000000000E+00  0.00000000000E+00  0.73985563968E+03  0.73985563968E+03  0.00000000000E+00 0. -1.
         21   -1    0    0  505  502 -0.00000000000E+00 -0.00000000000E+00 -0.84769299276E+03  0.84769299276E+03  0.00000000000E+00 0. -1.
         21    1    1    2  503  501 -0.13248321431E+03 -0.22644229653E+03  0.41562432098E+03  0.49149922880E+03  0.00000000000E+00 0. -1.
         21    1    1    2  504  503  0.20525238191E+03  0.20275761353E+03  0.15478914591E+03  0.32741238494E+03  0.00000000000E+00 0. -1.
         21    1    1    2  505  504  0.47404674506E+02  0.34788341217E+01 -0.63877621398E+03  0.64054223670E+03  0.00000000000E+00 0. -1.
         21    1    1    2  506  502 -0.12017384211E+03  0.20205848874E+02 -0.39474605976E+02  0.12809478199E+03  0.00000000000E+00 0. -1.
<scales pt_clust_3="268.30209" pt_clust_4="14000.00000" pt_clust_5="47.53215" pt_clust_6="103.36534"></scales>
<clustering>
<clus scale="   47.532">  2  5  1 -1</clus>
<clus scale="  103.365">  2  6  1 -1</clus>
<clus scale="  268.302">  1  3  2 -1</clus>
<clus scale="  268.302">  1  3  2 -1</clus>
</clustering>
</event>
<event>
 6    0  0.9315069E+002  0.9250476E+02  0.7546771E-02  0.1296897E+00
         21   -1    0    0  506  501  0.00000000000E+00  0.00000000000E+00  0.61026829122E+03  0.61026829122E+03  0.00000000000E+00 0. -1.
         21   -1    0    0  505  502 -0.00000000000E+00 -0.00000000000E+00 -0.31778508609E+03  0.31778508609E+03  0.00000000000E+00 0. -1.
         21    1    1    2  503  504 -0.73932618708E+02  0.12984837803E+01 -0.11202725556E+02  0.74787828081E+02  0.00000000000E+00 0. -1.
         21    1    1    2  504  502  0.52250191099E+02 -0.86460055094E+01 -0.25279519067E+03  0.25828326370E+03  0.00000000000E+00 0. -1.
         21    1    1    2  505  501  0.62083665043E+02  0.38774382188E+02  0.53414325675E+03  0.53913528256E+03  0.00000000000E+00 0. -1.
         21    1    1    2  506  503 -0.40401237433E+02 -0.31426860459E+02  0.22337864610E+02  0.55847002962E+02  0.00000000000E+00 0.  1.
<scales pt_clust_3="45.27695" pt_clust_4="52.96070" pt_clust_5="74.80383" pt_clust_6="45.27695"></scales>
<clustering>
<clus scale="   45.277">  3  6 -1 -1</clus>
<clus scale="   52.961">  2  4  1 -1</clus>
<clus scale="   74.804">  1  5  2 -1</clus>
<clus scale="   74.804">  1  3  2 -1</clus>
</clustering>
</event>
<event>
 6    0  0.9315069E+002  0.6967768E+02  0.7546771E-02  0.1361193E+00
         21   -1    0    0  503  501  0.00000000000E+00  0.00000000000E+00  0.12379673500E+04  0.12379673500E+04  0.00000000000E+00 0. -1.
         21   -1    0    0  506  502 -0.00000000000E+00 -0.00000000000E+00 -0.30854265773E+02  0.30854265773E+02  0.00000000000E+00 0. -1.
         21    1    1    2  503  504  0.41952335810E+02 -0.28547872893E+01  0.71104851718E+03  0.71229077073E+03  0.00000000000E+00 0. -1.
         21    1    1    2  504  505  0.25683994446E+02 -0.71247835090E+02  0.20130498990E+03  0.21508049780E+03  0.00000000000E+00 0. -1.
         21    1    1    2  505  502 -0.81687759436E+02  0.66509935042E+01  0.74828439475E+02  0.11097937245E+03  0.00000000000E+00 0. -1.
         21    1    1    2  506  501  0.14051429180E+02  0.67451628875E+02  0.21993113772E+03  0.23047097483E+03  0.00000000000E+00 0.  1.
<scales pt_clust_3="42.04936" pt_clust_4="69.67768" pt_clust_5="14000.00000" pt_clust_6="73.55675"></scales>
<clustering>
<clus scale="   42.049">  1  3  2 -1</clus>
<clus scale="   73.557">  1  6  2 -1</clus>
<clus scale="   69.678">  1  4  2 -1</clus>
<clus scale="   42.049">  1  3  2 -1</clus>
</clustering>
</event>
<event>
 6    0  0.9315069E+002  0.2692836E+03  0.7546771E-02  0.1101690E+00
         21   -1    0    0  503  501  0.00000000000E+00  0.00000000000E+00  0.35824492253E+03  0.35824492253E+03  0.00000000000E+00 0.  1.
         21   -1    0    0  506  502 -0.00000000000E+00 -0.00000000000E+00 -0.12746887272E+04  0.12746887272E+04  0.00000000000E+00 0.  1.
         21    1    1    2  503  504 -0.17536182503E+03 -0.19597882263E+03  0.19169714206E+03  0.32543396084E+03  0.00000000000E+00 0.  1.
         21    1    1    2  504  505 -0.15138336032E+03  0.93546450166E+02 -0.14422323875E+03  0.22905938688E+03  0.00000000000E+00 0. -1.
         21    1    1    2  505  502 -0.71427925827E+02  0.27387096022E+00 -0.17050786207E+03  0.18486469274E+03  0.00000000000E+00 0.  1.
         21    1    1    2  506  501  0.39817311117E+03  0.10215850151E+03 -0.79340984587E+03  0.89357560923E+03  0.00000000000E+00 0.  1.
<scales pt_clust_3="269.28360" pt_clust_4="188.42415" pt_clust_5="71.42845" pt_clust_6="14000.00000"></scales>
<clustering>
<clus scale="   71.428">  2  5  1 -1</clus>
<clus scale="  188.424">  2  4  1 -1</clus>
<clus scale="  269.284">  1  3  2 -1</clus>
<clus scale="  269.284">  1  3  2 -1</clus>
</clustering>
</event>
<event>
 6    0  0.9315069E+002  0.7607700E+02  0.7546771E-02  0.1340568E+00
         21   -1    0    0  506  501  0.00000000000E+00  0.00000000000E+00  0.10773573135E+04  0.10773573135E+04  0.00000000000E+00 0. -1.
         21   -1    0    0  505  502 -0.00000000000E+00 -0.00000000000E+00 -0.11083969294E+03  0.11083969294E+03  0.00000000000E+00 0.  1.
         21    1    1    2  503  502 -0.36995293799E+02  0.55667323679E+02 -0.27361246079E+02  0.72222852864E+02  0.00000000000E+00 0.  1.
         21    1    1    2  504  503  0.10080983955E+03  0.21225459159E+02 -0.86674814202E+00  0.10302375997E+03  0.00000000000E+00 0.  1.
         21    1    1    2  505  501 -0.33874020001E+02 -0.33143757536E+02  0.92050932615E+03  0.92172847272E+03  0.00000000000E+00 0. -1.
         21    1    1    2  506  504 -0.29940525751E+02 -0.43749025302E+02  0.74236288606E+02  0.91221920848E+02  0.00000000000E+00 0.  1.
<scales pt_clust_3="65.90794" pt_clust_4="14000.00000" pt_clust_5="47.39154" pt_clust_6="76.07700"></scales>
<clustering>
<clus scale="   47.392">  1  5  2 -1</clus>
<clus scale="   65.908">  2  3  1 -1</clus>
<clus scale="   76.077">  1  6  2 -1</clus>
<clus scale="   47.392">  1  3  2 -1</clus>
</clustering>
</event>
<event>
 6    0  0.9315069E+002  0.1828169E+03  0.7546771E-02  0.1165104E+00
         21   -1    0    0  503  501  0.00000000000E+00  0.00000000000E+00  0.45402320443E+03  0.45402320443E+03  0.00000000000E+00 0. -1.
         21   -1    0    0  506  502 -0.00000000000E+00 -0.00000000000E+00 -0.26876376877E+03  0.26876376877E+03  0.00000000000E+00 0.  1.
         21    1    1    2  503  505  0.26831979960E+02  0.18487826601E+03  0.36024354876E+03  0.40580209809E+03  0.00000000000E+00 0. -1.
         21    1    1    2  504  501 -0.44272587027E+02 -0.55750293527E+02 -0.49665967262E+02  0.86803603004E+02  0.00000000000E+00 0.  1.
         21    1    1    2  505  502  0.64907304384E+02 -0.90513488689E+02 -0.27375316518E+02  0.11469550014E+03  0.00000000000E+00 0.  1.
         21    1    1    2  506  504 -0.47466697318E+02 -0.38614483795E+02 -0.97942829317E+02  0.11548577197E+03  0.00000000000E+00 0.  1.
<scales pt_clust_3="177.79254" pt_clust_4="39.46250" pt_clust_5="111.38065" pt_clust_6="39.46250"></scales>
<clustering>
<clus scale="   39.463">  4  6 -1 -1</clus>
<clus scale="  111.381">  2  5  1 -1</clus>
<clus scale="  177.793">  1  3  2 -1</clus>
<clus scale="  177.793">  1  3  2 -1</clus>
</clustering>
</event>
<event>
 6    0  0.9315069E+002  0.1886566E+03  0.7546771E-02  0.1159679E+00
         21   -1    0    0  506  501  0.00000000000E+00  0.00000000000E+00  0.71434394633E+02  0.71434394633E+02  0.00000000000E+00 0. -1.
         21   -1    0    0  503  502 -0.00000000000E+00 -0.00000000000E+00 -0.17936964042E+04  0.17936964042E+04  0.00000000000E+00 0.  1.
         21    1    1    2  503  501  0.18497253785E+03 -0.15130218911E+02 -0.14568107758E+04  0.14685848289E+04  0.00000000000E+00 0.  1.
         21    1    1    2  504  505 -0.11724197677E+03 -0.24053143255E+02 -0.13902676875E+03  0.18344666049E+03  0.00000000000E+00 0.  1.
         21    1    1    2  505  502 -0.59590117254E+02 -0.31871727511E+02 -0.12437705331E+03  0.14155013415E+03  0.00000000000E+00 0.  1.
         21    1    1    2  506  504 -0.81404438209E+01  0.71055089677E+02 -0.20474117828E+01  0.71549175324E+02  0.00000000000E+00 0. -1.
<scales pt_clust_3="183.70396" pt_clust_4="32.26892" pt_clust_5="32.26892" pt_clust_6="71.51988"></scales>
<clustering>
<clus scale="   32.269">  4  5 -1 -1</clus>
<clus scale="   71.520">  1  6  2 -1</clus>
<clus scale="  183.704">  2  3  1 -1</clus>
<clus scale="   71.520">  1  3  2 -1</clus>
</clustering>
</event>
<event>
 6    0  0.9315069E+002  0.9776826E+02  0.7546771E-02  0.1285060E+00
         21   -1    0    0  503  501  0.00000000000E+00  0.00000000000E+00  0.10585733013E+04  0.10585733013E+04  0.00000000000E+00 0.  1.
         21   -1    0    0  505  502 -0.00000000000E+00 -0.00000000000E+00 -0.21628643015E+03  0.21628643015E+03  0.00000000000E+00 0. -1.
         21    1    1    2  503  504  0.13615005295E+03 -0.30452328291E+02  0.46634584207E+03  0.48676752730E+03  0.00000000000E+00 0.  1.
         21    1    1    2  504  506 -0.32669405397E+02 -0.41844058134E+02  0.15950204433E+02  0.55431257171E+02  0.00000000000E+00 0.  1.
         21    1    1    2  505  501 -0.65134652588E+02  0.58298341629E+02  0.54053595773E+03  0.54755852765E+03  0.00000000000E+00 0.  1.
         21    1    1    2  506  502 -0.38345994968E+02  0.13998044796E+02 -0.18054513304E+03  0.18510241936E+03  0.00000000000E+00 0. -1.
<scales pt_clust_3="14000.00000" pt_clust_4="64.69236" pt_clust_5="97.76826" pt_clust_6="40.82108"></scales>
<clustering>
<clus scale="   40.821">  2  6  1 -1</clus>
<clus scale="   64.692">  2  4  1 -1</clus>
<clus scale="   97.768">  1  5  2 -1</clus>
<clus scale="   97.768">  1  3  2 -1</clus>
</clustering>
</event>
<event>
 6    0  0.9315069E+002  0.8331841E+02  0.7546771E-02  0.1319890E+00
         21   -1    0    0  506  501  0.00000000000E+00  0.00000000000E+00  0.98787082012E+03  0.98787082012E+03  0.00000000000E+00 0. -1.
         21   -1    0    0  504  502 -0.00000000000E+00 -0.00000000000E+00 -0.43910575707E+02  0.43910575707E+02  0.00000000000E+00 0. -1.
         21    1    1    2  503  501  0.50794855391E+02  0.24728525871E+02  0.17488560799E+03  0.18378409400E+03  0.00000000000E+00 0. -1.
         21    1    1    2  504  503 -0.26928875093E+02  0.43640380253E+02  0.23791399275E+02  0.56530326214E+02  0.00000000000E+00 0. -1.
         21    1    1    2  505  502 -0.58953506435E+02 -0.10315332924E+03  0.13767403848E+03  0.18185231955E+03  0.00000000000E+00 0. -1.
         21    1    1    2  506  505  0.35087526137E+02  0.34784423112E+02  0.60760919867E+03  0.60961465606E+03  0.00000000000E+00 0. -1.
<scales pt_clust_3="83.31841" pt_clust_4="52.71055" pt_clust_5="14000.00000" pt_clust_6="49.40739"></scales>
<clustering>
<clus scale="   49.407">  1  6  2 -1</clus>
<clus scale="   52.711">  2  4  1 -1</clus>
<clus scale="   83.318">  1  3  2 -1</clus>
<clus scale="   49.407">  1  3  2 -1</clus>
</clustering>
</event>
<event>
 6    0  0.9315069E+002  0.2748175E+03  0.7546771E-02  0.1098554E+00
         21   -1    0    0  506  501  0.00000000000E+00  0.00000000000E+00  0.13224742701E+04  0.13224742701E+04  0.00000000000E+00 0. -1.
         21   -1    0    0  505  502 -0.00000000000E+00 -0.00000000000E+00 -0.12857794758E+03  0.12857794758E+03  0.00000000000E+00 0. -1.
         21    1    1    2  503  504  0.33176391655E+02  0.11158752122E+03  0.34861743969E+03  0.36754124546E+03  0.00000000000E+00 0.  1.
         21    1    1    2  504  502 -0.13360159945E+02  0.11319557711E+03  0.29212004881E+03  0.31356953849E+03  0.00000000000E+00 0.  1.
         21    1    1    2  505  501 -0.71223558371E+02 -0.27487149291E+03  0.85122577531E+02  0.29643378027E+03  0.00000000000E+00 0. -1.
         21    1    1    2  506  503  0.51407326661E+02  0.50088394576E+02  0.46803625644E+03  0.47350765342E+03  0.00000000000E+00 0. -1.
<scales pt_clust_3="48.94983" pt_clust_4="48.94983" pt_clust_5="270.32835" pt_clust_6="71.77437"></scales>
<clustering>
<clus scale="   48.950">  3  4 -1 -1</clus>
<clus scale="   71.774">  1  6  2 -1</clus>
<clus scale="  270.328">  2  5  1 -1</clus>
<clus scale="   71.774">  1  3  2 -1</clus>
</clustering>
</event>
<event>
 6    0  0.9315069E+002  0.1123779E+03  0.7546771E-02  0.1256229E+00
         21   -1    0    0  506  501  0.00000000000E+00  0.00000000000E+00  0.19913664255E+03  0.19913664255E+03  0.00000000000E+00 0. -1.
         21   -1    0    0  504  502 -0.00000000000E+00 -0.00000000000E+00 -0.10553258412E+03  0.10553258412E+03  0.00000000000E+00 0. -1.
         21    1    1    2  503  502  0.39629724395E+02  0.71631671776E+02 -0.83119540385E+01  0.82284263605E+02  0.00000000000E+00 0. -1.
         21    1    1    2  504  505 -0.81661152665E+02 -0.38899860412E+02  0.34801654390E+02  0.96916965196E+02  0.00000000000E+00 0. -1.
         21    1    1    2  505  501  0.40608737216E-01 -0.49126012542E+02  0.63445139873E+02  0.80241214665E+02  0.00000000000E+00 0. -1.
         21    1    1    2  506  503  0.41990819533E+02  0.16394201178E+02  0.36692182088E+01  0.45226783210E+02  0.00000000000E+00 0. -1.
<scales pt_clust_3="31.71835" pt_clust_4="103.93151" pt_clust_5="49.12603" pt_clust_6="31.71835"></scales>
<clustering>
<clus scale="   31.718">  3  6 -1 -1</clus>
<clus scale="   49.126">  1  5  2 -1</clus>
<clus scale="  103.932">  1  4  2 -1</clus>
<clus scale="   49.126">  1  3  2 -1</clus>
</clustering>
</event>
<event>
 6    0  0.9315069E+002  0.1989866E+03  0.7546771E-02  0.1150597E+00
         21   -1    0    0  506  501  0.00000000000E+00  0.00000000000E+00  0.15563222716E+04  0.15563222716E+04  0.00000000000E+00 0. -1.
         21   -1    0    0  504  502 -0.00000000000E+00 -0.00000000000E+00 -0.20718431360E+03  0.20718431360E+03  0.00000000000E+00 0. -1.
         21    1    1    2  503  505  0.11199641222E+03  0.41795837280E+00 -0.50195565903E+01  0.11210962041E+03  0.00000000000E+00 0. -1.
         21    1    1    2  504  503 -0.68207867831E+02 -0.26860272384E+02 -0.97972327101E+02  0.12236161303E+03  0.00000000000E+00 0. -1.
         21    1    1    2  505  501 -0.50823602973E+02  0.20069345239E+03  0.12265794631E+04  0.12439284866E+04  0.00000000000E+00 0. -1.
         21    1    1    2  506  502  0.70350585807E+01 -0.17425113838E+03  0.22555037857E+03  0.28510686514E+03  0.00000000000E+00 0. -1.
<scales pt_clust_3="72.56290" pt_clust_4="73.30612" pt_clust_5="198.98658" pt_clust_6="14000.00000"></scales>
<clustering>
<clus scale="   73.306">  2  4  1 -1</clus>
<clus scale="   72.563">  2  3  1 -1</clus>
<clus scale="  198.987">  1  5  2 -1</clus>
<clus scale="  198.987">  1  3  2 -1</clus>
</clustering>
</event>
<event>
 6    0  0.9315069E+002  0.1790076E+03  0.7546771E-02  0.1168767E+00
         21   -1    0    0  503  501  0.00000000000E+00  0.00000000000E+00  0.48467777015E+03  0.48467777015E+03  0.00000000000E+00 0. -1.
         21   -1    0    0  506  502 -0.00000000000E+00 -0.00000000000E+00 -0.35449750785E+03  0.35449750785E+03  0.00000000000E+00 0. -1.
         21    1    1    2  503  504 -0.30968130866E+00 -0.49705548736E+02  0.41548493330E+02  0.64784371384E+02  0.00000000000E+00 0. -1.
         21    1    1    2  504  502  0.13857836595E+03 -0.11651368635E+03  0.28444954638E+03  0.33718088180E+03  0.00000000000E+00 0. -1.
         21    1    1    2  505  501 -0.39921601350E+02  0.16149269215E+02  0.89982379403E+02  0.99756512337E+02  0.00000000000E+00 0. -1.
         21    1    1    2  506  505 -0.98347083294E+02  0.15006996587E+03 -0.28580015681E+03  0.33745351248E+03  0.00000000000E+00 0. -1.
<scales pt_clust_3="47.85023" pt_clust_4="179.00758" pt_clust_5="43.06429" pt_clust_6="14000.00000"></scales>
<clustering>
<clus scale="   43.064">  1  5  2 -1</clus>
<clus scale="   47.850">  1  3  2 -1</clus>
<clus scale="  179.008">  1  4  2 -1</clus>
<clus scale="   43.064">  1  3  2 -1</clus>
</clustering>
</event>
<event>
 6    0  0.9315069E+002  0.1082115E+03  0.7546771E-02  0.1263918E+00
         21   -1    0    0  506  501  0.00000000000E+00  0.00000000000E+00  0.15527979816E+03  0.15527979816E+03  0.00000000000E+00 0.  1.
         21   -1    0    0  503  502 -0.00000000000E+00 -0.00000000000E+00 -0.35575305470E+03  0.35575305470E+03  0.00000000000E+00 0. -1.
         21    1    1    2  503  501 -0.41550687696E+02  0.70331041924E+02 -0.33712728957E+02  0.88371167243E+02  0.00000000000E+00 0.  1.
         21    1    1    2  504  502 -0.16167075557E+02 -0.48292134822E+02 -0.69239185472E+02  0.85950971039E+02  0.00000000000E+00 0. -1.
         21    1    1    2  505  504  0.95401384558E+02 -0.84252348603E+02 -0.18398641899E+03  0.22372055067E+03  0.00000000000E+00 0. -1.
         21    1    1    2  506  505 -0.37683621304E+02  0.62213441501E+02  0.86465076888E+02  0.11299016391E+03  0.00000000000E+00 0.  1.
<scales pt_clust_3="108.21145" pt_clust_4="50.92646" pt_clust_5="14000.00000" pt_clust_6="71.19030"></scales>
<clustering>
<clus scale="   50.926">  2  4  1 -1</clus>
<clus scale="   71.190">  1  6  2 -1</clus>
<clus scale="  108.211">  1  3  2 -1</clus>
<clus scale="   71.190">  1  3  2 -1</clus>
</clustering>
</event>
<event>
 6    0  0.9315069E+002  0.9626136E+02  0.7546771E-02  0.1288360E+00
         21   -1    0    0  504  501  0.00000000000E+00  0.00000000000E+00  0.10799091949E+04  0.10799091949E+04  0.00000000000E+00 0. -1.
         21   -1    0    0  503  502 -0.00000000000E+00 -0.00000000000E+00 -0.49187709104E+03  0.49187709104E+03  0.00000000000E+00 0. -1.
         21    1    1    2  503  501  0.28225791170E+02  0.21502609120E+02  0.10057505377E+02  0.36881037140E+02  0.00000000000E+00 0.  1.
         21    1    1    2  504  506  0.51620369858E+01 -0.37034267125E+02  0.10309963217E+04  0.10316741728E+04  0.00000000000E+00 0. -1.
         21    1    1    2  505  502  0.61130670911E+02  0.48041370016E+02 -0.35434936593E+03  0.36277872773E+03  0.00000000000E+00 0. -1.
         21    1    1    2  506  505 -0.94518499066E+02 -0.32509712011E+02 -0.98672357267E+02  0.14045234825E+03  0.00000000000E+00 0. -1.
<scales pt_clust_3="35.48320" pt_clust_4="37.37997" pt_clust_5="96.26136" pt_clust_6="14000.00000"></scales>
<clustering>
<clus scale="   35.483">  2  3  1 -1</clus>
<clus scale="   37.380">  1  4  2 -1</clus>
<clus scale="   96.261">  2  5  1 -1</clus>
<clus scale="   37.380">  1  3  2 -1</clus>
</clustering>
</event>
<event>
 6    0  0.9315069E+002  0.1162526E+03  0.7546771E-02  0.1249410E+00
         21   -1    0    0  505  501  0.00000000000E+00  0.00000000000E+00  0.22097294186E+03  0.22097294186E+03  0.00000000000E+00 0.  1.
         21   -1    0    0  506  502 -0.00000000000E+00 -0.00000000000E+00 -0.13151299565E+04  0.13151299565E+04  0.00000000000E+00 0. -1.
         21    1    1    2  503  502  0.10673529195E+03  0.75070954213E+02 -0.10649805729E+04  0.10729453347E+04  0.00000000000E+00 0. -1.
         21    1    1    2  504  501  0.25514136202E+02 -0.29102635581E+02 -0.29508347060E+02  0.48669056804E+02  0.00000000000E+00 0. -1.
         21    1    1    2  505  503 -0.26305671744E+02 -0.91864427613E+02  0.17833327241E+03  0.20232107521E+03  0.00000000000E+00 0.  1.
         21    1    1    2  506  504 -0.10594375641E+03  0.45896108981E+02 -0.17800136711E+03  0.21216743160E+03  0.00000000000E+00 0. -1.
<scales pt_clust_3="116.25258" pt_clust_4="38.70316" pt_clust_5="14000.00000" pt_clust_6="112.63905"></scales>
<clustering>
<clus scale="   38.703">  1  4  2 -1</clus>
<clus scale="  112.639">  2  6  1 -1</clus>
<clus scale="  116.253">  2  3  1 -1</clus>
<clus scale="   38.703">  1  3  2 -1</clus>
</clustering>
</event>
<event>
 6    0  0.9315069E+002  0.1182404E+03  0.7546771E-02  0.1246028E+00
         21   -1    0    0  506  501  0.00000000000E+00  0.00000000000E+00  0.21836919240E+03  0.21836919240E+03  0.00000000000E+00 0. -1.
         21   -1    0    0  505  502 -0.00000000000E+00 -0.00000000000E+00 -0.12039186287E+03  0.12039186287E+03  0.00000000000E+00 0.  1.
         21    1    1    2  503  502 -0.27658909303E+02  0.99068518223E+02 -0.40870265786E+02  0.11067956086E+03  0.00000000000E+00 0.  1.
         21    1    1    2  504  503  0.15641702886E+02 -0.42314972121E+02  0.11389007380E+02  0.46528799940E+02  0.00000000000E+00 0. -1.
         21    1    1    2  505  501  0.48103569724E+02  0.12893619121E+02  0.60968531088E+02  0.78723316859E+02  0.00000000000E+00 0. -1.
         21    1    1    2  506  504 -0.36086363308E+02 -0.69647165223E+02  0.66490056850E+02  0.10282937761E+03  0.00000000000E+00 0.  1.
<scales pt_clust_3="103.40015" pt_clust_4="43.49385" pt_clust_5="49.80159" pt_clust_6="43.49385"></scales>
<clustering>
<clus scale="   43.494">  4  6 -1 -1</clus>
<clus scale="   49.802">  1  5  2 -1</clus>
<clus scale="  103.400">  2  3  1 -1</clus>
<clus scale="   49.802">  1  3  2 -1</clus>
</clustering>
</event>
<event>
 6    0  0.9315069E+002  0.6578599E+02  0.7546771E-02  0.1375039E+00
         21   -1    0    0  505  501  0.00000000000E+00  0.00000000000E+00  0.13992708459E+03  0.13992708459E+03  0.00000000000E+00 0. -1.
         21   -1    0    0  504  502 -0.00000000000E+00 -0.00000000000E+00 -0.14424049871E+03  0.14424049871E+03  0.00000000000E+00 0. -1.
         21    1    1    2  503  501 -0.36598615152E+02  0.28920979616E+02  0.85567451903E+01  0.47424672706E+02  0.00000000000E+00 0. -1.
         21    1    1    2  504  506  0.28006092491E+02  0.86009829980E+02 -0.23925990535E+01  0.90486223261E+02  0.00000000000E+00 0. -1.
         21    1    1    2  505  502 -0.80841695764E+01 -0.57822732379E+02 -0.48286799512E+02  0.75765672864E+02  0.00000000000E+00 0. -1.
         21    1    1    2  506  503  0.16676692238E+02 -0.57108077218E+02  0.37809239256E+02  0.70491014467E+02  0.00000000000E+00 0. -1.
<scales pt_clust_3="46.64635" pt_clust_4="65.78599" pt_clust_5="14000.00000" pt_clust_6="43.12958"></scales>
<clustering>
<clus scale="   46.646">  1  3  2 -1</clus>
<clus scale="   43.130">  1  6  2 -1</clus>
<clus scale="   65.786">  1  4  2 -1</clus>
<clus scale="   46.646">  1  3  2 -1</clus>
</clustering>
</event>
<event>
 6    0  0.9315069E+002  0.6982754E+02  0.7546771E-02  0.1360681E+00
         21   -1    0    0  503  501  0.00000000000E+00  0.00000000000E+00  0.65717308533E+02  0.65717308533E+02  0.00000000000E+00 0.  1.
         21   -1    0    0  504  502 -0.00000000000E+00 -0.00000000000E+00 -0.16185478262E+04  0.16185478262E+04  0.00000000000E+00 0.  1.
         21    1    1    2  503  505  0.25723033565E+02  0.71489832588E+02  0.30349886401E-01  0.75976782904E+02  0.00000000000E+00 0.  1.
         21    1    1    2  504  501 -0.59167807860E+02 -0.15556612450E+02 -0.25342203489E+02  0.66219822981E+02  0.00000000000E+00 0.  1.
         21    1    1    2  505  506  0.37737605995E+02 -0.89254891793E+02 -0.32643010379E+03  0.34051016912E+03  0.00000000000E+00 0.  1.
         21    1    1    2  506  502 -0.42928317003E+01  0.33321671655E+02 -0.12010885602E+04  0.12015583597E+04  0.00000000000E+00 0.  1.
<scales pt_clust_3="14000.00000" pt_clust_4="60.81455" pt_clust_5="69.82754" pt_clust_6="33.59706"></scales>
<clustering>
<clus scale="   33.597">  2  6  1 -1</clus>
<clus scale="   60.815">  1  4  2 -1</clus>
<clus scale="   69.828">  2  5  1 -1</clus>
<clus scale="   60.815">  1  3  2 -1</clus>
</clustering>
</event>
<event>
 6    0  0.9315069E+002  0.1103054E+03  0.7546771E-02  0.1260005E+00
         21   -1    0    0  503  501  0.00000000000E+00  0.00000000000E+00  0.58679349782E+02  0.58679349782E+02  0.00000000000E+00 0. -1.
         21   -1    0    0  505  502 -0.00000000000E+00 -0.00000000000E+00 -0.55781756245E+03  0.55781756245E+03  0.00000000000E+00 0. -1.
         21    1    1    2  503  504 -0.94660059097E+02  0.16403871037E+02 -0.27872780170E+03  0.29481994711E+03  0.00000000000E+00 0. -1.
         21    1    1    2  504  502 -0.48011481852E+01  0.31627687269E+02 -0.12767949231E+03  0.13162603991E+03  0.00000000000E+00 0. -1.
         21    1    1    2  505  506 -0.14735646603E+02 -0.41068409443E+02 -0.53647171954E+02  0.69150362209E+02  0.00000000000E+00 0. -1.
         21    1    1    2  506  501  0.11419685389E+03 -0.69631488630E+01 -0.39083746711E+02  0.12090056301E+03  0.00000000000E+00 0. -1.
<scales pt_clust_3="110.30545" pt_clust_4="31.99002" pt_clust_5="39.65557" pt_clust_6="14000.00000"></scales>
<clustering>
<clus scale="   31.990">  2  4  1 -1</clus>
<clus scale="   39.656">  2  5  1 -1</clus>
<clus scale="  110.305">  2  3  1 -1</clus>
<clus scale="  110.305">  1  3  2 -1</clus>
</clustering>
</event>
<event>
 6    0  0.9315069E+002  0.4188504E+03  0.7546771E-02  0.1037441E+00
         21   -1    0    0  505  501  0.00000000000E+00  0.00000000000E+00  0.29717484314E+04  0.29717484314E+04  0.00000000000E+00 0.  1.
         21   -1    0    0  506  502 -0.00000000000E+00 -0.00000000000E+00 -0.23751164453E+03  0.23751164453E+03  0.00000000000E+00 0.  1.
         21    1    1    2  503  502  0.28503774514E+03 -0.33910859706E+03  0.16523677674E+03  0.47280476853E+03  0.00000000000E+00 0.  1.
         21    1    1    2  504  503 -0.15387534812E+03  0.29284808641E+03  0.22110361447E+04  0.22356472123E+04  0.00000000000E+00 0.  1.
         21    1    1    2  505  504 -0.72522396189E+02  0.37761426142E+02  0.41235078895E+03  0.42037911033E+03  0.00000000000E+00 0.  1.
         21    1    1    2  506  501 -0.58640000837E+02  0.84990845137E+01 -0.54386923570E+02  0.80428984770E+02  0.00000000000E+00 0.  1.
<scales pt_clust_3="404.57069" pt_clust_4="53.90904" pt_clust_5="53.90904" pt_clust_6="59.25271"></scales>
<clustering>
<clus scale="   53.909">  4  5 -1 -1</clus>
<clus scale="   59.253">  2  6  1 -1</clus>
<clus scale="  404.571">  2  3  1 -1</clus>
<clus scale="  418.850">  1  3  2 -1</clus>
</clustering>
</event>
<event>
 6    0  0.9315069E+002  0.1713786E+03  0.7546771E-02  0.1176418E+00
         21   -1    0    0  504  501  0.00000000000E+00  0.00000000000E+00  0.25504280804E+03  0.25504280804E+03  0.00000000000E+00 0.  1.
         21   -1    0    0  505  502 -0.00000000000E+00 -0.00000000000E+00 -0.31565305025E+03  0.31565305025E+03  0.00000000000E+00 0.  1.
         21    1    1    2  503  502  0.62965665696E+02 -0.67040579426E+02 -0.61473178235E+02  0.11062579260E+03  0.00000000000E+00 0.  1.
         21    1    1    2  504  503  0.62280934448E+02 -0.13528946776E+03  0.38303584213E+02  0.15378335231E+03  0.00000000000E+00 0.  1.
         21    1    1    2  505  506 -0.39041976009E+02  0.19570131806E+02 -0.87777087041E+02  0.98041230913E+02  0.00000000000E+00 0.  1.
         21    1    1    2  506  501 -0.86204624135E+02  0.18275991538E+03  0.50336438848E+02  0.20824548247E+03  0.00000000000E+00 0.  1.
<scales pt_clust_3="76.35905" pt_clust_4="14000.00000" pt_clust_5="43.67226" pt_clust_6="171.37859"></scales>
<clustering>
<clus scale="   43.672">  2  5  1 -1</clus>
<clus scale="   76.359">  2  3  1 -1</clus>
<clus scale="  171.379">  2  6  1 -1</clus>
<clus scale="  171.379">  1  3  2 -1</clus>
</clustering>
</event>
<event>
 6    0  0.9315069E+002  0.7416932E+02  0.7546771E-02  0.1346463E+00
         21   -1    0    0  504  501  0.00000000000E+00  0.00000000000E+00  0.14227395081E+03  0.14227395081E+03  0.00000000000E+00 0.  1.
         21   -1    0    0  503  502 -0.00000000000E+00 -0.00000000000E+00 -0.45908802635E+03  0.45908802635E+03  0.00000000000E+00 0. -1.
         21    1    1    2  503  505  0.31584866873E+02  0.24730717130E+01 -0.25117551457E+03  0.25316567504E+03  0.00000000000E+00 0. -1.
         21    1    1    2  504  502 -0.67632425572E+02  0.22679468209E+02 -0.50907004828E+02  0.87635759867E+02  0.00000000000E+00 0.  1.
         21    1    1    2  505  506 -0.22946775058E+02 -0.71841759815E+02 -0.11357966769E+03  0.13633830662E+03  0.00000000000E+00 0. -1.
         21    1    1    2  506  501  0.58994333757E+02  0.46689219893E+02  0.98848111549E+02  0.12422223564E+03  0.00000000000E+00 0.  1.
<scales pt_clust_3="31.68154" pt_clust_4="61.71119" pt_clust_5="74.16932" pt_clust_6="14000.00000"></scales>
<clustering>
<clus scale="   31.682">  2  3  1 -1</clus>
<clus scale="   61.711">  2  4  1 -1</clus>
<clus scale="   74.169">  2  5  1 -1</clus>
<clus scale="   74.169">  1  3  2 -1</clus>
</clustering>
</event>
<event>
 6    0  0.9315069E+002  0.2088911E+03  0.7546771E-02  0.1142447E+00
         21   -1    0    0  506  501  0.00000000000E+00  0.00000000000E+00  0.11871116103E+04  0.11871116103E+04  0.00000000000E+00 0.  1.
         21   -1    0    0  501  502 -0.00000000000E+00 -0.00000000000E+00 -0.14222727917E+03  0.14222727917E+03  0.00000000000E+00 0.  1.
         21    1    1    2  503  502  0.18917517798E+02 -0.11937830830E+03 -0.36321122079E+02  0.12620727745E+03  0.00000000000E+00 0.  1.
         21    1    1    2  504  503 -0.11534139523E+03 -0.19607578718E+02  0.45685885087E+02  0.12559974002E+03  0.00000000000E+00 0.  1.
         21    1    1    2  505  504 -0.64133031342E+02  0.16001062799E+02  0.96421854858E+02  0.11690275366E+03  0.00000000000E+00 0.  1.
         21    1    1    2  506  505  0.16055690877E+03  0.12298482422E+03  0.93909771324E+03  0.96062911832E+03  0.00000000000E+00 0.  1.
<scales pt_clust_3="120.86792" pt_clust_4="60.07869" pt_clust_5="60.07869" pt_clust_6="192.99411"></scales>
<clustering>
<clus scale="   60.079">  4  5 -1 -1</clus>
<clus scale="  120.868">  2  3  1 -1</clus>
<clus scale="  192.994">  1  6  2 -1</clus>
<clus scale="  192.994">  1  3  2 -1</clus>
</clustering>
</event>
<event>
 6    0  0.9315069E+002  0.8705341E+02  0.7546771E-02  0.1310148E+00
         21   -1    0    0  503  501  0.00000000000E+00  0.00000000000E+00  0.87673731161E+02  0.87673731161E+02  0.00000000000E+00 0. -1.
         21   -1    0    0  506  502 -0.00000000000E+00 -0.00000000000E+00 -0.32115353874E+03  0.32115353874E+03  0.00000000000E+00 0.  1.
         21    1    1    2  503  502 -0.59949729408E+02  0.33747186826E+02 -0.14953830987E+02  0.70402128774E+02  0.00000000000E+00 0.  1.
         21    1    1    2  504  505  0.91669776575E+02  0.25852669070E+02 -0.75054476665E+02  0.12126369161E+03  0.00000000000E+00 0. -1.
         21    1    1    2  505  501 -0.63982976250E+02 -0.33837009714E+02 -0.48718999430E+01  0.72543089852E+02  0.00000000000E+00 0.  1.
         21    1    1    2  506  504  0.32262929083E+02 -0.25762846183E+02 -0.13859959999E+03  0.14461835967E+03  0.00000000000E+00 0.  1.
<scales pt_clust_3="59.12976" pt_clust_4="87.05341" pt_clust_5="14000.00000" pt_clust_6="41.28705"></scales>
<clustering>
<clus scale="   41.287">  2  6  1 -1</clus>
<clus scale="   59.130">  1  3  2 -1</clus>
<clus scale="   87.053">  2  4  1 -1</clus>
<clus scale="   59.130">  1  3  2 -1</clus>
</clustering>
</event>
<event>
 6    0  0.9315069E+002  0.1593197E+03  0.7546771E-02  0.1189467E+00
         21   -1    0    0  504  501  0.00000000000E+00  0.00000000000E+00  0.15515041212E+03  0.15515041212E+03  0.00000000000E+00 0. -1.
         21   -1    0    0  505  502 -0.00000000000E+00 -0.00000000000E+00 -0.13818175986E+04  0.13818175986E+04  0.00000000000E+00 0. -1.
         21    1    1    2  503  501 -0.12358294825E+02  0.38502742618E+02 -0.87315262583E+01  0.41369411295E+02  0.00000000000E+00 0.  1.
         21    1    1    2  504  502 -0.23964881242E+02  0.15615126964E+03 -0.12206292494E+04  0.12308100175E+04  0.00000000000E+00 0. -1.
         21    1    1    2  505  506  0.98079567790E+02 -0.17304977145E+03  0.85912536063E+01  0.19909704833E+03  0.00000000000E+00 0. -1.
         21    1    1    2  506  503 -0.61756391722E+02 -0.21604240808E+02 -0.58976643536E+01  0.65691533581E+02  0.00000000000E+00 0.  1.
<scales pt_clust_3="40.43747" pt_clust_4="159.31967" pt_clust_5="14000.00000" pt_clust_6="65.77896"></scales>
<clustering>
<clus scale="   40.437">  1  3  2 -1</clus>
<clus scale="   65.779">  1  6  2 -1</clus>
<clus scale="  159.320">  2  4  1 -1</clus>
<clus scale="   40.437">  1  3  2 -1</clus>
</clustering>
</event>
<event>
 6    0  0.9315069E+002  0.8868479E+02  0.7546771E-02  0.1306068E+00
         21   -1    0    0  505  501  0.00000000000E+00  0.00000000000E+00  0.15048809791E+04  0.15048809791E+04  0.00000000000E+00 0. -1.
         21   -1    0    0  504  502 -0.00000000000E+00 -0.00000000000E+00 -0.11438097967E+03  0.11438097967E+03  0.00000000000E+00 0. -1.
         21    1    1    2  503  501 -0.75133588383E+02  0.43468763717E+02  0.12973700509E+04  0.13002706021E+04  0.00000000000E+00 0. -1.
         21    1    1    2  504  503 -0.78030838075E+02  0.32276233792E+02  0.10919111543E+02  0.85145721886E+02  0.00000000000E+00 0. -1.
         21    1    1    2  505  506  0.13513729110E+03 -0.29084207713E+02  0.10996847757E+03  0.17663817437E+03  0.00000000000E+00 0. -1.
         21    1    1    2  506  502  0.18027135358E+02 -0.46660789796E+02 -0.27757640658E+02  0.57207460427E+02  0.00000000000E+00 0. -1.
<scales pt_clust_3="14000.00000" pt_clust_4="69.21172" pt_clust_5="88.68479" pt_clust_6="50.02206"></scales>
<clustering>
<clus scale="   50.022">  2  6  1 -1</clus>
<clus scale="   69.212">  2  4  1 -1</clus>
<clus scale="   88.685">  2  5  1 -1</clus>
<clus scale="   88.685">  1  3  2 -1</clus>
</clustering>
</event>
<event>
 6    0  0.9315069E+002  0.1009163E+03  0.7546771E-02  0.1278381E+00
         21   -1    0    0  504  501  0.00000000000E+00  0.00000000000E+00  0.36033261907E+02  0.36033261907E+02  0.00000000000E+00 0.  1.
         21   -1    0    0  505  502 -0.00000000000E+00 -0.00000000000E+00 -0.17467123497E+04  0.17467123497E+04  0.00000000000E+00 0.  1.
         21    1    1    2  503  501 -0.42429831331E+02  0.19808886672E+02 -0.21394226516E+03  0.21900679305E+03  0.00000000000E+00 0.  1.
         21    1    1    2  504  506  0.84600568019E+01 -0.78871846426E+02 -0.24979484756E+02  0.83164387681E+02  0.00000000000E+00 0.  1.
         21    1    1    2  505  503 -0.35405745269E+02  0.80718695391E+02 -0.74696481649E+03  0.75214726727E+03  0.00000000000E+00 0.  1.
         21    1    1    2  506  502  0.69375519799E+02 -0.21655735638E+02 -0.72479252139E+03  0.72842716362E+03  0.00000000000E+00 0.  1.
<scales pt_clust_3="43.93607" pt_clust_4="80.93501" pt_clust_5="43.93607" pt_clust_6="72.67691"></scales>
<clustering>
<clus scale="   43.936">  3  5 -1 -1</clus>
<clus scale="   72.677">  2  6  1 -1</clus>
<clus scale="   80.935">  1  4  2 -1</clus>
<clus scale="   80.935">  1  3  2 -1</clus>
</clustering>
</event>
<event>
 6    0  0.9315069E+002  0.2339606E+03  0.7546771E-02  0.1123883E+00
         21   -1    0    0  505  501  0.00000000000E+00  0.00000000000E+00  0.10515849835E+04  0.10515849835E+04  0.00000000000E+00 0.  1.
         21   -1    0    0  504  502 -0.00000000000E+00 -0.00000000000E+00 -0.45349003076E+03  0.45349003076E+03  0.00000000000E+00 0. -1.
         21    1    1    2  503  501  0.18890428200E+03 -0.95753514524E+02  0.13976480309E+02  0.21224727396E+03  0.00000000000E+00 0.  1.
         21    1    1    2  504  503  0.34708197338E+02  0.48759670651E+01 -0.33154002131E+03  0.33338749189E+03  0.00000000000E+00 0. -1.
         21    1    1    2  505  506  0.57745403034E+01  0.45050966651E+02  0.24456879006E+03  0.24875053363E+03  0.00000000000E+00 0.  1.
         21    1    1    2  506  502 -0.22938701965E+03  0.45826580808E+02  0.67108970370E+03  0.71068971479E+03  0.00000000000E+00 0.  1.
<scales pt_clust_3="14000.00000" pt_clust_4="35.04902" pt_clust_5="45.58307" pt_clust_6="233.96064"></scales>
<clustering>
<clus scale="   35.049">  2  4  1 -1</clus>
<clus scale="   45.583">  1  5  2 -1</clus>
<clus scale="  233.961">  1  6  2 -1</clus>
<clus scale="   45.583">  1  3  2 -1</clus>
</clustering>
</event>
<event>
 6    0  0.9315069E+002  0.1348844E+03  0.7546771E-02  0.1220383E+00
         21   -1    0    0  506  501  0.00000000000E+00  0.00000000000E+00  0.19755307228E+03  0.19755307228E+03  0.00000000000E+00 0. -1.
         21   -1    0    0  505  502 -0.00000000000E+00 -0.00000000000E+00 -0.74646895392E+03  0.74646895392E+03  0.00000000000E+00 0. -1.
         21    1    1    2  503  502  0.70727216764E+02 -0.21151183645E+02 -0.12471585334E+03  0.14492672574E+03  0.00000000000E+00 0. -1.
         21    1    1    2  504  501 -0.92642808328E+02  0.10061173475E+03  0.14901319208E+03  0.20226305278E+03  0.00000000000E+00 0. -1.
         21    1    1    2  505  504 -0.61142156346E+01  0.39921362280E+02 -0.19839062283E+03  0.20245971951E+03  0.00000000000E+00 0. -1.
         21    1    1    2  506  503  0.28029807199E+02 -0.11938191339E+03 -0.37482259755E+03  0.39437252817E+03  0.00000000000E+00 0. -1.
<scales pt_clust_3="70.13299" pt_clust_4="134.88442" pt_clust_5="40.38686" pt_clust_6="14000.00000"></scales>
<clustering>
<clus scale="   40.387">  2  5  1 -1</clus>
<clus scale="   70.133">  2  3  1 -1</clus>
<clus scale="  134.884">  1  4  2 -1</clus>
<clus scale="  134.884">  1  3  2 -1</clus>
</clustering>
</event>
<event>
 6    0  0.9315069E+002  0.1251422E+03  0.7546771E-02  0.1234847E+00
         21   -1    0    0  506  501  0.00000000000E+00  0.00000000000E+00  0.35941820286E+02  0.35941820286E+02  0.00000000000E+00 0.  1.
         21   -1    0    0  504  502 -0.00000000000E+00 -0.00000000000E+00 -0.57072189799E+03  0.57072189799E+03  0.00000000000E+00 0.  1.
         21    1    1    2  503  502 -0.82701972159E+02 -0.21548329023E+02 -0.31136617719E+03  0.32288208835E+03  0.00000000000E+00 0.  1.
         21    1    1    2  504  505  0.10437541593E+03  0.21278032698E+01 -0.11661338398E+03  0.15651656884E+03  0.00000000000E+00 0.  1.
         21    1    1    2  505  501  0.14543506741E+02  0.28303119389E+02 -0.52574086769E+02  0.61454167922E+02  0.00000000000E+00 0.  1.
         21    1    1    2  506  503 -0.36216950510E+02 -0.88825936360E+01 -0.54226429766E+02  0.65810893165E+02  0.00000000000E+00 0.  1.
<scales pt_clust_3="31.19746" pt_clust_4="115.34315" pt_clust_5="31.82106" pt_clust_6="31.19746"></scales>
<clustering>
<clus scale="   31.821">  1  5  2 -1</clus>
<clus scale="   31.197">  3  6 -1 -1</clus>
<clus scale="  115.343">  1  4  2 -1</clus>
<clus scale="   31.821">  1  3  2 -1</clus>
</clustering>
</event>
<event>
 6    0  0.9315069E+002  0.7038405E+02  0.7546771E-02  0.1358792E+00
         21   -1    0    0  506  501  0.00000000000E+00  0.00000000000E+00  0.17100375363E+03  0.17100375363E+03  0.00000000000E+00 0.  1.
         21   -1    0    0  503  502 -0.00000000000E+00 -0.00000000000E+00 -0.28443406465E+03  0.28443406465E+03  0.00000000000E+00 0. -1.
         21    1    1    2  503  505  0.82208610357E+02  0.42454703617E+02 -0.10252346621E+03  0.13810039319E+03  0.00000000000E+00 0. -1.
         21    1    1    2  504  502 -0.21001814683E+02 -0.63845639639E+02 -0.11295021872E+03  0.13143475122E+03  0.00000000000E+00 0.  1.
         21    1    1    2  505  501 -0.59593411984E+02 -0.14608632912E+02 -0.15228221548E+02  0.63219345449E+02  0.00000000000E+00 0.  1.
         21    1    1    2  506  504 -0.16133836901E+01  0.35999568934E+02  0.11727159545E+03  0.12268332841E+03  0.00000000000E+00 0.  1.
<scales pt_clust_3="70.38405" pt_clust_4="14000.00000" pt_clust_5="60.39671" pt_clust_6="36.03570"></scales>
<clustering>
<clus scale="   36.036">  1  6  2 -1</clus>
<clus scale="   60.397">  1  5  2 -1</clus>
<clus scale="   70.384">  1  3  2 -1</clus>
<clus scale="   36.036">  1  3  2 -1</clus>
</clustering>
</event>
<event>
 6    0  0.9315069E+002  0.9208032E+02  0.7546771E-02  0.1297891E+00
         21   -1    0    0  503  501  0.00000000000E+00  0.00000000000E+00  0.32877220743E+03  0.32877220743E+03  0.00000000000E+00 0.  1.
         21   -1    0    0  504  502 -0.00000000000E+00 -0.00000000000E+00 -0.12354755131E+04  0.12354755131E+04  0.00000000000E+00 0.  1.
         21    1    1    2  503  506 -0.30451676053E+02  0.43529223583E+02 -0.93884524526E+01  0.53946648827E+02  0.00000000000E+00 0.  1.
         21    1    1    2  504  505 -0.28066362690E+02  0.19191015315E+02 -0.10395487745E+03  0.10937381921E+03  0.00000000000E+00 0.  1.
         21    1    1    2  505  501  0.12316457701E+03 -0.42088383449E+02  0.28873023529E+03  0.31671137305E+03  0.00000000000E+00 0.  1.
         21    1    1    2  506  502 -0.64646538264E+02 -0.20631855449E+02 -0.10820902111E+04  0.10842158795E+04  0.00000000000E+00 0.  1.
<scales pt_clust_3="54.01696" pt_clust_4="34.00023" pt_clust_5="14000.00000" pt_clust_6="92.08032"></scales>
<clustering>
<clus scale="   34.000">  2  4  1 -1</clus>
<clus scale="   54.017">  1  3  2 -1</clus>
<clus scale="   92.080">  2  6  1 -1</clus>
<clus scale="   54.017">  1  3  2 -1</clus>
</clustering>
</event>
<event>
 6    0  0.9315069E+002  0.9533343E+02  0.7546771E-02  0.1290427E+00
         21   -1    0    0  505  501  0.00000000000E+00  0.00000000000E+00  0.53137546684E+03  0.53137546684E+03  0.00000000000E+00 0. -1.
         21   -1    0    0  503  502 -0.00000000000E+00 -0.00000000000E+00 -0.14012595141E+03  0.14012595141E+03  0.00000000000E+00 0.  1.
         21    1    1    2  503  501  0.40630716663E+02  0.26937977720E+01  0.11184090566E+03  0.11902310642E+03  0.00000000000E+00 0.  1.
         21    1    1    2  504  506 -0.69196892293E+02 -0.33525893591E+02  0.12237235972E+03  0.14452401139E+03  0.00000000000E+00 0. -1.
         21    1    1    2  505  504 -0.65675221367E+02  0.31580941886E+01  0.25850381798E+03  0.26673475996E+03  0.00000000000E+00 0. -1.
         21    1    1    2  506  502  0.94241396997E+02  0.27674001631E+02 -0.10146756793E+03  0.14121954049E+03  0.00000000000E+00 0.  1.
<scales pt_clust_3="40.71992" pt_clust_4="95.33343" pt_clust_5="40.31558" pt_clust_6="14000.00000"></scales>
<clustering>
<clus scale="   40.720">  1  3  2 -1</clus>
<clus scale="   40.316">  1  5  2 -1</clus>
<clus scale="   95.333">  1  4  2 -1</clus>
<clus scale="   40.720">  1  3  2 -1</clus>
</clustering>
</event>
<event>
 6    0  0.9315069E+002  0.1377254E+03  0.7546771E-02  0.1216423E+00
         21   -1    0    0  505  501  0.00000000000E+00  0.00000000000E+00  0.12647810981E+04  0.12647810981E+04  0.00000000000E+00 0. -1.
         21   -1    0    0  503  502 -0.00000000000E+00 -0.00000000000E+00 -0.27963895959E+03  0.27963895959E+03  0.00000000000E+00 0.  1.
         21    1    1    2  503  506  0.72827378521E+02 -0.18904906592E+02 -0.25628081697E+03  0.26709750973E+03  0.00000000000E+00 0.  1.
         21    1    1    2  504  502  0.57461627744E+02 -0.47899182877E+02  0.34347174591E+03  0.35152384076E+03  0.00000000000E+00 0. -1.
         21    1    1    2  505  504  0.33335759008E+01 -0.43546376204E+02  0.30268640860E+03  0.30582096325E+03  0.00000000000E+00 0.  1.
         21    1    1    2  506  501 -0.13362258217E+03  0.11035046567E+03  0.59526480092E+03  0.61997774392E+03  0.00000000000E+00 0. -1.
<scales pt_clust_3="75.24110" pt_clust_4="38.38291" pt_clust_5="38.38291" pt_clust_6="128.23725"></scales>
<clustering>
<clus scale="   38.383">  4  5 -1 -1</clus>
<clus scale="   75.241">  2  3  1 -1</clus>
<clus scale="  128.237">  2  6  1 -1</clus>
<clus scale="  137.725">  1  3  2 -1</clus>
</clustering>
</event>
<event>
 6    0  0.9315069E+002  0.9918985E+02  0.7546771E-02  0.1282009E+00
         21   -1    0    0  506  501  0.00000000000E+00  0.00000000000E+00  0.44060521060E+03  0.44060521060E+03  0.00000000000E+00 0.  1.
         21   -1    0    0  503  502 -0.00000000000E+00 -0.00000000000E+00 -0.24751600267E+03  0.24751600267E+03  0.00000000000E+00 0.  1.
         21    1    1    2  503  504 -0.45423214770E+02  0.13425751335E+02 -0.12102368235E+03  0.12996249816E+03  0.00000000000E+00 0.  1.
         21    1    1    2  504  505  0.42964026601E+02  0.50243243081E+02 -0.63602125825E+02  0.91736151361E+02  0.00000000000E+00 0.  1.
         21    1    1    2  505  501 -0.66552775122E+02  0.18586332722E+02 -0.46621686188E+01  0.69256475919E+02  0.00000000000E+00 0.  1.
         21    1    1    2  506  502  0.69011963291E+02 -0.82255327138E+02  0.38237718473E+03  0.39716608783E+03  0.00000000000E+00 0.  1.
<scales pt_clust_3="47.36580" pt_clust_4="60.44487" pt_clust_5="99.18985" pt_clust_6="14000.00000"></scales>
<clustering>
<clus scale="   47.366">  2  3  1 -1</clus>
<clus scale="   60.445">  2  4  1 -1</clus>
<clus scale="   99.190">  2  5  1 -1</clus>
<clus scale="   99.190">  1  3  2 -1</clus>
</clustering>
</event>
<event>
 6    0  0.9315069E+002  0.1241310E+03  0.7546771E-02  0.1236434E+00
         21   -1    0    0  506  501  0.00000000000E+00  0.00000000000E+00  0.50979868070E+02  0.50979868070E+02  0.00000000000E+00 0. -1.
         21   -1    0    0  504  502 -0.00000000000E+00 -0.00000000000E+00 -0.73581979391E+03  0.73581979391E+03  0.00000000000E+00 0. -1.
         21    1    1    2  503  502  0.22739787234E+02 -0.24399903818E+02 -0.14387903723E+03  0.14769438237E+03  0.00000000000E+00 0. -1.
         21    1    1    2  504  505 -0.39665209212E+02 -0.11421958172E+02 -0.24431903367E+03  0.24778131521E+03  0.00000000000E+00 0. -1.
         21    1    1    2  505  501 -0.56682148035E+02  0.12577372272E+03 -0.17843889152E+03  0.22554895974E+03  0.00000000000E+00 0. -1.
         21    1    1    2  506  503  0.73607570014E+02 -0.89951860727E+02 -0.11820296342E+03  0.16577500467E+03  0.00000000000E+00 0. -1.
<scales pt_clust_3="33.35346" pt_clust_4="37.11349" pt_clust_5="124.13098" pt_clust_6="14000.00000"></scales>
<clustering>
<clus scale="   33.353">  2  3  1 -1</clus>
<clus scale="   37.113">  2  4  1 -1</clus>
<clus scale="  124.131">  2  5  1 -1</clus>
<clus scale="  124.131">  1  3  2 -1</clus>
</clustering>
</event>
<event>
 6    0  0.9315069E+002  0.1541635E+03  0.7546771E-02  0.1195448E+00
         21   -1    0    0  504  501  0.00000000000E+00  0.00000000000E+00  0.16844308181E+04  0.16844308181E+04  0.00000000000E+00 0. -1.
         21   -1    0    0  503  502 -0.00000000000E+00 -0.00000000000E+00 -0.78924358827E+03  0.78924358827E+03  0.00000000000E+00 0. -1.
         21    1    1    2  503  505  0.72128477690E+01 -0.35309077163E+02  0.12801653652E+02  0.38244456320E+02  0.00000000000E+00 0.  1.
         21    1    1    2  504  506 -0.50414720938E+02 -0.91928233455E+02 -0.47905451412E+03  0.49039338463E+03  0.00000000000E+00 0. -1.
         21    1    1    2  505  501  0.15701177240E+02  0.15379352933E+03  0.16483537075E+04  0.16555871833E+04  0.00000000000E+00 0. -1.
         21    1    1    2  506  502  0.27500695928E+02 -0.26556218707E+02 -0.28691361721E+03  0.28944938205E+03  0.00000000000E+00 0. -1.
<scales pt_clust_3="36.03826" pt_clust_4="154.16353" pt_clust_5="14000.00000" pt_clust_6="49.83576"></scales>
<clustering>
<clus scale="   36.038">  2  3  1 -1</clus>
<clus scale="   49.836">  2  6  1 -1</clus>
<clus scale="  154.164">  2  4  1 -1</clus>
<clus scale="  154.164">  1  3  2 -1</clus>
</clustering>
</event>
<event>
 6    0  0.9315069E+002  0.1408750E+03  0.7546771E-02  0.1212156E+00
         21   -1    0    0  504  501  0.00000000000E+00  0.00000000000E+00  0.66336323092E+03  0.66336323092E+03  0.00000000000E+00 0. -1.
         21   -1    0    0  503  502 -0.00000000000E+00 -0.00000000000E+00 -0.58892913624E+02  0.58892913624E+02  0.00000000000E+00 0. -1.
         21    1    1    2  503  506 -0.42338270690E+02  0.91654946921E+00  0.16893932825E+02  0.45593576239E+02  0.00000000000E+00 0. -1.
         21    1    1    2  504  505  0.32595051488E+02  0.30787108957E+02  0.28509958254E+03  0.28860363031E+03  0.00000000000E+00 0. -1.
         21    1    1    2  505  502  0.78394219788E+02  0.38857293145E+02  0.27088824474E+03  0.28466819996E+03  0.00000000000E+00 0. -1.
         21    1    1    2  506  501 -0.68651000586E+02 -0.70560951570E+02  0.31588557186E+02  0.10339073804E+03  0.00000000000E+00 0. -1.
<scales pt_clust_3="33.93323" pt_clust_4="34.69582" pt_clust_5="139.70729" pt_clust_6="33.93323"></scales>
<clustering>
<clus scale="   33.933">  3  6 -1 -1</clus>
<clus scale="   34.696">  4  5 -1 -1</clus>
<clus scale="  139.707">  1  4  2 -1</clus>
<clus scale="  139.707">  1  3  2 -1</clus>
</clustering>
</event>
<event>
 6    0  0.9315069E+002  0.1836085E+03  0.7546771E-02  0.1164356E+00
         21   -1    0    0  504  501  0.00000000000E+00  0.00000000000E+00  0.15941161245E+04  0.15941161245E+04  0.00000000000E+00 0. -1.
         21   -1    0    0  503  502 -0.00000000000E+00 -0.00000000000E+00 -0.10732328776E+03  0.10732328776E+03  0.00000000000E+00 0.  1.
         21    1    1    2  503  506  0.28994282307E+02  0.22377286901E+02 -0.26489356661E+02  0.45200634862E+02  0.00000000000E+00 0.  1.
         21    1    1    2  504  502 -0.18175814270E+03  0.87857444938E+01  0.14817593383E+04  0.14928911375E+04  0.00000000000E+00 0. -1.
         21    1    1    2  505  501  0.68640892334E+02 -0.21145977347E+02  0.31996916977E+02  0.78629047777E+02  0.00000000000E+00 0.  1.
         21    1    1    2  506  505  0.84122968061E+02 -0.10017054048E+02 -0.47406183125E+00  0.84718592185E+02  0.00000000000E+00 0.  1.
<scales pt_clust_3="36.62528" pt_clust_4="179.80890" pt_clust_5="34.21524" pt_clust_6="34.21524"></scales>
<clustering>
<clus scale="   34.215">  5  6 -1 -1</clus>
<clus scale="   36.625">  2  3  1 -1</clus>
<clus scale="  179.809">  1  4  2 -1</clus>
<clus scale="  179.809">  1  3  2 -1</clus>
</clustering>
</event>
<event>
 6    0  0.9315069E+002  0.1152172E+03  0.7546771E-02  0.1251202E+00
         21   -1    0    0  505  501  0.00000000000E+00  0.00000000000E+00  0.42123862984E+03  0.42123862984E+03  0.00000000000E+00 0. -1.
         21   -1    0    0  506  502 -0.00000000000E+00 -0.00000000000E+00 -0.97051725517E+02  0.97051725517E+02  0.00000000000E+00 0. -1.
         21    1    1    2  503  501  0.62964519904E+02 -0.10526414116E+03  0.23787011973E+03  0.26763270361E+03  0.00000000000E+00 0. -1.
         21    1    1    2  504  503 -0.50365646009E+02  0.89043812839E+02  0.75258461849E+02  0.12700131882E+03  0.00000000000E+00 0. -1.
         21    1    1    2  505  502 -0.31452494307E+02 -0.22988087805E+02 -0.40499558745E+02  0.56195425416E+02  0.00000000000E+00 0. -1.
         21    1    1    2  506  504  0.18853620412E+02  0.39208416131E+02  0.51557881489E+02  0.67460907508E+02  0.00000000000E+00 0. -1.
<scales pt_clust_3="115.21720" pt_clust_4="14000.00000" pt_clust_5="38.95782" pt_clust_6="38.01688"></scales>
<clustering>
<clus scale="   38.958">  2  5  1 -1</clus>
<clus scale="   38.017">  2  6  1 -1</clus>
<clus scale="  115.217">  1  3  2 -1</clus>
<clus scale="  115.217">  1  3  2 -1</clus>
</clustering>
</event>
<event>
 6    0  0.9771374E+002  0.2211056E+03  0.7546771E-02  0.1133061E+00
         21   -1    0    0  502  501  0.00000000000E+00  0.00000000000E+00  0.19806777199E+04  0.19806777199E+04  0.00000000000E+00 0.  1.
         21   -1    0    0  503  502 -0.00000000000E+00 -0.00000000000E+00 -0.21025647596E+03  0.21025647596E+03  0.00000000000E+00 0.  1.
         21    1    1    2  503  505 -0.93942254488E+02  0.16022867922E+03 -0.16166376510E+03  0.24623880639E+03  0.00000000000E+00 0.  1.
         21    1    1    2  504  506  0.45231283172E+02 -0.54140443136E+02  0.57971448453E+03  0.58399138703E+03  0.00000000000E+00 0. -1.
         21    1    1    2  505  504  0.31691377629E+02 -0.14349848281E+02  0.12378587644E+03  0.12858151021E+03  0.00000000000E+00 0. -1.
         21    1    1    2  506  501  0.17019593686E+02 -0.91738387807E+02  0.12285846481E+04  0.12321224922E+04  0.00000000000E+00 0.  1.
<scales pt_clust_3="185.73739" pt_clust_4="87.20664" pt_clust_5="33.23064" pt_clust_6="87.20664"></scales>
<clustering>
<clus scale="   33.231">  4  5 -1 -1</clus>
<clus scale="   87.207">  4  6 -1 -1</clus>
<clus scale="  185.737">  2  3  1 -1</clus>
<clus scale="  221.106">  1  3  2 -1</clus>
</clustering>
</event>
<event>
 6    0  0.9315069E+002  0.1272619E+03  0.7546771E-02  0.1231576E+00
         21   -1    0    0  505  501  0.00000000000E+00  0.00000000000E+00  0.60860992983E+03  0.60860992983E+03  0.00000000000E+00 0.  1.
         21   -1    0    0  501  502 -0.00000000000E+00 -0.00000000000E+00 -0.24617701928E+03  0.24617701928E+03  0.00000000000E+00 0. -1.
         21    1    1    2  503  504 -0.35410387186E+02 -0.29462954944E+02  0.73283128722E+02  0.86558524653E+02  0.00000000000E+00 0.  1.
         21    1    1    2  504  506  0.10327572792E+03 -0.12217505638E+03  0.13276574529E+03  0.20789267303E+03  0.00000000000E+00 0.  1.
         21    1    1    2  505  503 -0.25553971372E+02  0.34504155133E+02  0.33767180917E+03  0.34039064747E+03  0.00000000000E+00 0.  1.
         21    1    1    2  506  502 -0.42311369358E+02  0.11713385619E+03 -0.18128777264E+03  0.21994510395E+03  0.00000000000E+00 0. -1.
<scales pt_clust_3="47.09302" pt_clust_4="14000.00000" pt_clust_5="42.93649" pt_clust_6="127.26188"></scales>
<clustering>
<clus scale="   42.936">  1  5  2 -1</clus>
<clus scale="   47.093">  1  3  2 -1</clus>
<clus scale="  127.262">  2  6  1 -1</clus>
<clus scale="   42.936">  1  3  2 -1</clus>
</clustering>
</event>
<event>
 6    0  0.9315069E+002  0.3278715E+03  0.7546771E-02  0.1072083E+00
         21   -1    0    0  504  501  0.00000000000E+00  0.00000000000E+00  0.17709360403E+04  0.17709360403E+04  0.00000000000E+00 0.  1.
         21   -1    0    0  503  502 -0.00000000000E+00 -0.00000000000E+00 -0.38126984028E+03  0.38126984028E+03  0.00000000000E+00 0.  1.
         21    1    1    2  503  506 -0.22796175526E+03 -0.23890338527E+03 -0.17022872110E+03  0.37150936306E+03  0.00000000000E+00 0.  1.
         21    1    1    2  504  502 -0.20736559975E+01 -0.38663146429E+02  0.15294680076E+02  0.41630111454E+02  0.00000000000E+00 0.  1.
         21    1    1    2  505  501  0.68852522261E+02  0.28417992252E+02  0.14121413120E+04  0.14141044294E+04  0.00000000000E+00 0.  1.
         21    1    1    2  506  505  0.16118288899E+03  0.24914853945E+03  0.13245892905E+03  0.32496197670E+03  0.00000000000E+00 0.  1.
<scales pt_clust_3="327.87150" pt_clust_4="38.71872" pt_clust_5="74.44220" pt_clust_6="14000.00000"></scales>
<clustering>
<clus scale="   38.719">  2  4  1 -1</clus>
<clus scale="   74.442">  1  5  2 -1</clus>
<clus scale="  327.871">  2  3  1 -1</clus>
<clus scale="   74.442">  1  3  2 -1</clus>
</clustering>
</event>
<event>
 6    0  0.9315069E+002  0.1615010E+03  0.7546771E-02  0.1187012E+00
         21   -1    0    0  504  501  0.00000000000E+00  0.00000000000E+00  0.11500366625E+04  0.11500366625E+04  0.00000000000E+00 0.  1.
         21   -1    0    0  503  502 -0.00000000000E+00 -0.00000000000E+00 -0.55941367142E+02  0.55941367142E+02  0.00000000000E+00 0. -1.
         21    1    1    2  503  501  0.13393917717E+03 -0.10377266241E+03  0.55658723260E+03  0.58180565152E+03  0.00000000000E+00 0.  1.
         21    1    1    2  504  505  0.29634044651E+02 -0.58789596093E+01  0.26134492111E+03  0.26308535983E+03  0.00000000000E+00 0.  1.
         21    1    1    2  505  506 -0.13849326396E+03  0.43371859684E+02  0.24255354295E+03  0.28265477808E+03  0.00000000000E+00 0.  1.
         21    1    1    2  506  502 -0.25079957864E+02  0.66279762336E+02  0.33609598719E+02  0.78432240232E+02  0.00000000000E+00 0. -1.
<scales pt_clust_3="161.50105" pt_clust_4="30.21157" pt_clust_5="14000.00000" pt_clust_6="69.87616"></scales>
<clustering>
<clus scale="   30.212">  1  4  2 -1</clus>
<clus scale="   69.876">  2  6  1 -1</clus>
<clus scale="  161.501">  1  3  2 -1</clus>
<clus scale="   30.212">  1  3  2 -1</clus>
</clustering>
</event>
<event>
 6    0  0.9315069E+002  0.1125590E+03  0.7546771E-02  0.1255903E+00
         21   -1    0    0  503  501  0.00000000000E+00  0.00000000000E+00  0.91795881880E+03  0.91795881880E+03  0.00000000000E+00 0.  1.
         21   -1    0    0  505  502 -0.00000000000E+00 -0.00000000000E+00 -0.64462196180E+02  0.64462196180E+02  0.00000000000E+00 0.  1.
         21    1    1    2  503  504  0.26216644570E+02  0.26672640791E+02  0.80404941565E+02  0.88677487827E+02  0.00000000000E+00 0. -1.
         21    1    1    2  504  502 -0.80722449916E+02  0.84452032429E+02  0.10702477480E+02  0.11731497230E+03  0.00000000000E+00 0.  1.
         21    1    1    2  505  506  0.72176091357E+01 -0.95070275998E+02  0.55358196276E+03  0.56173253489E+03  0.00000000000E+00 0.  1.
         21    1    1    2  506  501  0.47288196210E+02 -0.16054397221E+02  0.20880724082E+03  0.21469601997E+03  0.00000000000E+00 0.  1.
<scales pt_clust_3="37.39976" pt_clust_4="14000.00000" pt_clust_5="112.55902" pt_clust_6="54.74113"></scales>
<clustering>
<clus scale="   37.400">  1  3  2 -1</clus>
<clus scale="   54.741">  1  6  2 -1</clus>
<clus scale="  112.559">  1  5  2 -1</clus>
<clus scale="   37.400">  1  3  2 -1</clus>
</clustering>
</event>
<event>
 6    0  0.9315069E+002  0.6133889E+02  0.7546771E-02  0.1392297E+00
         21   -1    0    0  505  501  0.00000000000E+00  0.00000000000E+00  0.10611855362E+03  0.10611855362E+03  0.00000000000E+00 0. -1.
         21   -1    0    0  506  502 -0.00000000000E+00 -0.00000000000E+00 -0.31671081959E+03  0.31671081959E+03  0.00000000000E+00 0. -1.
         21    1    1    2  503  501  0.48625756115E+02  0.19971594578E+02 -0.15747204885E+02  0.54875342454E+02  0.00000000000E+00 0. -1.
         21    1    1    2  504  503  0.64836368428E+02 -0.47224126373E+02  0.13036232095E+02  0.81263867308E+02  0.00000000000E+00 0. -1.
         21    1    1    2  505  502 -0.57016223035E+02  0.69717116156E+01  0.12080549728E+02  0.58697479791E+02  0.00000000000E+00 0. -1.
         21    1    1    2  506  504 -0.56445901507E+02  0.20280820179E+02 -0.21996184291E+03  0.22799268365E+03  0.00000000000E+00 0. -1.
<scales pt_clust_3="52.56737" pt_clust_4="61.33889" pt_clust_5="40.10163" pt_clust_6="14000.00000"></scales>
<clustering>
<clus scale="   52.567">  1  3  2 -1</clus>
<clus scale="   40.102">  1  5  2 -1</clus>
<clus scale="   61.339">  1  4  2 -1</clus>
<clus scale="   52.567">  1  3  2 -1</clus>
</clustering>
</event>
<event>
 6    0  0.9315069E+002  0.1221084E+03  0.7546771E-02  0.1239659E+00
         21   -1    0    0  504  501  0.00000000000E+00  0.00000000000E+00  0.39574264550E+03  0.39574264550E+03  0.00000000000E+00 0.  1.
         21   -1    0    0  505  502 -0.00000000000E+00 -0.00000000000E+00 -0.12149471819E+03  0.12149471819E+03  0.00000000000E+00 0.  1.
         21    1    1    2  503  501 -0.42501322426E+02  0.75958136328E+02  0.95124138018E+02  0.12893642820E+03  0.00000000000E+00 0.  1.
         21    1    1    2  504  502  0.61125192207E+01 -0.62754431398E+02  0.23546065228E+02  0.67304522426E+02  0.00000000000E+00 0.  1.
         21    1    1    2  505  506  0.12533731313E+03 -0.19029432962E+02 -0.15867446170E+02  0.12776281630E+03  0.00000000000E+00 0.  1.
         21    1    1    2  506  503 -0.88948509924E+02  0.58257280318E+01  0.17144517024E+03  0.19323359677E+03  0.00000000000E+00 0.  1.
<scales pt_clust_3="77.35872" pt_clust_4="63.05142" pt_clust_5="14000.00000" pt_clust_6="122.10844"></scales>
<clustering>
<clus scale="   63.051">  2  4  1 -1</clus>
<clus scale="   77.359">  1  3  2 -1</clus>
<clus scale="  122.108">  1  6  2 -1</clus>
<clus scale="   77.359">  1  3  2 -1</clus>
</clustering>
</event>
<event>
 6    0  0.9315069E+002  0.1406833E+03  0.7546771E-02  0.1212412E+00
         21   -1    0    0  506  501  0.00000000000E+00  0.00000000000E+00  0.25415006919E+03  0.25415006919E+03  0.00000000000E+00 0. -1.
         21   -1    0    0  504  502 -0.00000000000E+00 -0.00000000000E+00 -0.33644223403E+03  0.33644223403E+03  0.00000000000E+00 0.  1.
         21    1    1    2  503  501 -0.61373476846E+01  0.47906973582E+02  0.91728245035E+02  0.10366685146E+03  0.00000000000E+00 0. -1.
         21    1    1    2  504  505  0.23098824229E+02 -0.43827878570E+02  0.48490664750E+02  0.69323756308E+02  0.00000000000E+00 0. -1.
         21    1    1    2  505  503  0.10104719273E+03 -0.47764701174E+02  0.46158301333E+02  0.12092390425E+03  0.00000000000E+00 0. -1.
         21    1    1    2  506  502 -0.11800866928E+03  0.43685606162E+02 -0.26866937596E+03  0.29667779120E+03  0.00000000000E+00 0.  1.
<scales pt_clust_3="48.29850" pt_clust_4="39.01664" pt_clust_5="39.01664" pt_clust_6="127.89641"></scales>
<clustering>
<clus scale="   39.017">  4  5 -1 -1</clus>
<clus scale="   48.299">  1  3  2 -1</clus>
<clus scale="  127.896">  2  6  1 -1</clus>
<clus scale="   48.299">  1  3  2 -1</clus>
</clustering>
</event>
<event>
 6    0  0.9315069E+002  0.1649677E+03  0.7546771E-02  0.1183200E+00
         21   -1    0    0  503  501  0.00000000000E+00  0.00000000000E+00  0.57007162581E+03  0.57007162581E+03  0.00000000000E+00 0.  1.
         21   -1    0    0  506  502 -0.00000000000E+00 -0.00000000000E+00 -0.23784852622E+03  0.23784852622E+03  0.00000000000E+00 0.  1.
         21    1    1    2  503  502 -0.88672520383E+02  0.10856189470E+03  0.11158284457E+03  0.17916258553E+03  0.00000000000E+00 0.  1.
         21    1    1    2  504  505  0.21271426981E+02 -0.17653463655E+03 -0.35210760047E+02  0.18126430739E+03  0.00000000000E+00 0.  1.
         21    1    1    2  505  501  0.35801581485E+02  0.80022397892E+02  0.34299290511E+03  0.35401902542E+03  0.00000000000E+00 0.  1.
         21    1    1    2  506  504  0.31599511917E+02 -0.12049656036E+02 -0.87141890047E+02  0.93474233696E+02  0.00000000000E+00 0.  1.
<scales pt_clust_3="164.96772" pt_clust_4="14000.00000" pt_clust_5="87.74634" pt_clust_6="33.81898"></scales>
<clustering>
<clus scale="   33.819">  2  6  1 -1</clus>
<clus scale="   87.746">  1  5  2 -1</clus>
<clus scale="  164.968">  1  3  2 -1</clus>
<clus scale="   87.746">  1  3  2 -1</clus>
</clustering>
</event>
<event>
 6    0  0.9315069E+002  0.1164695E+03  0.7546771E-02  0.1249038E+00
         21   -1    0    0  505  501  0.00000000000E+00  0.00000000000E+00  0.56754973295E+03  0.56754973295E+03  0.00000000000E+00 0. -1.
         21   -1    0    0  503  502 -0.00000000000E+00 -0.00000000000E+00 -0.34255921976E+03  0.34255921976E+03  0.00000000000E+00 0.  1.
         21    1    1    2  503  501  0.25156113196E+02  0.10498142200E+03 -0.27177230352E+03  0.29242796370E+03  0.00000000000E+00 0.  1.
         21    1    1    2  504  502 -0.66068152251E+02 -0.67956100802E+02  0.43169922410E+02  0.10414736952E+03  0.00000000000E+00 0.  1.
         21    1    1    2  505  506  0.92336574162E+02 -0.19339704588E+02  0.44917334504E+03  0.45897359509E+03  0.00000000000E+00 0. -1.
         21    1    1    2  506  504 -0.51424535106E+02 -0.17685616606E+02  0.44195492673E+01  0.54560024389E+02  0.00000000000E+00 0.  1.
<scales pt_clust_3="108.53985" pt_clust_4="31.99587" pt_clust_5="94.34017" pt_clust_6="31.99587"></scales>
<clustering>
<clus scale="   31.996">  4  6 -1 -1</clus>
<clus scale="   94.340">  1  5  2 -1</clus>
<clus scale="  108.540">  2  3  1 -1</clus>
<clus scale="   94.340">  1  3  2 -1</clus>
</clustering>
</event>
<event>
 6    0  0.9315069E+002  0.1314517E+03  0.7546771E-02  0.1225317E+00
         21   -1    0    0  506  501  0.00000000000E+00  0.00000000000E+00  0.19672583725E+03  0.19672583725E+03  0.00000000000E+00 0. -1.
         21   -1    0    0  505  502 -0.00000000000E+00 -0.00000000000E+00 -0.37816247337E+03  0.37816247337E+03  0.00000000000E+00 0.  1.
         21    1    1    2  503  502  0.32577947794E+02 -0.21753793511E+02 -0.16307685826E+02  0.42432190983E+02  0.00000000000E+00 0. -1.
         21    1    1    2  504  503  0.52784296852E+01  0.52648646106E+02 -0.72176844336E+02  0.89494349626E+02  0.00000000000E+00 0.  1.
         21    1    1    2  505  501  0.79725040305E+02 -0.93751578200E+02 -0.22427392452E+03  0.25582070613E+03  0.00000000000E+00 0.  1.
         21    1    1    2  506  504 -0.11758141778E+03  0.62856725605E+02  0.13132181856E+03  0.18714106389E+03  0.00000000000E+00 0. -1.
<scales pt_clust_3="39.17334" pt_clust_4="49.30520" pt_clust_5="131.45169" pt_clust_6="14000.00000"></scales>
<clustering>
<clus scale="   39.173">  2  3  1 -1</clus>
<clus scale="   49.305">  2  4  1 -1</clus>
<clus scale="  131.452">  2  5  1 -1</clus>
<clus scale="  131.452">  1  3  2 -1</clus>
</clustering>
</event>
<event>
 6    0  0.9315069E+002  0.1891967E+03  0.7546771E-02  0.1159188E+00
         21   -1    0    0  505  501  0.00000000000E+00  0.00000000000E+00  0.14500525211E+03  0.14500525211E+03  0.00000000000E+00 0.  1.
         21   -1    0    0  504  502 -0.00000000000E+00 -0.00000000000E+00 -0.15724303357E+04  0.15724303357E+04  0.00000000000E+00 0.  1.
         21    1    1    2  503  501  0.28787030572E+02 -0.30221740388E+02  0.77592607485E+02  0.88105955857E+02  0.00000000000E+00 0.  1.
         21    1    1    2  504  503 -0.54857195440E+02  0.21674496356E+03 -0.13369133568E+04  0.13554796254E+04  0.00000000000E+00 0.  1.
         21    1    1    2  505  506  0.39017256420E+01 -0.15912145438E+03 -0.78318930620E+02  0.17739423779E+03  0.00000000000E+00 0.  1.
         21    1    1    2  506  502  0.22168439226E+02 -0.27401768798E+02 -0.89785403618E+02  0.96455768795E+02  0.00000000000E+00 0. -1.
<scales pt_clust_3="41.86267" pt_clust_4="189.19668" pt_clust_5="14000.00000" pt_clust_6="35.24623"></scales>
<clustering>
<clus scale="   35.246">  2  6  1 -1</clus>
<clus scale="   41.863">  1  3  2 -1</clus>
<clus scale="  189.197">  2  4  1 -1</clus>
<clus scale="   41.863">  1  3  2 -1</clus>
</clustering>
</event>
<event>
 6    0  0.9315069E+002  0.1195834E+03  0.7546771E-02  0.1243786E+00
         21   -1    0    0  505  501  0.00000000000E+00  0.00000000000E+00  0.10533961104E+04  0.10533961104E+04  0.00000000000E+00 0. -1.
         21   -1    0    0  506  502 -0.00000000000E+00 -0.00000000000E+00 -0.52944369501E+02  0.52944369501E+02  0.00000000000E+00 0.  1.
         21    1    1    2  503  504 -0.27061286812E+02  0.25587523333E+02  0.48025537242E+02  0.60774063725E+02  0.00000000000E+00 0.  1.
         21    1    1    2  504  502  0.13156131805E+03  0.51302699477E+02  0.12882287245E+03  0.19114308736E+03  0.00000000000E+00 0.  1.
         21    1    1    2  505  503 -0.20245529084E+02 -0.25692358055E+02  0.67677925933E+03  0.67756929134E+03  0.00000000000E+00 0. -1.
         21    1    1    2  506  501 -0.84254502152E+02 -0.51197864755E+02  0.14682407189E+03  0.17685403748E+03  0.00000000000E+00 0.  1.
<scales pt_clust_3="37.11778" pt_clust_4="14000.00000" pt_clust_5="32.71053" pt_clust_6="119.58344"></scales>
<clustering>
<clus scale="   32.711">  1  5  2 -1</clus>
<clus scale="   37.118">  1  3  2 -1</clus>
<clus scale="  119.583">  1  6  2 -1</clus>
<clus scale="   32.711">  1  3  2 -1</clus>
</clustering>
</event>
<event>
 6    0  0.9315069E+002  0.1005549E+03  0.7546771E-02  0.1279133E+00
         21   -1    0    0  505  501  0.00000000000E+00  0.00000000000E+00  0.14599041766E+03  0.14599041766E+03  0.00000000000E+00 0.  1.
         21   -1    0    0  506  502 -0.00000000000E+00 -0.00000000000E+00 -0.20854358492E+04  0.20854358492E+04  0.00000000000E+00 0.  1.
         21    1    1    2  503  501 -0.32523649193E+02 -0.53139767963E+02  0.13115057378E+03  0.14519674823E+03  0.00000000000E+00 0.  1.
         21    1    1    2  504  502  0.43249110366E+02  0.22528730952E+02 -0.38798683066E+03  0.39103939703E+03  0.00000000000E+00 0.  1.
         21    1    1    2  505  504  0.71501894258E+02  0.49206999950E+02 -0.37703532937E+03  0.38689725938E+03  0.00000000000E+00 0.  1.
         21    1    1    2  506  503 -0.82227355430E+02 -0.18595962939E+02 -0.13055738453E+04  0.13082928622E+04  0.00000000000E+00 0.  1.
<scales pt_clust_3="62.30267" pt_clust_4="30.10098" pt_clust_5="30.10098" pt_clust_6="92.18758"></scales>
<clustering>
<clus scale="   30.101">  4  5 -1 -1</clus>
<clus scale="   62.303">  1  3  2 -1</clus>
<clus scale="   92.188">  2  6  1 -1</clus>
<clus scale="   62.303">  1  3  2 -1</clus>
</clustering>
</event>
<event>
 6    0  0.9315069E+002  0.1408210E+03  0.7546771E-02  0.1212229E+00
         21   -1    0    0  506  501  0.00000000000E+00  0.00000000000E+00  0.46075520948E+03  0.46075520948E+03  0.00000000000E+00 0.  1.
         21   -1    0    0  501  502 -0.00000000000E+00 -0.00000000000E+00 -0.42519378958E+03  0.42519378958E+03  0.00000000000E+00 0. -1.
         21    1    1    2  503  505 -0.32519697023E+00  0.82193604249E+02  0.28897650154E+03  0.30043853410E+03  0.00000000000E+00 0.  1.
         21    1    1    2  504  502  0.42915981810E+02 -0.13987617058E+03 -0.37643294189E+03  0.40386740934E+03  0.00000000000E+00 0. -1.
         21    1    1    2  505  504 -0.34318967164E+02  0.91901281973E+02  0.84671253687E+02  0.12958726147E+03  0.00000000000E+00 0.  1.
         21    1    1    2  506  503 -0.82718176754E+01 -0.34218715645E+02  0.38346606564E+02  0.52055794135E+02  0.00000000000E+00 0. -1.
<scales pt_clust_3="58.25592" pt_clust_4="14000.00000" pt_clust_5="140.82099" pt_clust_6="35.20431"></scales>
<clustering>
<clus scale="   35.204">  1  6  2 -1</clus>
<clus scale="   58.256">  1  3  2 -1</clus>
<clus scale="  140.821">  1  5  2 -1</clus>
<clus scale="   35.204">  1  3  2 -1</clus>
</clustering>
</event>
<event>
 6    0  0.9315069E+002  0.1730005E+03  0.7546771E-02  0.1174754E+00
         21   -1    0    0  506  501  0.00000000000E+00  0.00000000000E+00  0.19401754926E+03  0.19401754926E+03  0.00000000000E+00 0. -1.
         21   -1    0    0  505  502 -0.00000000000E+00 -0.00000000000E+00 -0.20177919963E+03  0.20177919963E+03  0.00000000000E+00 0. -1.
         21    1    1    2  503  501 -0.53656417076E+02 -0.16501598331E+02  0.55736900893E+01  0.56412586026E+02  0.00000000000E+00 0. -1.
         21    1    1    2  504  502  0.17160030137E+02 -0.62794448656E+02 -0.11166852940E+02  0.66047770749E+02  0.00000000000E+00 0. -1.
         21    1    1    2  505  503 -0.59832787650E+02  0.14477484820E+03 -0.64097339758E+01  0.15678266435E+03  0.00000000000E+00 0. -1.
         21    1    1    2  506  504  0.96329174589E+02 -0.65478801214E+02  0.42412464587E+01  0.11655372777E+03  0.00000000000E+00 0. -1.
<scales pt_clust_3="56.13656" pt_clust_4="47.05348" pt_clust_5="161.14486" pt_clust_6="47.05348"></scales>
<clustering>
<clus scale="   47.053">  4  6 -1 -1</clus>
<clus scale="   56.137">  1  3  2 -1</clus>
<clus scale="  161.145">  2  5  1 -1</clus>
<clus scale="   56.137">  1  3  2 -1</clus>
</clustering>
</event>
<event>
 6    0  0.9315069E+002  0.1083076E+03  0.7546771E-02  0.1263736E+00
         21   -1    0    0  505  501  0.00000000000E+00  0.00000000000E+00  0.20605904110E+02  0.20605904110E+02  0.00000000000E+00 0. -1.
         21   -1    0    0  503  502 -0.00000000000E+00 -0.00000000000E+00 -0.24968061837E+04  0.24968061837E+04  0.00000000000E+00 0. -1.
         21    1    1    2  503  506 -0.35408608489E+02 -0.69584379402E+02 -0.16734131850E+04  0.16752335488E+04  0.00000000000E+00 0. -1.
         21    1    1    2  504  502  0.46433745789E+02 -0.52878112701E+02 -0.50826341181E+03  0.51311195985E+03  0.00000000000E+00 0. -1.
         21    1    1    2  505  504 -0.25065957765E+02  0.91778790797E+02 -0.12986694184E+03  0.16098779849E+03  0.00000000000E+00 0. -1.
         21    1    1    2  506  501  0.14040820466E+02  0.30683701306E+02 -0.16465674095E+03  0.16807878066E+03  0.00000000000E+00 0. -1.
<scales pt_clust_3="108.30757" pt_clust_4="68.71599" pt_clust_5="14000.00000" pt_clust_6="33.74365"></scales>
<clustering>
<clus scale="   33.744">  1  6  2 -1</clus>
<clus scale="   68.716">  2  4  1 -1</clus>
<clus scale="  108.308">  2  3  1 -1</clus>
<clus scale="   33.744">  1  3  2 -1</clus>
</clustering>
</event>
<event>
 6    0  0.9315069E+002  0.8732715E+02  0.7546771E-02  0.1309457E+00
         21   -1    0    0  504  501  0.00000000000E+00  0.00000000000E+00  0.74251008923E+02  0.74251008923E+02  0.00000000000E+00 0.  1.
         21   -1    0    0  503  502 -0.00000000000E+00 -0.00000000000E+00 -0.56585256333E+03  0.56585256333E+03  0.00000000000E+00 0.  1.
         21    1    1    2  503  505  0.70061564213E+02 -0.10883169593E+02 -0.35511167953E+03  0.36212065821E+03  0.00000000000E+00 0.  1.
         21    1    1    2  504  506 -0.60773456691E+02  0.19053461712E+02 -0.10708484314E+03  0.12459378424E+03  0.00000000000E+00 0. -1.
         21    1    1    2  505  501  0.57688499445E+02 -0.90986538454E+01  0.28373856110E+02  0.64929378409E+02  0.00000000000E+00 0.  1.
         21    1    1    2  506  502 -0.66976606966E+02  0.92836172687E+00 -0.57778887842E+02  0.88459751393E+02  0.00000000000E+00 0.  1.
<scales pt_clust_3="78.31745" pt_clust_4="37.67018" pt_clust_5="58.40161" pt_clust_6="37.67018"></scales>
<clustering>
<clus scale="   37.670">  4  6 -1 -1</clus>
<clus scale="   58.402">  1  5  2 -1</clus>
<clus scale="   78.317">  2  3  1 -1</clus>
<clus scale="   58.402">  1  3  2 -1</clus>
</clustering>
</event>
<event>
 6    0  0.9315069E+002  0.8296282E+02  0.7546771E-02  0.1320848E+00
         21   -1    0    0  506  501  0.00000000000E+00  0.00000000000E+00  0.14107321707E+04  0.14107321707E+04  0.00000000000E+00 0.  1.
         21   -1    0    0  503  502 -0.00000000000E+00 -0.00000000000E+00 -0.19470240420E+03  0.19470240420E+03  0.00000000000E+00 0.  1.
         21    1    1    2  503  505  0.92590594408E+02  0.18571635649E+02 -0.11830876544E+03  0.15137664220E+03  0.00000000000E+00 0.  1.
         21    1    1    2  504  502 -0.23242475295E+01  0.33068097562E+02  0.21507763939E+02  0.39515631244E+02  0.00000000000E+00 0. -1.
         21    1    1    2  505  501 -0.17520212636E+02 -0.63109689317E+02  0.13357952920E+04  0.13374000347E+04  0.00000000000E+00 0.  1.
         21    1    1    2  506  504 -0.72746134242E+02  0.11469956105E+02 -0.22964524074E+02  0.77142266665E+02  0.00000000000E+00 0. -1.
<scales pt_clust_3="82.96282" pt_clust_4="33.14968" pt_clust_5="65.36152" pt_clust_6="14000.00000"></scales>
<clustering>
<clus scale="   33.150">  2  4  1 -1</clus>
<clus scale="   65.362">  1  5  2 -1</clus>
<clus scale="   82.963">  2  3  1 -1</clus>
<clus scale="   65.362">  1  3  2 -1</clus>
</clustering>
</event>
<event>
 6    0  0.9315069E+002  0.9052869E+02  0.7546771E-02  0.1301576E+00
         21   -1    0    0  502  501  0.00000000000E+00  0.00000000000E+00  0.20225754073E+04  0.20225754073E+04  0.00000000000E+00 0. -1.
         21   -1    0    0  506  502 -0.00000000000E+00 -0.00000000000E+00 -0.84373027579E+02  0.84373027579E+02  0.00000000000E+00 0. -1.
         21    1    1    2  503  505  0.54909901617E+02  0.11727129996E+03  0.27340156827E+03  0.30251623530E+03  0.00000000000E+00 0. -1.
         21    1    1    2  504  501 -0.40999357086E+01 -0.37199117367E+02  0.10577338661E+04  0.10583957271E+04  0.00000000000E+00 0. -1.
         21    1    1    2  505  504 -0.42193126777E+02 -0.44327924180E+02  0.67019392692E+03  0.67298226165E+03  0.00000000000E+00 0. -1.
         21    1    1    2  506  503 -0.86168391311E+01 -0.35744258409E+02 -0.63126981501E+02  0.73054210825E+02  0.00000000000E+00 0. -1.
<scales pt_clust_3="90.52869" pt_clust_4="38.16579" pt_clust_5="14000.00000" pt_clust_6="36.76822"></scales>
<clustering>
<clus scale="   36.768">  2  6  1 -1</clus>
<clus scale="   38.166">  1  4  2 -1</clus>
<clus scale="   90.529">  2  3  1 -1</clus>
<clus scale="   38.166">  1  3  2 -1</clus>
</clustering>
</event>
<event>
 6    0  0.9315069E+002  0.8902366E+02  0.7546771E-02  0.1305233E+00
         21   -1    0    0  506  501  0.00000000000E+00  0.00000000000E+00  0.98246640711E+03  0.98246640711E+03  0.00000000000E+00 0. -1.
         21   -1    0    0  505  502 -0.00000000000E+00 -0.00000000000E+00 -0.46144985022E+03  0.46144985022E+03  0.00000000000E+00 0. -1.
         21    1    1    2  503  504 -0.48670337683E+02 -0.73595959650E+02  0.14925363843E+03  0.17338343528E+03  0.00000000000E+00 0.  1.
         21    1    1    2  504  502  0.48415928686E+02 -0.43941052903E+02 -0.43735162123E+03  0.44221189364E+03  0.00000000000E+00 0. -1.
         21    1    1    2  505  501  0.19691666703E+02  0.88671689834E+02  0.21777652551E+03  0.23595983849E+03  0.00000000000E+00 0. -1.
         21    1    1    2  506  503 -0.19437257706E+02  0.28865322719E+02  0.59133801418E+03  0.59236108992E+03  0.00000000000E+00 0. -1.
<scales pt_clust_3="89.02366" pt_clust_4="65.17265" pt_clust_5="14000.00000" pt_clust_6="34.79962"></scales>
<clustering>
<clus scale="   34.800">  1  6  2 -1</clus>
<clus scale="   65.173">  2  4  1 -1</clus>
<clus scale="   89.024">  1  3  2 -1</clus>
<clus scale="   34.800">  1  3  2 -1</clus>
</clustering>
</event>
<event>
 6    0  0.9315069E+002  0.7416686E+02  0.7546771E-02  0.1346471E+00
         21   -1    0    0  504  501  0.00000000000E+00  0.00000000000E+00  0.78834940283E+02  0.78834940283E+02  0.00000000000E+00 0.  1.
         21   -1    0    0  505  502 -0.00000000000E+00 -0.00000000000E+00 -0.11063770358E+04  0.11063770358E+04  0.00000000000E+00 0.  1.
         21    1    1    2  503  502  0.18258547962E+02 -0.46163659819E+02 -0.60097048350E+03  0.60301739618E+03  0.00000000000E+00 0.  1.
         21    1    1    2  504  503 -0.69163217285E+02 -0.43429756275E+02  0.40441007790E+02  0.91132702508E+02  0.00000000000E+00 0.  1.
         21    1    1    2  505  506  0.16654140864E+02  0.10496746397E+03 -0.40369548678E+03  0.41745128452E+03  0.00000000000E+00 0.  1.
         21    1    1    2  506  501  0.34250528459E+02 -0.15374047879E+02 -0.63317133012E+02  0.73610592857E+02  0.00000000000E+00 0.  1.
<scales pt_clust_3="50.01816" pt_clust_4="74.16686" pt_clust_5="14000.00000" pt_clust_6="37.54278"></scales>
<clustering>
<clus scale="   37.543">  1  6  2 -1</clus>
<clus scale="   50.018">  2  3  1 -1</clus>
<clus scale="   74.167">  1  4  2 -1</clus>
<clus scale="   37.543">  1  3  2 -1</clus>
</clustering>
</event>
<event>
 6    0  0.9315069E+002  0.1197558E+03  0.7546771E-02  0.1243500E+00
         21   -1    0    0  504  501  0.00000000000E+00  0.00000000000E+00  0.94033295194E+02  0.94033295194E+02  0.00000000000E+00 0.  1.
         21   -1    0    0  503  502 -0.00000000000E+00 -0.00000000000E+00 -0.76272688275E+03  0.76272688275E+03  0.00000000000E+00 0.  1.
         21    1    1    2  503  506 -0.60103917633E+02  0.38369715700E+02 -0.78264872154E+02  0.10587778904E+03  0.00000000000E+00 0.  1.
         21    1    1    2  504  505 -0.87499516056E+02 -0.81202539747E+02 -0.34300565690E+02  0.12420364962E+03  0.00000000000E+00 0.  1.
         21    1    1    2  505  502  0.59428217705E+02 -0.38989749572E+02 -0.47797179750E+03  0.48322764080E+03  0.00000000000E+00 0.  1.
         21    1    1    2  506  501  0.88175215984E+02  0.81822573620E+02 -0.78156352220E+02  0.14345109850E+03  0.00000000000E+00 0.  1.
<scales pt_clust_3="48.11417" pt_clust_4="14000.00000" pt_clust_5="71.07682" pt_clust_6="119.75584"></scales>
<clustering>
<clus scale="   71.077">  2  5  1 -1</clus>
<clus scale="   48.114">  2  3  1 -1</clus>
<clus scale="  119.756">  2  6  1 -1</clus>
<clus scale="  119.756">  1  3  2 -1</clus>
</clustering>
</event>
<event>
 6    0  0.9315069E+002  0.1854119E+03  0.7546771E-02  0.1162666E+00
         21   -1    0    0  506  501  0.00000000000E+00  0.00000000000E+00  0.35063557574E+03  0.35063557574E+03  0.00000000000E+00 0. -1.
         21   -1    0    0  505  502 -0.00000000000E+00 -0.00000000000E+00 -0.21635317559E+03  0.21635317559E+03  0.00000000000E+00 0. -1.
         21    1    1    2  503  504  0.29744208935E+02  0.41431343532E+02  0.81239703655E+02  0.95922696177E+02  0.00000000000E+00 0. -1.
         21    1    1    2  504  501 -0.38681649033E+02  0.44267596479E+01  0.72589679751E+02  0.82371887068E+02  0.00000000000E+00 0.  1.
         21    1    1    2  505  503  0.13474281783E+03  0.10395166790E+03  0.55744707076E+02  0.17907833086E+03  0.00000000000E+00 0. -1.
         21    1    1    2  506  502 -0.12580537774E+03 -0.14980977108E+03 -0.75291690331E+02  0.20961583721E+03  0.00000000000E+00 0. -1.
<scales pt_clust_3="46.18892" pt_clust_4="38.93413" pt_clust_5="185.41195" pt_clust_6="14000.00000"></scales>
<clustering>
<clus scale="   38.934">  1  4  2 -1</clus>
<clus scale="   46.189">  1  3  2 -1</clus>
<clus scale="  185.412">  1  5  2 -1</clus>
<clus scale="   38.934">  1  3  2 -1</clus>
</clustering>
</event>
<event>
 6    0  0.9315069E+002  0.1507423E+03  0.7546771E-02  0.1199564E+00
         21   -1    0    0  502  501  0.00000000000E+00  0.00000000000E+00  0.16134329232E+04  0.16134329232E+04  0.00000000000E+00 0. -1.
         21   -1    0    0  506  502 -0.00000000000E+00 -0.00000000000E+00 -0.90871154611E+02  0.90871154611E+02  0.00000000000E+00 0. -1.
         21    1    1    2  503  501  0.20699605600E+02  0.31178993481E+02  0.10408088376E+04  0.10414814639E+04  0.00000000000E+00 0. -1.
         21    1    1    2  504  505 -0.12265866547E+03  0.11099185661E+02  0.16680155820E+03  0.20734295251E+03  0.00000000000E+00 0. -1.
         21    1    1    2  505  503 -0.61556771149E+02 -0.12630599525E+02  0.27829713843E+03  0.28530346191E+03  0.00000000000E+00 0. -1.
         21    1    1    2  506  504  0.16351583102E+03 -0.29647579617E+02  0.36654234394E+02  0.17017619948E+03  0.00000000000E+00 0. -1.
<scales pt_clust_3="37.42464" pt_clust_4="14000.00000" pt_clust_5="51.43616" pt_clust_6="150.74226"></scales>
<clustering>
<clus scale="   37.425">  1  3  2 -1</clus>
<clus scale="   51.436">  1  5  2 -1</clus>
<clus scale="  150.742">  2  6  1 -1</clus>
<clus scale="   37.425">  1  3  2 -1</clus>
</clustering>
</event>
<event>
 6    0  0.9315069E+002  0.1212844E+03  0.7546771E-02  0.1240993E+00
         21   -1    0    0  506  501  0.00000000000E+00  0.00000000000E+00  0.59181974705E+03  0.59181974705E+03  0.00000000000E+00 0. -1.
         21   -1    0    0  503  502 -0.00000000000E+00 -0.00000000000E+00 -0.30238039814E+03  0.30238039814E+03  0.00000000000E+00 0. -1.
         21    1    1    2  503  504  0.67351614016E+02 -0.10380321164E+03 -0.25846595329E+03  0.28655888691E+03  0.00000000000E+00 0. -1.
         21    1    1    2  504  505  0.13994015042E+02  0.11936173298E+03  0.12934448481E+03  0.17655891795E+03  0.00000000000E+00 0. -1.
         21    1    1    2  505  501 -0.49188734621E+02 -0.14962601700E+02  0.36502679674E+03  0.36862985962E+03  0.00000000000E+00 0. -1.
         21    1    1    2  506  502 -0.32156894437E+02 -0.59591964751E+00  0.53534020646E+02  0.62452480708E+02  0.00000000000E+00 0.  1.
<scales pt_clust_3="121.28440" pt_clust_4="14000.00000" pt_clust_5="72.92450" pt_clust_6="32.16242"></scales>
<clustering>
<clus scale="   32.162">  1  6  2 -1</clus>
<clus scale="   72.925">  1  5  2 -1</clus>
<clus scale="  121.284">  2  3  1 -1</clus>
<clus scale="   32.162">  1  3  2 -1</clus>
</clustering>
</event>
<event>
 6    0  0.9315069E+002  0.1982289E+03  0.7546771E-02  0.1151242E+00
         21   -1    0    0  504  501  0.00000000000E+00  0.00000000000E+00  0.39732119596E+03  0.39732119596E+03  0.00000000000E+00 0. -1.
         21   -1    0    0  506  502 -0.00000000000E+00 -0.00000000000E+00 -0.22519740042E+03  0.22519740042E+03  0.00000000000E+00 0. -1.
         21    1    1    2  503  502 -0.15503641998E+03 -0.65781708033E+02 -0.83333000737E+02  0.18790400114E+03  0.00000000000E+00 0. -1.
         21    1    1    2  504  505  0.17553428494E+03  0.31746461281E+02  0.10002677873E+03  0.20451278556E+03  0.00000000000E+00 0. -1.
         21    1    1    2  505  503  0.42730938539E+02  0.19823376533E+02 -0.13637147558E+02  0.49039485714E+02  0.00000000000E+00 0. -1.
         21    1    1    2  506  501 -0.63228803496E+02  0.14211870219E+02  0.16906716510E+03  0.18106232397E+03  0.00000000000E+00 0. -1.
<scales pt_clust_3="181.02007" pt_clust_4="41.51421" pt_clust_5="41.51421" pt_clust_6="64.80632"></scales>
<clustering>
<clus scale="   41.514">  4  5 -1 -1</clus>
<clus scale="   64.806">  1  6  2 -1</clus>
<clus scale="  181.020">  2  3  1 -1</clus>
<clus scale="   64.806">  1  3  2 -1</clus>
</clustering>
</event>
<event>
 6    0  0.9315069E+002  0.1517163E+03  0.7546771E-02  0.1198380E+00
         21   -1    0    0  504  501  0.00000000000E+00  0.00000000000E+00  0.58840295549E+02  0.58840295549E+02  0.00000000000E+00 0.  1.
         21   -1    0    0  503  502 -0.00000000000E+00 -0.00000000000E+00 -0.10600383155E+04  0.10600383155E+04  0.00000000000E+00 0.  1.
         21    1    1    2  503  506 -0.72365033564E+02  0.78823559771E+00 -0.22491231797E+03  0.23626863984E+03  0.00000000000E+00 0.  1.
         21    1    1    2  504  505  0.57037398206E+02  0.87797312175E+02 -0.31071486338E+03  0.32788009874E+03  0.00000000000E+00 0.  1.
         21    1    1    2  505  502  0.45738729167E+02  0.42844905111E+02 -0.39973739626E+03  0.40462044339E+03  0.00000000000E+00 0.  1.
         21    1    1    2  506  501 -0.30411093809E+02 -0.13143045288E+03 -0.65833442353E+02  0.15010942910E+03  0.00000000000E+00 0.  1.
<scales pt_clust_3="72.36933" pt_clust_4="50.04701" pt_clust_5="50.04701" pt_clust_6="137.23525"></scales>
<clustering>
<clus scale="   50.047">  4  5 -1 -1</clus>
<clus scale="   72.369">  2  3  1 -1</clus>
<clus scale="  137.235">  1  6  2 -1</clus>
<clus scale="  137.235">  1  3  2 -1</clus>
</clustering>
</event>
<event>
 6    0  0.9315069E+002  0.1015959E+03  0.7546771E-02  0.1276975E+00
         21   -1    0    0  502  501  0.00000000000E+00  0.00000000000E+00  0.10325381422E+04  0.10325381422E+04  0.00000000000E+00 0. -1.
         21   -1    0    0  506  502 -0.00000000000E+00 -0.00000000000E+00 -0.83600067164E+02  0.83600067164E+02  0.00000000000E+00 0. -1.
         21    1    1    2  503  504  0.45407295073E+01 -0.98921466391E+02  0.18826447472E+03  0.21271950352E+03  0.00000000000E+00 0. -1.
         21    1    1    2  504  505 -0.21152893971E+02  0.80915659939E+02  0.55417742919E+03  0.56045286329E+03  0.00000000000E+00 0. -1.
         21    1    1    2  505  501  0.38248890539E+02  0.41855526885E+02  0.26779061252E+03  0.27372737334E+03  0.00000000000E+00 0. -1.
         21    1    1    2  506  503 -0.21636726075E+02 -0.23849720432E+02 -0.61294441371E+02  0.69238469241E+02  0.00000000000E+00 0. -1.
<scales pt_clust_3="14000.00000" pt_clust_4="101.59587" pt_clust_5="51.48603" pt_clust_6="32.20182"></scales>
<clustering>
<clus scale="   32.202">  2  6  1 -1</clus>
<clus scale="   51.486">  1  5  2 -1</clus>
<clus scale="  101.596">  1  4  2 -1</clus>
<clus scale="   51.486">  1  3  2 -1</clus>
</clustering>
</event>
<event>
 6    0  0.9315069E+002  0.1132812E+03  0.7546771E-02  0.1254611E+00
         21   -1    0    0  505  501  0.00000000000E+00  0.00000000000E+00  0.48802779119E+03  0.48802779119E+03  0.00000000000E+00 0. -1.
         21   -1    0    0  504  502 -0.00000000000E+00 -0.00000000000E+00 -0.30077210232E+03  0.30077210232E+03  0.00000000000E+00 0. -1.
         21    1    1    2  503  501  0.21427920100E+02  0.30424276964E+02  0.40602706376E+03  0.40772879331E+03  0.00000000000E+00 0. -1.
         21    1    1    2  504  503  0.68856473914E+02  0.94392961988E+02 -0.52947903578E+02  0.12827597501E+03  0.00000000000E+00 0. -1.
         21    1    1    2  505  506 -0.10334368336E+03 -0.51502120237E+02 -0.88845328523E+02  0.14569103500E+03  0.00000000000E+00 0. -1.
         21    1    1    2  506  502  0.13059289341E+02 -0.73315118714E+02 -0.76978142785E+02  0.10710409020E+03  0.00000000000E+00 0. -1.
<scales pt_clust_3="37.21280" pt_clust_4="14000.00000" pt_clust_5="113.28123" pt_clust_6="69.77951"></scales>
<clustering>
<clus scale="   37.213">  1  3  2 -1</clus>
<clus scale="   69.780">  2  6  1 -1</clus>
<clus scale="  113.281">  1  5  2 -1</clus>
<clus scale="   37.213">  1  3  2 -1</clus>
</clustering>
</event>
<event>
 6    0  0.9315069E+002  0.1127556E+03  0.7546771E-02  0.1255550E+00
         21   -1    0    0  502  501  0.00000000000E+00  0.00000000000E+00  0.81433316622E+02  0.81433316622E+02  0.00000000000E+00 0. -1.
         21   -1    0    0  505  502 -0.00000000000E+00 -0.00000000000E+00 -0.71672615345E+03  0.71672615345E+03  0.00000000000E+00 0.  1.
         21    1    1    2  503  506  0.24062900817E+02  0.36498142948E+02  0.28441889013E+01  0.43808983609E+02  0.00000000000E+00 0. -1.
         21    1    1    2  504  503  0.60981548185E+02  0.69252103322E+02 -0.82016617161E+02  0.12345577558E+03  0.00000000000E+00 0. -1.
         21    1    1    2  505  504 -0.93529826391E+02 -0.73754851695E+02 -0.57869639532E+03  0.59082749134E+03  0.00000000000E+00 0.  1.
         21    1    1    2  506  501  0.84853773883E+01 -0.31995394574E+02  0.22575986754E+02  0.40067219535E+02  0.00000000000E+00 0. -1.
<scales pt_clust_3="35.37615" pt_clust_4="14000.00000" pt_clust_5="112.75556" pt_clust_6="33.10146"></scales>
<clustering>
<clus scale="   33.101">  1  6  2 -1</clus>
<clus scale="   35.376">  1  3  2 -1</clus>
<clus scale="  112.756">  2  5  1 -1</clus>
<clus scale="   33.101">  1  3  2 -1</clus>
</clustering>
</event>
<event>
 6    0  0.9315069E+002  0.1133039E+03  0.7546771E-02  0.1254571E+00
         21   -1    0    0  506  501  0.00000000000E+00  0.00000000000E+00  0.37846130236E+03  0.37846130236E+03  0.00000000000E+00 0.  1.
         21   -1    0    0  504  502 -0.00000000000E+00 -0.00000000000E+00 -0.18831090997E+03  0.18831090997E+03  0.00000000000E+00 0.  1.
         21    1    1    2  503  502 -0.35314506614E+02  0.40622704516E+00 -0.79295870853E+01  0.36196101298E+02  0.00000000000E+00 0.  1.
         21    1    1    2  504  505  0.19505243351E+02 -0.11620523710E+03 -0.97623636843E+02  0.15301792744E+03  0.00000000000E+00 0.  1.
         21    1    1    2  505  501  0.92691863916E+02  0.15262257376E+02  0.19269304596E+03  0.21437193869E+03  0.00000000000E+00 0.  1.
         21    1    1    2  506  503 -0.76882600653E+02  0.10053675268E+03  0.10301057036E+03  0.16318624491E+03  0.00000000000E+00 0.  1.
<scales pt_clust_3="35.31684" pt_clust_4="113.30390" pt_clust_5="91.67322" pt_clust_6="14000.00000"></scales>
<clustering>
<clus scale="   35.317">  2  3  1 -1</clus>
<clus scale="   91.673">  1  5  2 -1</clus>
<clus scale="  113.304">  2  4  1 -1</clus>
<clus scale="   91.673">  1  3  2 -1</clus>
</clustering>
</event>
<event>
 6    0  0.9315069E+002  0.1664347E+03  0.7546771E-02  0.1181618E+00
         21   -1    0    0  505  501  0.00000000000E+00  0.00000000000E+00  0.28651948812E+03  0.28651948812E+03  0.00000000000E+00 0. -1.
         21   -1    0    0  503  502 -0.00000000000E+00 -0.00000000000E+00 -0.14477142738E+03  0.14477142738E+03  0.00000000000E+00 0.  1.
         21    1    1    2  503  506  0.11097508880E+03 -0.85705403039E+02  0.38464935002E+02  0.14539751604E+03  0.00000000000E+00 0. -1.
         21    1    1    2  504  502 -0.43901043326E+02  0.26462305408E+02  0.26087522457E+02  0.57516206764E+02  0.00000000000E+00 0.  1.
         21    1    1    2  505  504 -0.97215088082E+02  0.79469104082E+02 -0.17673617979E+02  0.12680090152E+03  0.00000000000E+00 0.  1.
         21    1    1    2  506  501  0.30141042606E+02 -0.20226006450E+02  0.94869221264E+02  0.10157629118E+03  0.00000000000E+00 0. -1.
<scales pt_clust_3="157.90421" pt_clust_4="33.60809" pt_clust_5="33.60809" pt_clust_6="36.29840"></scales>
<clustering>
<clus scale="   33.608">  4  5 -1 -1</clus>
<clus scale="   36.298">  1  6  2 -1</clus>
<clus scale="  157.904">  1  3  2 -1</clus>
<clus scale="   36.298">  1  3  2 -1</clus>
</clustering>
</event>
<event>
 6    0  0.9315069E+002  0.1034529E+03  0.7546771E-02  0.1273198E+00
         21   -1    0    0  503  501  0.00000000000E+00  0.00000000000E+00  0.11047239757E+03  0.11047239757E+03  0.00000000000E+00 0.  1.
         21   -1    0    0  504  502 -0.00000000000E+00 -0.00000000000E+00 -0.12671261091E+04  0.12671261091E+04  0.00000000000E+00 0. -1.
         21    1    1    2  503  506 -0.29417035466E+01  0.45282691670E+02  0.40912989615E+02  0.61098678413E+02  0.00000000000E+00 0.  1.
         21    1    1    2  504  505  0.24848312534E+02 -0.27604749168E+02 -0.10107533895E+03  0.10768326220E+03  0.00000000000E+00 0.  1.
         21    1    1    2  505  501 -0.59660330018E+02 -0.12274690094E+03 -0.34230843256E+02  0.14070503651E+03  0.00000000000E+00 0.  1.
         21    1    1    2  506  502  0.37753721031E+02  0.10506895844E+03 -0.10622605190E+04  0.10681115296E+04  0.00000000000E+00 0. -1.
<scales pt_clust_3="45.12549" pt_clust_4="37.14109" pt_clust_5="14000.00000" pt_clust_6="103.45291"></scales>
<clustering>
<clus scale="   37.141">  2  4  1 -1</clus>
<clus scale="   45.125">  1  3  2 -1</clus>
<clus scale="  103.453">  2  6  1 -1</clus>
<clus scale="   45.125">  1  3  2 -1</clus>
</clustering>
</event>
<event>
 6    0  0.9315069E+002  0.1273297E+03  0.7546771E-02  0.1231473E+00
         21   -1    0    0  503  501  0.00000000000E+00  0.00000000000E+00  0.39545805320E+03  0.39545805320E+03  0.00000000000E+00 0.  1.
         21   -1    0    0  506  502 -0.00000000000E+00 -0.00000000000E+00 -0.94939539012E+02  0.94939539012E+02  0.00000000000E+00 0.  1.
         21    1    1    2  503  502 -0.68122588154E+00 -0.57788581382E+02  0.83188794856E+02  0.10129343412E+03  0.00000000000E+00 0. -1.
         21    1    1    2  504  501 -0.11215024208E+03 -0.49750497339E+02  0.16620790951E+03  0.20658619985E+03  0.00000000000E+00 0.  1.
         21    1    1    2  505  504  0.10583158285E+03  0.59985627569E+02  0.56541559655E+02  0.13414748381E+03  0.00000000000E+00 0.  1.
         21    1    1    2  506  505  0.69998851105E+01  0.47553451152E+02 -0.54197498416E+01  0.48370474428E+02  0.00000000000E+00 0.  1.
<scales pt_clust_3="51.46289" pt_clust_4="14000.00000" pt_clust_5="127.32965" pt_clust_6="48.06588"></scales>
<clustering>
<clus scale="   48.066">  2  6  1 -1</clus>
<clus scale="   51.463">  1  3  2 -1</clus>
<clus scale="  127.330">  2  5  1 -1</clus>
<clus scale="   51.463">  1  3  2 -1</clus>
</clustering>
</event>
<event>
 6    0  0.9315069E+002  0.7602051E+02  0.7546771E-02  0.1340740E+00
         21   -1    0    0  506  501  0.00000000000E+00  0.00000000000E+00  0.38734494269E+02  0.38734494269E+02  0.00000000000E+00 0.  1.
         21   -1    0    0  505  502 -0.00000000000E+00 -0.00000000000E+00 -0.10735726448E+04  0.10735726448E+04  0.00000000000E+00 0.  1.
         21    1    1    2  503  501  0.71751015872E+02  0.22142907963E+02 -0.76554780685E+02  0.10723409485E+03  0.00000000000E+00 0.  1.
         21    1    1    2  504  502 -0.66484510133E+02 -0.56843956863E+02 -0.23715808595E+03  0.25277536125E+03  0.00000000000E+00 0.  1.
         21    1    1    2  505  503  0.34929208492E+02 -0.14604043172E+02 -0.66895987611E+03  0.67003033031E+03  0.00000000000E+00 0.  1.
         21    1    1    2  506  504 -0.40195714232E+02  0.49305092072E+02 -0.52165407786E+02  0.82267352676E+02  0.00000000000E+00 0.  1.
<scales pt_clust_3="14000.00000" pt_clust_4="76.02051" pt_clust_5="37.85931" pt_clust_6="58.13514"></scales>
<clustering>
<clus scale="   37.859">  2  5  1 -1</clus>
<clus scale="   58.135">  1  6  2 -1</clus>
<clus scale="   76.021">  2  4  1 -1</clus>
<clus scale="   58.135">  1  3  2 -1</clus>
</clustering>
</event>
<event>
 6    0  0.9315069E+002  0.1795194E+03  0.7546771E-02  0.1168269E+00
         21   -1    0    0  505  501  0.00000000000E+00  0.00000000000E+00  0.21593477685E+03  0.21593477685E+03  0.00000000000E+00 0. -1.
         21   -1    0    0  504  502 -0.00000000000E+00 -0.00000000000E+00 -0.15911230460E+03  0.15911230460E+03  0.00000000000E+00 0.  1.
         21    1    1    2  503  502  0.25890232067E+02 -0.85810344885E+02  0.29514843254E+02  0.94365488279E+02  0.00000000000E+00 0. -1.
         21    1    1    2  504  506 -0.17886802484E+02  0.14631966416E+03 -0.24350094531E+02  0.14940652237E+03  0.00000000000E+00 0.  1.
         21    1    1    2  505  503  0.21123940319E+02 -0.73462623779E+02  0.61286818065E+02  0.97974751930E+02  0.00000000000E+00 0. -1.
         21    1    1    2  506  501 -0.29127369903E+02  0.12953304502E+02 -0.96290945421E+01  0.33300318867E+02  0.00000000000E+00 0.  1.
<scales pt_clust_3="169.55774" pt_clust_4="31.70747" pt_clust_5="31.60981" pt_clust_6="31.70747"></scales>
<clustering>
<clus scale="   31.610">  3  5 -1 -1</clus>
<clus scale="   31.707">  4  6 -1 -1</clus>
<clus scale="  169.558">  1  3  2 -1</clus>
<clus scale="  169.558">  1  3  2 -1</clus>
</clustering>
</event>
<event>
 6    0  0.9315069E+002  0.1109677E+03  0.7546771E-02  0.1258788E+00
         21   -1    0    0  504  501  0.00000000000E+00  0.00000000000E+00  0.21782728034E+03  0.21782728034E+03  0.00000000000E+00 0. -1.
         21   -1    0    0  503  502 -0.00000000000E+00 -0.00000000000E+00 -0.50315422174E+03  0.50315422174E+03  0.00000000000E+00 0.  1.
         21    1    1    2  503  501  0.44276922144E+01  0.49829796473E+02 -0.38582896731E+03  0.38905861395E+03  0.00000000000E+00 0.  1.
         21    1    1    2  504  506  0.37861287125E+02 -0.12250168816E+03  0.15280977850E+03  0.19947673817E+03  0.00000000000E+00 0. -1.
         21    1    1    2  505  502 -0.47868376612E+02 -0.91867985765E+00 -0.20758779867E+02  0.52183832685E+02  0.00000000000E+00 0. -1.
         21    1    1    2  506  505  0.55793972722E+01  0.73590571547E+02 -0.31548972731E+02  0.80262317279E+02  0.00000000000E+00 0. -1.
<scales pt_clust_3="60.45320" pt_clust_4="110.96773" pt_clust_5="47.87719" pt_clust_6="14000.00000"></scales>
<clustering>
<clus scale="   47.877">  2  5  1 -1</clus>
<clus scale="   60.453">  2  3  1 -1</clus>
<clus scale="  110.968">  1  4  2 -1</clus>
<clus scale="  110.968">  1  3  2 -1</clus>
</clustering>
</event>
<event>
 6    0  0.9315069E+002  0.6228716E+02  0.7546771E-02  0.1388477E+00
         21   -1    0    0  505  501  0.00000000000E+00  0.00000000000E+00  0.66589767380E+03  0.66589767380E+03  0.00000000000E+00 0.  1.
         21   -1    0    0  506  502 -0.00000000000E+00 -0.00000000000E+00 -0.34561328681E+02  0.34561328681E+02  0.00000000000E+00 0.  1.
         21    1    1    2  503  501  0.31622362472E+02 -0.21271502619E+02  0.92580257038E+02  0.10011770386E+03  0.00000000000E+00 0.  1.
         21    1    1    2  504  502 -0.79202217910E+02 -0.26072302822E+02  0.15416686010E+03  0.17527172347E+03  0.00000000000E+00 0.  1.
         21    1    1    2  505  504 -0.44679345526E+01  0.74610396101E+02  0.34780956645E+03  0.35575014850E+03  0.00000000000E+00 0.  1.
         21    1    1    2  506  503  0.52047789990E+02 -0.27266590661E+02  0.36779661539E+02  0.69319426657E+02  0.00000000000E+00 0.  1.
<scales pt_clust_3="38.11103" pt_clust_4="61.71219" pt_clust_5="14000.00000" pt_clust_6="62.28716"></scales>
<clustering>
<clus scale="   38.111">  1  3  2 -1</clus>
<clus scale="   62.287">  2  6  1 -1</clus>
<clus scale="   61.712">  2  4  1 -1</clus>
<clus scale="   38.111">  1  3  2 -1</clus>
</clustering>
</event>
<event>
 6    0  0.9315069E+002  0.1576986E+03  0.7546771E-02  0.1191320E+00
         21   -1    0    0  505  501  0.00000000000E+00  0.00000000000E+00  0.20387580137E+03  0.20387580137E+03  0.00000000000E+00 0. -1.
         21   -1    0    0  506  502 -0.00000000000E+00 -0.00000000000E+00 -0.15583507182E+04  0.15583507182E+04  0.00000000000E+00 0.  1.
         21    1    1    2  503  502  0.26898193797E+02 -0.51649287103E+02 -0.39477918762E+03  0.39905108528E+03  0.00000000000E+00 0.  1.
         21    1    1    2  504  501  0.10853291757E+03  0.11542156747E+03  0.15670955547E+03  0.22284393016E+03  0.00000000000E+00 0. -1.
         21    1    1    2  505  503 -0.92884217400E+02 -0.97637900572E+02 -0.10261425841E+04  0.10349537383E+04  0.00000000000E+00 0.  1.
         21    1    1    2  506  504 -0.42546893965E+02  0.33865620206E+02 -0.90262700531E+02  0.10537776580E+03  0.00000000000E+00 0. -1.
<scales pt_clust_3="45.13134" pt_clust_4="157.69858" pt_clust_5="14000.00000" pt_clust_6="54.37939"></scales>
<clustering>
<clus scale="   54.379">  2  6  1 -1</clus>
<clus scale="   45.131">  2  3  1 -1</clus>
<clus scale="  157.699">  1  4  2 -1</clus>
<clus scale="  157.699">  1  3  2 -1</clus>
</clustering>
</event>
<event>
 6    0  0.9315069E+002  0.7138728E+02  0.7546771E-02  0.1355438E+00
         21   -1    0    0  505  501  0.00000000000E+00  0.00000000000E+00  0.52504773799E+03  0.52504773799E+03  0.00000000000E+00 0. -1.
         21   -1    0    0  506  502 -0.00000000000E+00 -0.00000000000E+00 -0.23549929710E+03  0.23549929710E+03  0.00000000000E+00 0.  1.
         21    1    1    2  503  501  0.32507042383E+02 -0.65924583167E+02  0.47385379899E+03  0.47952078296E+03  0.00000000000E+00 0. -1.
         21    1    1    2  504  502  0.23309291934E+02  0.75788613492E+02 -0.87789938606E+02  0.11829755004E+03  0.00000000000E+00 0.  1.
         21    1    1    2  505  504 -0.36508097277E+02  0.38942117128E+02 -0.58954855406E+00  0.53382368070E+02  0.00000000000E+00 0.  1.
         21    1    1    2  506  503 -0.19308237039E+02 -0.48806147453E+02 -0.95925870948E+02  0.10934633402E+03  0.00000000000E+00 0. -1.
<scales pt_clust_3="71.38728" pt_clust_4="38.84114" pt_clust_5="14000.00000" pt_clust_6="52.48665"></scales>
<clustering>
<clus scale="   52.487">  2  6  1 -1</clus>
<clus scale="   38.841">  2  4  1 -1</clus>
<clus scale="   71.387">  1  3  2 -1</clus>
<clus scale="   71.387">  1  3  2 -1</clus>
</clustering>
</event>
<event>
 6    0  0.9315069E+002  0.1614190E+03  0.7546771E-02  0.1187104E+00
         21   -1    0    0  502  501  0.00000000000E+00  0.00000000000E+00  0.14429343170E+03  0.14429343170E+03  0.00000000000E+00 0. -1.
         21   -1    0    0  503  502 -0.00000000000E+00 -0.00000000000E+00 -0.23386732614E+04  0.23386732614E+04  0.00000000000E+00 0. -1.
         21    1    1    2  503  504 -0.36085729748E+02  0.25228053340E+02 -0.18228518624E+04  0.18233835435E+04  0.00000000000E+00 0. -1.
         21    1    1    2  504  505 -0.46086421127E+02 -0.37623805592E+02 -0.11122306514E+03  0.12613516234E+03  0.00000000000E+00 0. -1.
         21    1    1    2  505  506 -0.58568486087E+02 -0.44483645481E+02 -0.34965369284E+03  0.35730486590E+03  0.00000000000E+00 0. -1.
         21    1    1    2  506  501  0.14074063696E+03  0.56879397733E+02  0.89348790713E+02  0.17614312130E+03  0.00000000000E+00 0. -1.
<scales pt_clust_3="44.02993" pt_clust_4="50.96788" pt_clust_5="50.96788" pt_clust_6="149.81154"></scales>
<clustering>
<clus scale="   44.030">  2  3  1 -1</clus>
<clus scale="   50.968">  4  5 -1 -1</clus>
<clus scale="  149.812">  1  6  2 -1</clus>
<clus scale="  149.812">  1  3  2 -1</clus>
</clustering>
</event>
<event>
 6    0  0.9315069E+002  0.7112453E+02  0.7546771E-02  0.1356310E+00
         21   -1    0    0  504  501  0.00000000000E+00  0.00000000000E+00  0.67707253817E+02  0.67707253817E+02  0.00000000000E+00 0.  1.
         21   -1    0    0  503  502 -0.00000000000E+00 -0.00000000000E+00 -0.30059947724E+03  0.30059947724E+03  0.00000000000E+00 0.  1.
         21    1    1    2  503  501 -0.19764420828E+02 -0.64018956607E+02 -0.33262963321E+02  0.74802966951E+02  0.00000000000E+00 0.  1.
         21    1    1    2  504  505  0.49010663564E+01  0.57636039227E+02 -0.15252467527E+02  0.59821160428E+02  0.00000000000E+00 0.  1.
         21    1    1    2  505  506  0.65628069842E+02 -0.38244049937E+02 -0.95535081882E+02  0.12205163980E+03  0.00000000000E+00 0.  1.
         21    1    1    2  506  502 -0.50764715371E+02  0.44626967317E+02 -0.88841710692E+02  0.11163096388E+03  0.00000000000E+00 0.  1.
<scales pt_clust_3="41.54125" pt_clust_4="57.84404" pt_clust_5="14000.00000" pt_clust_6="71.12453"></scales>
<clustering>
<clus scale="   57.844">  1  4  2 -1</clus>
<clus scale="   41.541">  1  3  2 -1</clus>
<clus scale="   71.125">  2  6  1 -1</clus>
<clus scale="   57.844">  1  3  2 -1</clus>
</clustering>
</event>
<event>
 6    0  0.9315069E+002  0.1124600E+03  0.7546771E-02  0.1256081E+00
         21   -1    0    0  504  501  0.00000000000E+00  0.00000000000E+00  0.42397350753E+03  0.42397350753E+03  0.00000000000E+00 0.  1.
         21   -1    0    0  506  502 -0.00000000000E+00 -0.00000000000E+00 -0.12569714834E+03  0.12569714834E+03  0.00000000000E+00 0. -1.
         21    1    1    2  503  502  0.11188415746E+03 -0.55885106276E+02 -0.12973970034E+02  0.12573596818E+03  0.00000000000E+00 0. -1.
         21    1    1    2  504  503 -0.43527441099E+02  0.67463433619E+02  0.30644684704E+03  0.31678955643E+03  0.00000000000E+00 0.  1.
         21    1    1    2  505  501 -0.34656202310E+02  0.24401330341E+02  0.29858324491E+02  0.51845894942E+02  0.00000000000E+00 0.  1.
         21    1    1    2  506  505 -0.33700514054E+02 -0.35979657683E+02 -0.25054842301E+02  0.55299236317E+02  0.00000000000E+00 0. -1.
<scales pt_clust_3="112.45997" pt_clust_4="14000.00000" pt_clust_5="42.38487" pt_clust_6="49.55755"></scales>
<clustering>
<clus scale="   42.385">  1  5  2 -1</clus>
<clus scale="   49.558">  2  6  1 -1</clus>
<clus scale="  112.460">  2  3  1 -1</clus>
<clus scale="   42.385">  1  3  2 -1</clus>
</clustering>
</event>
<event>
 6    0  0.9315069E+002  0.9488615E+02  0.7546771E-02  0.1291433E+00
         21   -1    0    0  505  501  0.00000000000E+00  0.00000000000E+00  0.78856562533E+03  0.78856562533E+03  0.00000000000E+00 0.  1.
         21   -1    0    0  503  502 -0.00000000000E+00 -0.00000000000E+00 -0.73711095062E+02  0.73711095062E+02  0.00000000000E+00 0. -1.
         21    1    1    2  503  501 -0.91574616734E+02  0.31597602536E+02  0.44428507733E+03  0.45472359611E+03  0.00000000000E+00 0.  1.
         21    1    1    2  504  502  0.60652391959E+02 -0.74165459503E+02 -0.27064086437E+02  0.99557484943E+02  0.00000000000E+00 0. -1.
         21    1    1    2  505  506 -0.73115512496E+01  0.29769195938E+02  0.20044937915E+03  0.20277972633E+03  0.00000000000E+00 0. -1.
         21    1    1    2  506  504  0.38233776024E+02  0.12798661029E+02  0.97184160224E+02  0.10521591302E+03  0.00000000000E+00 0.  1.
<scales pt_clust_3="94.88615" pt_clust_4="14000.00000" pt_clust_5="30.65394" pt_clust_6="41.09193"></scales>
<clustering>
<clus scale="   30.654">  1  5  2 -1</clus>
<clus scale="   41.092">  1  6  2 -1</clus>
<clus scale="   94.886">  1  3  2 -1</clus>
<clus scale="   30.654">  1  3  2 -1</clus>
</clustering>
</event>
<event>
 6    0  0.9315069E+002  0.1352575E+03  0.7546771E-02  0.1219857E+00
         21   -1    0    0  503  501  0.00000000000E+00  0.00000000000E+00  0.11629933329E+03  0.11629933329E+03  0.00000000000E+00 0. -1.
         21   -1    0    0  505  502 -0.00000000000E+00 -0.00000000000E+00 -0.37729668781E+03  0.37729668781E+03  0.00000000000E+00 0.  1.
         21    1    1    2  503  504 -0.31503922760E+02 -0.15272233290E+02 -0.23921675687E+02  0.42402651174E+02  0.00000000000E+00 0. -1.
         21    1    1    2  504  502  0.12351377200E+03 -0.59452045066E+02 -0.24851214782E+03  0.28381065017E+03  0.00000000000E+00 0.  1.
         21    1    1    2  505  506 -0.11675936118E+03  0.55034845792E+02 -0.95409876143E+01  0.12943188602E+03  0.00000000000E+00 0. -1.
         21    1    1    2  506  501  0.24749511935E+02  0.19689432564E+02  0.20977456603E+02  0.37950833736E+02  0.00000000000E+00 0.  1.
<scales pt_clust_3="31.73521" pt_clust_4="14000.00000" pt_clust_5="135.25749" pt_clust_6="31.62613"></scales>
<clustering>
<clus scale="   31.626">  1  6  2 -1</clus>
<clus scale="   31.735">  1  3  2 -1</clus>
<clus scale="  135.257">  1  5  2 -1</clus>
<clus scale="   31.626">  1  3  2 -1</clus>
</clustering>
</event>
<event>
 6    0  0.9315069E+002  0.1202454E+03  0.7546771E-02  0.1242693E+00
         21   -1    0    0  506  501  0.00000000000E+00  0.00000000000E+00  0.49098081032E+03  0.49098081032E+03  0.00000000000E+00 0.  1.
         21   -1    0    0  503  502 -0.00000000000E+00 -0.00000000000E+00 -0.90079009527E+03  0.90079009527E+03  0.00000000000E+00 0.  1.
         21    1    1    2  503  504 -0.43710788587E+02  0.74414772494E+02 -0.42645390439E+03  0.43509898181E+03  0.00000000000E+00 0.  1.
         21    1    1    2  504  501  0.18131036871E+03 -0.66731526637E+02 -0.32257151955E+03  0.37600389848E+03  0.00000000000E+00 0.  1.
         21    1    1    2  505  502 -0.33900659473E+02 -0.65349546813E+02 -0.10086359726E+03  0.12487306849E+03  0.00000000000E+00 0.  1.
         21    1    1    2  506  505 -0.10369892065E+03  0.57666300956E+02  0.44007973624E+03  0.45579495682E+03  0.00000000000E+00 0.  1.
<scales pt_clust_3="73.28782" pt_clust_4="120.24544" pt_clust_5="73.61941" pt_clust_6="14000.00000"></scales>
<clustering>
<clus scale="   73.619">  2  5  1 -1</clus>
<clus scale="   73.288">  2  3  1 -1</clus>
<clus scale="  120.245">  2  4  1 -1</clus>
<clus scale="  120.245">  1  3  2 -1</clus>
</clustering>
</event>
<event>
 6    0  0.9315069E+002  0.8914154E+02  0.7546771E-02  0.1304944E+00
         21   -1    0    0  506  501  0.00000000000E+00  0.00000000000E+00  0.10283080133E+04  0.10283080133E+04  0.00000000000E+00 0. -1.
         21   -1    0    0  501  502 -0.00000000000E+00 -0.00000000000E+00 -0.89752708231E+03  0.89752708231E+03  0.00000000000E+00 0. -1.
         21    1    1    2  503  502  0.34625860347E+02  0.47470766456E+02 -0.85681155156E+03  0.85882388111E+03  0.00000000000E+00 0. -1.
         21    1    1    2  504  505 -0.81331996722E+02 -0.35146784380E+00  0.41246789625E+02  0.91193831341E+02  0.00000000000E+00 0.  1.
         21    1    1    2  505  503 -0.25984629178E+02 -0.30067190287E+02  0.16581728941E+02  0.43060313747E+02  0.00000000000E+00 0.  1.
         21    1    1    2  506  504  0.72690765552E+02 -0.17052108325E+02  0.92976396401E+03  0.93275706943E+03  0.00000000000E+00 0. -1.
<scales pt_clust_3="58.75733" pt_clust_4="33.06724" pt_clust_5="33.06724" pt_clust_6="75.55348"></scales>
<clustering>
<clus scale="   33.067">  4  5 -1 -1</clus>
<clus scale="   58.757">  2  3  1 -1</clus>
<clus scale="   75.553">  1  6  2 -1</clus>
<clus scale="   75.553">  1  3  2 -1</clus>
</clustering>
</event>
<event>
 6    0  0.9315069E+002  0.6691159E+02  0.7546771E-02  0.1370922E+00
         21   -1    0    0  504  501  0.00000000000E+00  0.00000000000E+00  0.86049373069E+02  0.86049373069E+02  0.00000000000E+00 0. -1.
         21   -1    0    0  505  502 -0.00000000000E+00 -0.00000000000E+00 -0.45868804386E+03  0.45868804386E+03  0.00000000000E+00 0. -1.
         21    1    1    2  503  502  0.24741625904E+02  0.49943551663E+02 -0.22337962052E+03  0.23022806360E+03  0.00000000000E+00 0.  1.
         21    1    1    2  504  506  0.60114977811E+02 -0.18642099607E+02  0.11014313614E+02  0.63895645700E+02  0.00000000000E+00 0. -1.
         21    1    1    2  505  501 -0.57842202475E+02 -0.93856691388E+02 -0.14254687184E+03  0.18020657473E+03  0.00000000000E+00 0. -1.
         21    1    1    2  506  503 -0.27014401240E+02  0.62555239332E+02 -0.17726492042E+02  0.70407132894E+02  0.00000000000E+00 0. -1.
<scales pt_clust_3="55.73604" pt_clust_4="64.25411" pt_clust_5="14000.00000" pt_clust_6="66.91159"></scales>
<clustering>
<clus scale="   55.736">  2  3  1 -1</clus>
<clus scale="   64.254">  1  4  2 -1</clus>
<clus scale="   66.912">  1  6  2 -1</clus>
<clus scale="   64.254">  1  3  2 -1</clus>
</clustering>
</event>
<event>
 6    0  0.9315069E+002  0.1181480E+03  0.7546771E-02  0.1246184E+00
         21   -1    0    0  503  501  0.00000000000E+00  0.00000000000E+00  0.18563171287E+03  0.18563171287E+03  0.00000000000E+00 0.  1.
         21   -1    0    0  506  502 -0.00000000000E+00 -0.00000000000E+00 -0.11478665247E+04  0.11478665247E+04  0.00000000000E+00 0.  1.
         21    1    1    2  503  504 -0.18641749874E+02 -0.30164818678E+02  0.37347647755E+01  0.35656410254E+02  0.00000000000E+00 0.  1.
         21    1    1    2  504  505  0.83560867260E+02 -0.53426798179E+02 -0.22851310957E+02  0.10177928922E+03  0.00000000000E+00 0.  1.
         21    1    1    2  505  502  0.37144243722E+02  0.25865182104E-01 -0.10347710593E+04  0.10354375117E+04  0.00000000000E+00 0.  1.
         21    1    1    2  506  501 -0.10206336111E+03  0.83565751675E+02  0.91652793613E+02  0.16062502641E+03  0.00000000000E+00 0.  1.
<scales pt_clust_3="35.46028" pt_clust_4="14000.00000" pt_clust_5="37.10682" pt_clust_6="118.14804"></scales>
<clustering>
<clus scale="   35.460">  1  3  2 -1</clus>
<clus scale="   37.107">  2  5  1 -1</clus>
<clus scale="  118.148">  1  6  2 -1</clus>
<clus scale="   35.460">  1  3  2 -1</clus>
</clustering>
</event>
<event>
 6    0  0.9315069E+002  0.1913476E+03  0.7546771E-02  0.1157252E+00
         21   -1    0    0  505  501  0.00000000000E+00  0.00000000000E+00  0.15044310159E+03  0.15044310159E+03  0.00000000000E+00 0.  1.
         21   -1    0    0  504  502 -0.00000000000E+00 -0.00000000000E+00 -0.45369884980E+03  0.45369884980E+03  0.00000000000E+00 0.  1.
         21    1    1    2  503  506 -0.15274277534E+02 -0.65730637815E+02 -0.55915087955E+02  0.87637419878E+02  0.00000000000E+00 0.  1.
         21    1    1    2  504  501 -0.16504232754E+02  0.15726686701E+03 -0.10517371956E+03  0.18991252840E+03  0.00000000000E+00 0.  1.
         21    1    1    2  505  503 -0.34266157252E+02  0.18700204119E+02  0.69069395671E+02  0.79337560999E+02  0.00000000000E+00 0.  1.
         21    1    1    2  506  502  0.66044667540E+02 -0.11023643332E+03 -0.21123633637E+03  0.24725444211E+03  0.00000000000E+00 0.  1.
<scales pt_clust_3="62.82790" pt_clust_4="171.38628" pt_clust_5="39.03674" pt_clust_6="62.82790"></scales>
<clustering>
<clus scale="   39.037">  1  5  2 -1</clus>
<clus scale="   62.828">  3  6 -1 -1</clus>
<clus scale="  171.386">  1  4  2 -1</clus>
<clus scale="   39.037">  1  3  2 -1</clus>
</clustering>
</event>
<event>
 6    0  0.9315069E+002  0.9197015E+02  0.7546771E-02  0.1298150E+00
         21   -1    0    0  505  501  0.00000000000E+00  0.00000000000E+00  0.39643914004E+03  0.39643914004E+03  0.00000000000E+00 0.  1.
         21   -1    0    0  504  502 -0.00000000000E+00 -0.00000000000E+00 -0.31722978361E+03  0.31722978361E+03  0.00000000000E+00 0. -1.
         21    1    1    2  503  506 -0.94909832931E+02  0.37841964871E+02 -0.28087860683E+02  0.10596612010E+03  0.00000000000E+00 0. -1.
         21    1    1    2  504  501  0.59728938356E+02  0.65361164422E+02 -0.25775438395E+02  0.92217141119E+02  0.00000000000E+00 0. -1.
         21    1    1    2  505  503  0.74441258152E+02 -0.52734338836E+02  0.31221709763E+03  0.32527208220E+03  0.00000000000E+00 0.  1.
         21    1    1    2  506  502 -0.39260363577E+02 -0.50468790457E+02 -0.17914444212E+03  0.19021358022E+03  0.00000000000E+00 0. -1.
<scales pt_clust_3="14000.00000" pt_clust_4="60.21402" pt_clust_5="91.97015" pt_clust_6="63.94118"></scales>
<clustering>
<clus scale="   63.941">  2  6  1 -1</clus>
<clus scale="   60.214">  2  4  1 -1</clus>
<clus scale="   91.970">  1  5  2 -1</clus>
<clus scale="   91.970">  1  3  2 -1</clus>
</clustering>
</event>
<event>
 6    0  0.9315069E+002  0.8111681E+02  0.7546771E-02  0.1325912E+00
         21   -1    0    0  505  501  0.00000000000E+00  0.00000000000E+00  0.39574170326E+03  0.39574170326E+03  0.00000000000E+00 0. -1.
         21   -1    0    0  506  502 -0.00000000000E+00 -0.00000000000E+00 -0.16850177038E+03  0.16850177038E+03  0.00000000000E+00 0. -1.
         21    1    1    2  503  502 -0.14793363864E+02 -0.49788699492E+02 -0.90391196453E+02  0.10425126670E+03  0.00000000000E+00 0. -1.
         21    1    1    2  504  501 -0.33874268376E+02 -0.18096983243E+02  0.17795586276E+03  0.18205289328E+03  0.00000000000E+00 0. -1.
         21    1    1    2  505  503  0.43997279941E+02  0.12582669986E+03  0.74550874436E+01  0.13350542074E+03  0.00000000000E+00 0. -1.
         21    1    1    2  506  504  0.46703522990E+01 -0.57941017120E+02  0.13222017913E+03  0.14443389292E+03  0.00000000000E+00 0. -1.
<scales pt_clust_3="52.81440" pt_clust_4="38.40530" pt_clust_5="14000.00000" pt_clust_6="81.11681"></scales>
<clustering>
<clus scale="   38.405">  1  4  2 -1</clus>
<clus scale="   52.814">  2  3  1 -1</clus>
<clus scale="   81.117">  1  6  2 -1</clus>
<clus scale="   38.405">  1  3  2 -1</clus>
</clustering>
</event>
<event>
 6    0  0.9315069E+002  0.1359124E+03  0.7546771E-02  0.1218937E+00
         21   -1    0    0  502  501  0.00000000000E+00  0.00000000000E+00  0.23474514988E+03  0.23474514988E+03  0.00000000000E+00 0.  1.
         21   -1    0    0  504  502 -0.00000000000E+00 -0.00000000000E+00 -0.12188931849E+03  0.12188931849E+03  0.00000000000E+00 0.  1.
         21    1    1    2  503  501 -0.70609287524E+02  0.81555747960E+01  0.90363404864E+02  0.11496838619E+03  0.00000000000E+00 0.  1.
         21    1    1    2  504  505  0.34576144916E+02  0.29274658638E+02 -0.22853852169E+02  0.50742625027E+02  0.00000000000E+00 0.  1.
         21    1    1    2  505  506  0.83758852808E+02 -0.81831104850E+02  0.12021041244E+02  0.11771312831E+03  0.00000000000E+00 0.  1.
         21    1    1    2  506  503 -0.47725710200E+02  0.44400871415E+02  0.33325237458E+02  0.73210328836E+02  0.00000000000E+00 0.  1.
<scales pt_clust_3="56.98904" pt_clust_4="45.30470" pt_clust_5="122.98452" pt_clust_6="56.98904"></scales>
<clustering>
<clus scale="   45.305">  2  4  1 -1</clus>
<clus scale="   56.989">  3  6 -1 -1</clus>
<clus scale="  122.985">  2  5  1 -1</clus>
<clus scale="  135.912">  1  3  2 -1</clus>
</clustering>
</event>
<event>
 6    0  0.9315069E+002  0.1238576E+03  0.7546771E-02  0.1236866E+00
         21   -1    0    0  503  501  0.00000000000E+00  0.00000000000E+00  0.22258350294E+03  0.22258350294E+03  0.00000000000E+00 0.  1.
         21   -1    0    0  505  502 -0.00000000000E+00 -0.00000000000E+00 -0.72974195489E+03  0.72974195489E+03  0.00000000000E+00 0. -1.
         21    1    1    2  503  506  0.66263059606E+02  0.10114954166E+03  0.15238757944E+03  0.19453533667E+03  0.00000000000E+00 0.  1.
         21    1    1    2  504  502  0.31301298949E+02 -0.46752388376E+02 -0.69117959428E+02  0.89122665188E+02  0.00000000000E+00 0.  1.
         21    1    1    2  505  501  0.93709598405E+02  0.38215697960E+02 -0.18101696626E+03  0.20738628324E+03  0.00000000000E+00 0. -1.
         21    1    1    2  506  504 -0.19127395696E+03 -0.92612851245E+02 -0.40941110571E+03  0.46128117272E+03  0.00000000000E+00 0. -1.
<scales pt_clust_3="14000.00000" pt_clust_4="56.26328" pt_clust_5="105.86984" pt_clust_6="123.85758"></scales>
<clustering>
<clus scale="   56.263">  2  4  1 -1</clus>
<clus scale="  105.870">  2  5  1 -1</clus>
<clus scale="  123.858">  2  6  1 -1</clus>
<clus scale="  123.858">  1  3  2 -1</clus>
</clustering>
</event>
<event>
 6    0  0.9315069E+002  0.1271224E+03  0.7546771E-02  0.1231789E+00
         21   -1    0    0  503  501  0.00000000000E+00  0.00000000000E+00  0.84820532020E+03  0.84820532020E+03  0.00000000000E+00 0. -1.
         21   -1    0    0  504  502 -0.00000000000E+00 -0.00000000000E+00 -0.75711494370E+02  0.75711494370E+02  0.00000000000E+00 0.  1.
         21    1    1    2  503  506  0.97237379121E+02 -0.50259233983E+02  0.41070616586E+02  0.11690976882E+03  0.00000000000E+00 0.  1.
         21    1    1    2  504  505 -0.67517879717E+02 -0.17037834704E+01  0.43291551735E+03  0.43815227047E+03  0.00000000000E+00 0. -1.
         21    1    1    2  505  501 -0.54492540266E+02  0.27972387341E+02  0.32158079918E+03  0.32736234022E+03  0.00000000000E+00 0. -1.
         21    1    1    2  506  502  0.24773040861E+02  0.23990630112E+02 -0.23073107283E+02  0.41492435050E+02  0.00000000000E+00 0.  1.
<scales pt_clust_3="122.42856" pt_clust_4="32.59317" pt_clust_5="32.59317" pt_clust_6="34.48556"></scales>
<clustering>
<clus scale="   32.593">  4  5 -1 -1</clus>
<clus scale="   34.486">  2  6  1 -1</clus>
<clus scale="  122.429">  2  3  1 -1</clus>
<clus scale="  127.122">  1  3  2 -1</clus>
</clustering>
</event>
<event>
 6    0  0.9315069E+002  0.2378207E+03  0.7546771E-02  0.1121253E+00
         21   -1    0    0  506  501  0.00000000000E+00  0.00000000000E+00  0.82833844147E+03  0.82833844147E+03  0.00000000000E+00 0.  1.
         21   -1    0    0  505  502 -0.00000000000E+00 -0.00000000000E+00 -0.13772301581E+04  0.13772301581E+04  0.00000000000E+00 0.  1.
         21    1    1    2  503  501  0.89794048568E+02  0.55316342581E+02  0.56480009792E+03  0.57456245920E+03  0.00000000000E+00 0.  1.
         21    1    1    2  504  503 -0.24971233794E+03  0.12167542599E+03  0.16592681160E+03  0.32356277261E+03  0.00000000000E+00 0.  1.
         21    1    1    2  505  504  0.50984628961E+02  0.99027276648E+01 -0.23921780461E+03  0.24479104242E+03  0.00000000000E+00 0. -1.
         21    1    1    2  506  502  0.10893366041E+03 -0.18689449624E+03 -0.10404008215E+04  0.10626523253E+04  0.00000000000E+00 0.  1.
<scales pt_clust_3="105.67402" pt_clust_4="237.82066" pt_clust_5="51.93743" pt_clust_6="14000.00000"></scales>
<clustering>
<clus scale="   51.937">  2  5  1 -1</clus>
<clus scale="  105.674">  1  3  2 -1</clus>
<clus scale="  237.821">  1  4  2 -1</clus>
<clus scale="  105.674">  1  3  2 -1</clus>
</clustering>
</event>
<event>
 6    0  0.9315069E+002  0.8161182E+02  0.7546771E-02  0.1324539E+00
         21   -1    0    0  506  501  0.00000000000E+00  0.00000000000E+00  0.86116289652E+03  0.86116289652E+03  0.00000000000E+00 0. -1.
         21   -1    0    0  504  502 -0.00000000000E+00 -0.00000000000E+00 -0.79788664356E+02  0.79788664356E+02  0.00000000000E+00 0. -1.
         21    1    1    2  503  501  0.66299005080E+02 -0.44204136472E+00  0.69554047257E+03  0.69869328211E+03  0.00000000000E+00 0. -1.
         21    1    1    2  504  503  0.28020199686E+02 -0.82423842961E+02  0.33600215224E+02  0.93315571809E+02  0.00000000000E+00 0.  1.
         21    1    1    2  505  502 -0.35507238914E+02  0.12943687786E+02 -0.91319390861E+01  0.38880527006E+02  0.00000000000E+00 0. -1.
         21    1    1    2  506  505 -0.58811965851E+02  0.69922196540E+02  0.61365483449E+02  0.11006217995E+03  0.00000000000E+00 0. -1.
<scales pt_clust_3="65.29562" pt_clust_4="81.61182" pt_clust_5="37.79290" pt_clust_6="14000.00000"></scales>
<clustering>
<clus scale="   37.793">  2  5  1 -1</clus>
<clus scale="   65.296">  1  3  2 -1</clus>
<clus scale="   81.612">  2  4  1 -1</clus>
<clus scale="   65.296">  1  3  2 -1</clus>
</clustering>
</event>
<event>
 6    0  0.9315069E+002  0.1707858E+03  0.7546771E-02  0.1177031E+00
         21   -1    0    0  506  501  0.00000000000E+00  0.00000000000E+00  0.96932026032E+03  0.96932026032E+03  0.00000000000E+00 0.  1.
         21   -1    0    0  503  502 -0.00000000000E+00 -0.00000000000E+00 -0.18039398775E+03  0.18039398775E+03  0.00000000000E+00 0.  1.
         21    1    1    2  503  504 -0.12522413783E+03 -0.17289680432E+03  0.13932384803E+02  0.21393574032E+03  0.00000000000E+00 0.  1.
         21    1    1    2  504  505  0.10614862804E+03  0.89782921802E+02  0.28076967948E+03  0.31330515029E+03  0.00000000000E+00 0.  1.
         21    1    1    2  505  501  0.21055730284E+02  0.28092665931E+02  0.54586218564E+03  0.54699000664E+03  0.00000000000E+00 0.  1.
         21    1    1    2  506  502 -0.19802204926E+01  0.55021216583E+02 -0.51637977345E+02  0.75483350824E+02  0.00000000000E+00 0.  1.
<scales pt_clust_3="14000.00000" pt_clust_4="170.78585" pt_clust_5="35.10757" pt_clust_6="55.83046"></scales>
<clustering>
<clus scale="   35.108">  1  5  2 -1</clus>
<clus scale="   55.830">  2  6  1 -1</clus>
<clus scale="  170.786">  1  4  2 -1</clus>
<clus scale="   35.108">  1  3  2 -1</clus>
</clustering>
</event>
<event>
 6    0  0.9315069E+002  0.2099480E+03  0.7546771E-02  0.1141607E+00
         21   -1    0    0  503  501  0.00000000000E+00  0.00000000000E+00  0.30768411310E+03  0.30768411310E+03  0.00000000000E+00 0. -1.
         21   -1    0    0  504  502 -0.00000000000E+00 -0.00000000000E+00 -0.94253544233E+03  0.94253544233E+03  0.00000000000E+00 0. -1.
         21    1    1    2  503  505  0.89610289041E+01  0.40270704837E+02 -0.11304776401E+02  0.42776485089E+02  0.00000000000E+00 0.  1.
         21    1    1    2  504  506  0.31015107571E+02 -0.20310036038E+03 -0.16418088883E+03  0.26299630709E+03  0.00000000000E+00 0. -1.
         21    1    1    2  505  502 -0.72281829132E+02  0.19971143284E+03 -0.68312414717E+03  0.71537956336E+03  0.00000000000E+00 0. -1.
         21    1    1    2  506  501  0.32305692657E+02 -0.36881777307E+02  0.22375848317E+03  0.22906719989E+03  0.00000000000E+00 0. -1.
<scales pt_clust_3="41.25566" pt_clust_4="209.94799" pt_clust_5="14000.00000" pt_clust_6="39.65983"></scales>
<clustering>
<clus scale="   41.256">  1  3  2 -1</clus>
<clus scale="   39.660">  1  6  2 -1</clus>
<clus scale="  209.948">  1  4  2 -1</clus>
<clus scale="   41.256">  1  3  2 -1</clus>
</clustering>
</event>
<event>
 6    0  0.9315069E+002  0.1405229E+03  0.7546771E-02  0.1212627E+00
         21   -1    0    0  505  501  0.00000000000E+00  0.00000000000E+00  0.28444557395E+02  0.28444557395E+02  0.00000000000E+00 0.  1.
         21   -1    0    0  506  502 -0.00000000000E+00 -0.00000000000E+00 -0.91188461197E+03  0.91188461197E+03  0.00000000000E+00 0.  1.
         21    1    1    2  503  504 -0.48512987828E+02 -0.18897555120E+02 -0.15291057147E+03  0.16153102007E+03  0.00000000000E+00 0.  1.
         21    1    1    2  504  502  0.30944588666E+02 -0.30350263639E+02 -0.12826239691E+03  0.13538814029E+03  0.00000000000E+00 0. -1.
         21    1    1    2  505  503 -0.43660160128E+02 -0.73742445523E+02 -0.18009532268E+03  0.19944543892E+03  0.00000000000E+00 0.  1.
         21    1    1    2  506  501  0.61228559291E+02  0.12299026428E+03 -0.42217176352E+03  0.44396457009E+03  0.00000000000E+00 0.  1.
<scales pt_clust_3="37.64793" pt_clust_4="43.34404" pt_clust_5="37.64793" pt_clust_6="131.96086"></scales>
<clustering>
<clus scale="   37.648">  3  5 -1 -1</clus>
<clus scale="   43.344">  2  4  1 -1</clus>
<clus scale="  131.961">  2  6  1 -1</clus>
<clus scale="  140.523">  1  3  2 -1</clus>
</clustering>
</event>
<event>
 6    0  0.9315069E+002  0.1705766E+03  0.7546771E-02  0.1177248E+00
         21   -1    0    0  502  501  0.00000000000E+00  0.00000000000E+00  0.86458552945E+03  0.86458552945E+03  0.00000000000E+00 0. -1.
         21   -1    0    0  504  502 -0.00000000000E+00 -0.00000000000E+00 -0.13583408126E+03  0.13583408126E+03  0.00000000000E+00 0. -1.
         21    1    1    2  503  501  0.57153560797E+01  0.12627113375E+03  0.32318780365E+03  0.34702654213E+03  0.00000000000E+00 0. -1.
         21    1    1    2  504  506 -0.15458119002E+03  0.40105894928E+02 -0.29177324794E+02  0.16234267276E+03  0.00000000000E+00 0. -1.
         21    1    1    2  505  503  0.91059068945E+02 -0.11914932968E+03  0.32954396194E+03  0.36206013265E+03  0.00000000000E+00 0. -1.
         21    1    1    2  506  505  0.57806764997E+02 -0.47227698993E+02  0.10519700738E+03  0.12899026317E+03  0.00000000000E+00 0. -1.
<scales pt_clust_3="126.40041" pt_clust_4="163.73132" pt_clust_5="33.75077" pt_clust_6="33.75077"></scales>
<clustering>
<clus scale="   33.751">  5  6 -1 -1</clus>
<clus scale="  126.400">  1  3  2 -1</clus>
<clus scale="  163.731">  2  4  1 -1</clus>
<clus scale="  126.400">  1  3  2 -1</clus>
</clustering>
</event>
<event>
 6    0  0.9315069E+002  0.1358793E+03  0.7546771E-02  0.1218984E+00
         21   -1    0    0  503  501  0.00000000000E+00  0.00000000000E+00  0.53812310731E+02  0.53812310731E+02  0.00000000000E+00 0.  1.
         21   -1    0    0  504  502 -0.00000000000E+00 -0.00000000000E+00 -0.16449015617E+04  0.16449015617E+04  0.00000000000E+00 0.  1.
         21    1    1    2  503  502 -0.62610536264E+02  0.18868658869E+02 -0.50684042747E+02  0.82734380568E+02  0.00000000000E+00 0.  1.
         21    1    1    2  504  505  0.26243372279E+02  0.11590431868E+03 -0.14075053032E+04  0.14125132580E+04  0.00000000000E+00 0.  1.
         21    1    1    2  505  506  0.25001684276E+01 -0.48090377983E+02 -0.87598835992E+02  0.99962449769E+02  0.00000000000E+00 0. -1.
         21    1    1    2  506  501  0.33866995558E+02 -0.86682599567E+02 -0.45301069059E+02  0.10350378406E+03  0.00000000000E+00 0.  1.
<scales pt_clust_3="65.39194" pt_clust_4="119.21988" pt_clust_5="46.89388" pt_clust_6="46.89388"></scales>
<clustering>
<clus scale="   46.894">  5  6 -1 -1</clus>
<clus scale="   65.392">  1  3  2 -1</clus>
<clus scale="  119.220">  2  4  1 -1</clus>
<clus scale="   65.392">  1  3  2 -1</clus>
</clustering>
</event>
<event>
 6    0  0.9315069E+002  0.1336856E+03  0.7546771E-02  0.1222087E+00
         21   -1    0    0  504  501  0.00000000000E+00  0.00000000000E+00  0.99753849618E+02  0.99753849618E+02  0.00000000000E+00 0.  1.
         21   -1    0    0  506  502 -0.00000000000E+00 -0.00000000000E+00 -0.12911742752E+04  0.12911742752E+04  0.00000000000E+00 0.  1.
         21    1    1    2  503  501  0.43429432157E+02  0.17051193295E+02 -0.69928114902E+02  0.84064261277E+02  0.00000000000E+00 0.  1.
         21    1    1    2  504  502 -0.13781876183E+03  0.33398122827E+02  0.22336487184E+01  0.14182536764E+03  0.00000000000E+00 0.  1.
         21    1    1    2  505  503  0.57251886760E+02  0.39230691987E+00 -0.21718886352E+02  0.61234324253E+02  0.00000000000E+00 0.  1.
         21    1    1    2  506  505  0.37137442911E+02 -0.50841623042E+02 -0.11020070730E+04  0.11038041716E+04  0.00000000000E+00 0.  1.
<scales pt_clust_3="43.02434" pt_clust_4="124.90135" pt_clust_5="43.02434" pt_clust_6="62.96078"></scales>
<clustering>
<clus scale="   43.024">  3  5 -1 -1</clus>
<clus scale="   62.961">  2  6  1 -1</clus>
<clus scale="  124.901">  1  4  2 -1</clus>
<clus scale="  124.901">  1  3  2 -1</clus>
</clustering>
</event>
<event>
 6    0  0.9315069E+002  0.1006111E+03  0.7546771E-02  0.1279016E+00
         21   -1    0    0  503  501  0.00000000000E+00  0.00000000000E+00  0.42100388230E+03  0.42100388230E+03  0.00000000000E+00 0. -1.
         21   -1    0    0  505  502 -0.00000000000E+00 -0.00000000000E+00 -0.87503000535E+02  0.87503000535E+02  0.00000000000E+00 0. -1.
         21    1    1    2  503  502 -0.19784369410E+02  0.45424813335E+02  0.11152779102E+03  0.12203803960E+03  0.00000000000E+00 0. -1.
         21    1    1    2  504  501 -0.52652336609E+02 -0.13460692302E+03  0.19894071497E+03  0.24590384370E+03  0.00000000000E+00 0. -1.
         21    1    1    2  505  506  0.20138398814E+02  0.39776458959E+02 -0.27739671657E+02  0.52509153275E+02  0.00000000000E+00 0. -1.
         21    1    1    2  506  504  0.52298307205E+02  0.49405650726E+02  0.50772047438E+02  0.88055846264E+02  0.00000000000E+00 0. -1.
<scales pt_clust_3="52.83678" pt_clust_4="14000.00000" pt_clust_5="44.58387" pt_clust_6="100.61113"></scales>
<clustering>
<clus scale="   44.584">  2  5  1 -1</clus>
<clus scale="   52.837">  1  3  2 -1</clus>
<clus scale="  100.611">  2  6  1 -1</clus>
<clus scale="   52.837">  1  3  2 -1</clus>
</clustering>
</event>
<event>
 6    0  0.9315069E+002  0.8716052E+02  0.7546771E-02  0.1309877E+00
         21   -1    0    0  503  501  0.00000000000E+00  0.00000000000E+00  0.27694432649E+03  0.27694432649E+03  0.00000000000E+00 0. -1.
         21   -1    0    0  505  502 -0.00000000000E+00 -0.00000000000E+00 -0.19123424783E+04  0.19123424783E+04  0.00000000000E+00 0. -1.
         21    1    1    2  503  506  0.38377838371E+02 -0.14605216077E+01  0.23093149532E+03  0.23410328304E+03  0.00000000000E+00 0. -1.
         21    1    1    2  504  502  0.30378484666E+02  0.45254829257E+02 -0.14706255535E+04  0.14716352708E+04  0.00000000000E+00 0. -1.
         21    1    1    2  505  501 -0.32140279431E+02 -0.91816482490E+02 -0.15413706114E+02  0.98492874640E+02  0.00000000000E+00 0. -1.
         21    1    1    2  506  504 -0.36616043605E+02  0.48022174841E+02 -0.38029038758E+03  0.38505537629E+03  0.00000000000E+00 0. -1.
<scales pt_clust_3="38.40562" pt_clust_4="54.73607" pt_clust_5="14000.00000" pt_clust_6="87.16052"></scales>
<clustering>
<clus scale="   38.406">  1  3  2 -1</clus>
<clus scale="   54.736">  2  4  1 -1</clus>
<clus scale="   87.161">  2  6  1 -1</clus>
<clus scale="   38.406">  1  3  2 -1</clus>
</clustering>
</event>
<event>
 6    0  0.9315069E+002  0.8671085E+02  0.7546771E-02  0.1311018E+00
         21   -1    0    0  505  501  0.00000000000E+00  0.00000000000E+00  0.10270767585E+03  0.10270767585E+03  0.00000000000E+00 0. -1.
         21   -1    0    0  503  502 -0.00000000000E+00 -0.00000000000E+00 -0.81401743730E+03  0.81401743730E+03  0.00000000000E+00 0. -1.
         21    1    1    2  503  504 -0.42610518547E+02  0.11660507910E+02 -0.68024324407E+02  0.81110618581E+02  0.00000000000E+00 0. -1.
         21    1    1    2  504  501  0.85434967590E+02  0.11192503692E+02 -0.21071513353E+02  0.88704083903E+02  0.00000000000E+00 0. -1.
         21    1    1    2  505  506 -0.41649830681E+01 -0.64094773716E+02  0.44286040100E+02  0.78017565006E+02  0.00000000000E+00 0. -1.
         21    1    1    2  506  502 -0.38659465975E+02  0.41241762114E+02 -0.66649996379E+03  0.66889284567E+03  0.00000000000E+00 0. -1.
<scales pt_clust_3="44.17719" pt_clust_4="14000.00000" pt_clust_5="64.03519" pt_clust_6="86.71085"></scales>
<clustering>
<clus scale="   44.177">  2  3  1 -1</clus>
<clus scale="   64.035">  1  5  2 -1</clus>
<clus scale="   86.711">  2  6  1 -1</clus>
<clus scale="   64.035">  1  3  2 -1</clus>
</clustering>
</event>
<event>
 6    0  0.9315069E+002  0.1105016E+03  0.7546771E-02  0.1259644E+00
         21   -1    0    0  506  501  0.00000000000E+00  0.00000000000E+00  0.12550230866E+04  0.12550230866E+04  0.00000000000E+00 0.  1.
         21   -1    0    0  505  502 -0.00000000000E+00 -0.00000000000E+00 -0.48173797751E+02  0.48173797751E+02  0.00000000000E+00 0.  1.
         21    1    1    2  503  502 -0.14851334505E+03 -0.26299368217E+02  0.69131094151E+03  0.70757239083E+03  0.00000000000E+00 0.  1.
         21    1    1    2  504  501  0.57513278728E+02  0.64453427708E+02  0.23256277889E+03  0.24808762101E+03  0.00000000000E+00 0.  1.
         21    1    1    2  505  504  0.62128587101E+02 -0.21375446405E+02  0.32055577387E+01  0.65781050802E+02  0.00000000000E+00 0.  1.
         21    1    1    2  506  503  0.28871479218E+02 -0.16778613085E+02  0.27977001073E+03  0.28175582172E+03  0.00000000000E+00 0. -1.
<scales pt_clust_3="110.50164" pt_clust_4="14000.00000" pt_clust_5="66.86313" pt_clust_6="33.39288"></scales>
<clustering>
<clus scale="   33.393">  1  6  2 -1</clus>
<clus scale="   66.863">  2  5  1 -1</clus>
<clus scale="  110.502">  1  3  2 -1</clus>
<clus scale="   33.393">  1  3  2 -1</clus>
</clustering>
</event>
<event>
 6    0  0.9315069E+002  0.1686439E+03  0.7546771E-02  0.1179269E+00
         21   -1    0    0  503  501  0.00000000000E+00  0.00000000000E+00  0.99633845894E+03  0.99633845894E+03  0.00000000000E+00 0.  1.
         21   -1    0    0  506  502 -0.00000000000E+00 -0.00000000000E+00 -0.45655247466E+03  0.45655247466E+03  0.00000000000E+00 0. -1.
         21    1    1    2  503  504 -0.58667197212E+02 -0.53435538719E+01  0.10068752585E+03  0.11665492470E+03  0.00000000000E+00 0. -1.
         21    1    1    2  504  505 -0.13933101216E+03  0.24662863031E+01  0.45479449346E+03  0.47566505527E+03  0.00000000000E+00 0.  1.
         21    1    1    2  505  502  0.14761343133E+03  0.58036265844E+02 -0.42024530663E+03  0.44918153458E+03  0.00000000000E+00 0. -1.
         21    1    1    2  506  501  0.50384778047E+02 -0.55158998275E+02  0.40454927161E+03  0.41138941905E+03  0.00000000000E+00 0.  1.
<scales pt_clust_3="36.03171" pt_clust_4="36.03171" pt_clust_5="159.27852" pt_clust_6="74.70703"></scales>
<clustering>
<clus scale="   36.032">  3  4 -1 -1</clus>
<clus scale="   74.707">  1  6  2 -1</clus>
<clus scale="  159.279">  2  5  1 -1</clus>
<clus scale="   74.707">  1  3  2 -1</clus>
</clustering>
</event>
<event>
 6    0  0.9315069E+002  0.1079916E+03  0.7546771E-02  0.1264335E+00
         21   -1    0    0  506  501  0.00000000000E+00  0.00000000000E+00  0.54331095462E+03  0.54331095462E+03  0.00000000000E+00 0.  1.
         21   -1    0    0  505  502 -0.00000000000E+00 -0.00000000000E+00 -0.45540835950E+03  0.45540835950E+03  0.00000000000E+00 0.  1.
         21    1    1    2  503  501 -0.47527947761E+02  0.32710397562E+02  0.49284066159E+03  0.49620640226E+03  0.00000000000E+00 0.  1.
         21    1    1    2  504  502 -0.24916052640E+02 -0.30736409233E+02 -0.88461971141E+02  0.96907465501E+02  0.00000000000E+00 0.  1.
         21    1    1    2  505  503  0.12476896936E+03 -0.12230264094E+02 -0.32792263855E+03  0.35106998156E+03  0.00000000000E+00 0.  1.
         21    1    1    2  506  504 -0.52324968964E+02  0.10256275766E+02  0.11446543233E+02  0.54535464806E+02  0.00000000000E+00 0.  1.
<scales pt_clust_3="107.99163" pt_clust_4="39.56686" pt_clust_5="14000.00000" pt_clust_6="54.46138"></scales>
<clustering>
<clus scale="   39.567">  2  4  1 -1</clus>
<clus scale="   54.461">  1  6  2 -1</clus>
<clus scale="  107.992">  1  3  2 -1</clus>
<clus scale="   54.461">  1  3  2 -1</clus>
</clustering>
</event>
<event>
 6    0  0.9315069E+002  0.1377621E+03  0.7546771E-02  0.1216372E+00
         21   -1    0    0  504  501  0.00000000000E+00  0.00000000000E+00  0.58074775432E+03  0.58074775432E+03  0.00000000000E+00 0.  1.
         21   -1    0    0  503  502 -0.00000000000E+00 -0.00000000000E+00 -0.41043134429E+03  0.41043134429E+03  0.00000000000E+00 0. -1.
         21    1    1    2  503  505  0.86377669788E+02 -0.10806491136E+03 -0.31825871365E+03  0.34702699566E+03  0.00000000000E+00 0. -1.
         21    1    1    2  504  502 -0.20828722907E+02 -0.39392658035E+02 -0.10073396153E+02  0.45684685783E+02  0.00000000000E+00 0.  1.
         21    1    1    2  505  506 -0.80045548962E+02  0.71933275150E+02  0.14900624193E+02  0.10864490132E+03  0.00000000000E+00 0. -1.
         21    1    1    2  506  501  0.14496602081E+02  0.75524294249E+02  0.48374789563E+03  0.48982251584E+03  0.00000000000E+00 0.  1.
<scales pt_clust_3="14000.00000" pt_clust_4="44.56026" pt_clust_5="137.76213" pt_clust_6="76.56474"></scales>
<clustering>
<clus scale="   44.560">  2  4  1 -1</clus>
<clus scale="   76.565">  1  6  2 -1</clus>
<clus scale="  137.762">  1  5  2 -1</clus>
<clus scale="   76.565">  1  3  2 -1</clus>
</clustering>
</event>
<event>
 6    0  0.9315069E+002  0.1131257E+03  0.7546771E-02  0.1254889E+00
         21   -1    0    0  503  501  0.00000000000E+00  0.00000000000E+00  0.49442978173E+03  0.49442978173E+03  0.00000000000E+00 0.  1.
         21   -1    0    0  504  502 -0.00000000000E+00 -0.00000000000E+00 -0.43620563678E+03  0.43620563678E+03  0.00000000000E+00 0.  1.
         21    1    1    2  503  505  0.36768910122E+02  0.17641159404E+02  0.21001878674E+03  0.21394170711E+03  0.00000000000E+00 0.  1.
         21    1    1    2  504  501  0.62864903932E+01  0.84670460508E+02  0.16502904523E+03  0.18558877287E+03  0.00000000000E+00 0.  1.
         21    1    1    2  505  506  0.29360166991E+02 -0.12912426126E+02  0.96697278858E+02  0.10187793624E+03  0.00000000000E+00 0.  1.
         21    1    1    2  506  502 -0.72415567506E+02 -0.89399193787E+02 -0.41352096589E+03  0.42922700229E+03  0.00000000000E+00 0.  1.
<scales pt_clust_3="75.28149" pt_clust_4="113.12570" pt_clust_5="31.62772" pt_clust_6="14000.00000"></scales>
<clustering>
<clus scale="   31.628">  3  5 -1 -1</clus>
<clus scale="   75.281">  1  3  2 -1</clus>
<clus scale="  113.126">  1  4  2 -1</clus>
<clus scale="   75.281">  1  3  2 -1</clus>
</clustering>
</event>
<event>
 6    0  0.9315069E+002  0.9474504E+02  0.7546771E-02  0.1291751E+00
         21   -1    0    0  503  501  0.00000000000E+00  0.00000000000E+00  0.85977241119E+02  0.85977241119E+02  0.00000000000E+00 0.  1.
         21   -1    0    0  504  502 -0.00000000000E+00 -0.00000000000E+00 -0.62756040144E+03  0.62756040144E+03  0.00000000000E+00 0.  1.
         21    1    1    2  503  506 -0.58780511414E+02 -0.56796335407E+01 -0.62930038680E+02  0.86299458443E+02  0.00000000000E+00 0.  1.
         21    1    1    2  504  505  0.82996908700E+02 -0.96600865742E+02 -0.15265417913E+03  0.19880521251E+03  0.00000000000E+00 0.  1.
         21    1    1    2  505  501 -0.52943533283E+02  0.69833362890E+02  0.11301713573E+02  0.88359747729E+02  0.00000000000E+00 0.  1.
         21    1    1    2  506  502  0.28727135997E+02  0.32447136392E+02 -0.33730065608E+03  0.34007322387E+03  0.00000000000E+00 0.  1.
<scales pt_clust_3="51.43141" pt_clust_4="14000.00000" pt_clust_5="94.74504" pt_clust_6="43.33665"></scales>
<clustering>
<clus scale="   43.337">  2  6  1 -1</clus>
<clus scale="   51.431">  2  3  1 -1</clus>
<clus scale="   94.745">  1  5  2 -1</clus>
<clus scale="   94.745">  1  3  2 -1</clus>
</clustering>
</event>
<event>
 6    0  0.9315069E+002  0.2064407E+03  0.7546771E-02  0.1144416E+00
         21   -1    0    0  505  501  0.00000000000E+00  0.00000000000E+00  0.80232023167E+03  0.80232023167E+03  0.00000000000E+00 0.  1.
         21   -1    0    0  504  502 -0.00000000000E+00 -0.00000000000E+00 -0.15622881255E+04  0.15622881255E+04  0.00000000000E+00 0. -1.
         21    1    1    2  503  501 -0.88295197348E+02 -0.82219938855E+02  0.17416775929E+03  0.21187394506E+03  0.00000000000E+00 0.  1.
         21    1    1    2  504  506  0.82732670331E+02  0.19060787358E+03 -0.15197317370E+04  0.15338711187E+04  0.00000000000E+00 0. -1.
         21    1    1    2  505  502 -0.12570947781E+02  0.41546101102E+02  0.20192175270E+03  0.20653450428E+03  0.00000000000E+00 0.  1.
         21    1    1    2  506  503  0.18133474798E+02 -0.14993403583E+03  0.38367433116E+03  0.41232878919E+03  0.00000000000E+00 0.  1.
<scales pt_clust_3="115.16944" pt_clust_4="14000.00000" pt_clust_5="43.40630" pt_clust_6="206.44068"></scales>
<clustering>
<clus scale="   43.406">  1  5  2 -1</clus>
<clus scale="  115.169">  1  3  2 -1</clus>
<clus scale="  206.441">  1  6  2 -1</clus>
<clus scale="   43.406">  1  3  2 -1</clus>
</clustering>
</event>
<event>
 6    0  0.9315069E+002  0.9138891E+02  0.7546771E-02  0.1299523E+00
         21   -1    0    0  504  501  0.00000000000E+00  0.00000000000E+00  0.13407361592E+03  0.13407361592E+03  0.00000000000E+00 0. -1.
         21   -1    0    0  506  502 -0.00000000000E+00 -0.00000000000E+00 -0.54318450310E+03  0.54318450310E+03  0.00000000000E+00 0. -1.
         21    1    1    2  503  505 -0.74978488218E+02  0.19841279804E+00 -0.27783503565E+03  0.28777442572E+03  0.00000000000E+00 0. -1.
         21    1    1    2  504  502  0.53679299120E+02 -0.93384854588E+02  0.60888631618E+02  0.12373206408E+03  0.00000000000E+00 0. -1.
         21    1    1    2  505  501  0.35577780228E+02  0.54414786345E+02  0.41409588455E+01  0.65145183698E+02  0.00000000000E+00 0. -1.
         21    1    1    2  506  503 -0.14278591130E+02  0.38771655446E+02 -0.19630544199E+03  0.20060644552E+03  0.00000000000E+00 0. -1.
<scales pt_clust_3="14000.00000" pt_clust_4="91.38891" pt_clust_5="67.25744" pt_clust_6="41.31730"></scales>
<clustering>
<clus scale="   41.317">  2  6  1 -1</clus>
<clus scale="   67.257">  1  5  2 -1</clus>
<clus scale="   91.389">  1  4  2 -1</clus>
<clus scale="   67.257">  1  3  2 -1</clus>
</clustering>
</event>
<event>
 6    0  0.9315069E+002  0.1446755E+03  0.7546771E-02  0.1207173E+00
         21   -1    0    0  503  501  0.00000000000E+00  0.00000000000E+00  0.17163711933E+04  0.17163711933E+04  0.00000000000E+00 0. -1.
         21   -1    0    0  505  502 -0.00000000000E+00 -0.00000000000E+00 -0.45477244527E+02  0.45477244527E+02  0.00000000000E+00 0. -1.
         21    1    1    2  503  504  0.48578706933E+02 -0.33688324204E+02  0.71117592174E+03  0.71362874495E+03  0.00000000000E+00 0. -1.
         21    1    1    2  504  506  0.11273356118E+03  0.71954864449E+02  0.76816241274E+03  0.77971780195E+03  0.00000000000E+00 0. -1.
         21    1    1    2  505  501 -0.13046078247E+03  0.21988258941E+01  0.16720592589E+03  0.21209118852E+03  0.00000000000E+00 0. -1.
         21    1    1    2  506  502 -0.30851485641E+02 -0.40465366139E+02  0.24349688455E+02  0.56410702449E+02  0.00000000000E+00 0. -1.
<scales pt_clust_3="59.05927" pt_clust_4="14000.00000" pt_clust_5="144.67554" pt_clust_6="50.88477"></scales>
<clustering>
<clus scale="   50.885">  2  6  1 -1</clus>
<clus scale="   59.059">  1  3  2 -1</clus>
<clus scale="  144.676">  2  5  1 -1</clus>
<clus scale="   59.059">  1  3  2 -1</clus>
</clustering>
</event>
<event>
 6    0  0.9315069E+002  0.1377822E+03  0.7546771E-02  0.1216345E+00
         21   -1    0    0  506  501  0.00000000000E+00  0.00000000000E+00  0.29543388563E+03  0.29543388563E+03  0.00000000000E+00 0.  1.
         21   -1    0    0  503  502 -0.00000000000E+00 -0.00000000000E+00 -0.15690867189E+04  0.15690867189E+04  0.00000000000E+00 0.  1.
         21    1    1    2  503  501  0.50197516712E+02  0.88878467434E+02 -0.52850060353E+03  0.53826764772E+03  0.00000000000E+00 0.  1.
         21    1    1    2  504  505 -0.29064387104E+02 -0.18891165772E+03 -0.83195057152E+03  0.85362410139E+03  0.00000000000E+00 0.  1.
         21    1    1    2  505  502  0.73868283258E+02  0.29502986559E+02 -0.17120921961E+03  0.18878439122E+03  0.00000000000E+00 0.  1.
         21    1    1    2  506  504 -0.95001412866E+02  0.70530203724E+02  0.25800756142E+03  0.28384446416E+03  0.00000000000E+00 0.  1.
<scales pt_clust_3="14000.00000" pt_clust_4="137.78217" pt_clust_5="79.54212" pt_clust_6="117.93431"></scales>
<clustering>
<clus scale="   79.542">  2  5  1 -1</clus>
<clus scale="  117.934">  1  6  2 -1</clus>
<clus scale="  137.782">  2  4  1 -1</clus>
<clus scale="  117.934">  1  3  2 -1</clus>
</clustering>
</event>
<event>
 6    0  0.9315069E+002  0.1603265E+03  0.7546771E-02  0.1188329E+00
         21   -1    0    0  505  501  0.00000000000E+00  0.00000000000E+00  0.81242753659E+02  0.81242753659E+02  0.00000000000E+00 0. -1.
         21   -1    0    0  506  502 -0.00000000000E+00 -0.00000000000E+00 -0.57819320498E+03  0.57819320498E+03  0.00000000000E+00 0. -1.
         21    1    1    2  503  502  0.14913129645E+03  0.17090666281E+02 -0.30659011942E+03  0.34136452039E+03  0.00000000000E+00 0. -1.
         21    1    1    2  504  503 -0.11161564940E+03 -0.43034125837E+02 -0.16146585092E+03  0.20095076559E+03  0.00000000000E+00 0. -1.
         21    1    1    2  505  504 -0.35424099389E+02 -0.33082690356E+02 -0.31826119412E+02  0.57984766065E+02  0.00000000000E+00 0. -1.
         21    1    1    2  506  501 -0.20915476613E+01  0.59026149912E+02  0.29316384321E+01  0.59135906597E+02  0.00000000000E+00 0. -1.
<scales pt_clust_3="153.07916" pt_clust_4="30.33680" pt_clust_5="30.33680" pt_clust_6="59.06319"></scales>
<clustering>
<clus scale="   30.337">  4  5 -1 -1</clus>
<clus scale="   59.063">  1  6  2 -1</clus>
<clus scale="  153.079">  2  3  1 -1</clus>
<clus scale="   59.063">  1  3  2 -1</clus>
</clustering>
</event>
<event>
 6    0  0.9315069E+002  0.9238693E+02  0.7546771E-02  0.1297172E+00
         21   -1    0    0  504  501  0.00000000000E+00  0.00000000000E+00  0.25181997440E+03  0.25181997440E+03  0.00000000000E+00 0. -1.
         21   -1    0    0  505  502 -0.00000000000E+00 -0.00000000000E+00 -0.31514471055E+03  0.31514471055E+03  0.00000000000E+00 0. -1.
         21    1    1    2  503  502  0.64166194495E+02  0.56824907847E+02 -0.20689418431E+03  0.22394547142E+03  0.00000000000E+00 0. -1.
         21    1    1    2  504  506  0.92963723852E+01  0.32097540201E+02  0.19014897285E+03  0.19306295994E+03  0.00000000000E+00 0. -1.
         21    1    1    2  505  501  0.17562599566E+02 -0.25736908134E+02 -0.15903963390E+02  0.34982415515E+02  0.00000000000E+00 0. -1.
         21    1    1    2  506  503 -0.91025166446E+02 -0.63185539914E+02 -0.30675561293E+02  0.11497383807E+03  0.00000000000E+00 0. -1.
<scales pt_clust_3="92.38693" pt_clust_4="33.31714" pt_clust_5="31.15820" pt_clust_6="14000.00000"></scales>
<clustering>
<clus scale="   31.158">  2  5  1 -1</clus>
<clus scale="   33.317">  1  4  2 -1</clus>
<clus scale="   92.387">  2  3  1 -1</clus>
<clus scale="   33.317">  1  3  2 -1</clus>
</clustering>
</event>
<event>
 6    0  0.9315069E+002  0.1797986E+03  0.7546771E-02  0.1167998E+00
         21   -1    0    0  506  501  0.00000000000E+00  0.00000000000E+00  0.48079549069E+03  0.48079549069E+03  0.00000000000E+00 0.  1.
         21   -1    0    0  503  502 -0.00000000000E+00 -0.00000000000E+00 -0.46964732577E+03  0.46964732577E+03  0.00000000000E+00 0.  1.
         21    1    1    2  503  504 -0.63284722705E+02 -0.15251705251E+03  0.56485262187E+02  0.17451931778E+03  0.00000000000E+00 0.  1.
         21    1    1    2  504  501  0.12558392877E+03  0.13329672855E+03  0.31574714409E+03  0.36501452027E+03  0.00000000000E+00 0.  1.
         21    1    1    2  505  502 -0.46199345400E+02 -0.12362627901E+02 -0.37102276021E+03  0.37409237185E+03  0.00000000000E+00 0.  1.
         21    1    1    2  506  505 -0.16099860664E+02  0.31582951861E+02  0.99385188508E+01  0.36816606560E+02  0.00000000000E+00 0. -1.
<scales pt_clust_3="179.79862" pt_clust_4="14000.00000" pt_clust_5="47.84976" pt_clust_6="35.44980"></scales>
<clustering>
<clus scale="   35.450">  1  6  2 -1</clus>
<clus scale="   47.850">  2  5  1 -1</clus>
<clus scale="  179.799">  2  3  1 -1</clus>
<clus scale="   35.450">  1  3  2 -1</clus>
</clustering>
</event>
<event>
 6    0  0.9315069E+002  0.8685148E+02  0.7546771E-02  0.1310661E+00
         21   -1    0    0  503  501  0.00000000000E+00  0.00000000000E+00  0.21768080714E+03  0.21768080714E+03  0.00000000000E+00 0.  1.
         21   -1    0    0  504  502 -0.00000000000E+00 -0.00000000000E+00 -0.28871123367E+03  0.28871123367E+03  0.00000000000E+00 0.  1.
         21    1    1    2  503  506  0.41315875949E+02  0.36048477636E+02  0.70315712894E+02  0.89167223940E+02  0.00000000000E+00 0.  1.
         21    1    1    2  504  505 -0.33279239016E+02  0.11914173865E+02 -0.16035329841E+03  0.16420303164E+03  0.00000000000E+00 0.  1.
         21    1    1    2  505  501 -0.25631498655E+02 -0.12085516235E+03  0.87557664686E+02  0.15142420096E+03  0.00000000000E+00 0.  1.
         21    1    1    2  506  502  0.17594861723E+02  0.72892510853E+02 -0.68550505703E+02  0.10159758427E+03  0.00000000000E+00 0.  1.
<scales pt_clust_3="53.59539" pt_clust_4="35.34763" pt_clust_5="86.85148" pt_clust_6="14000.00000"></scales>
<clustering>
<clus scale="   35.348">  2  4  1 -1</clus>
<clus scale="   53.595">  1  3  2 -1</clus>
<clus scale="   86.851">  1  5  2 -1</clus>
<clus scale="   53.595">  1  3  2 -1</clus>
</clustering>
</event>
<event>
 6    0  0.9315069E+002  0.1146140E+03  0.7546771E-02  0.1252256E+00
         21   -1    0    0  505  501  0.00000000000E+00  0.00000000000E+00  0.42970099695E+03  0.42970099695E+03  0.00000000000E+00 0. -1.
         21   -1    0    0  503  502 -0.00000000000E+00 -0.00000000000E+00 -0.79451833491E+02  0.79451833491E+02  0.00000000000E+00 0. -1.
         21    1    1    2  503  506  0.43708734597E+02 -0.90471205213E+02  0.15881510139E+03  0.18793011702E+03  0.00000000000E+00 0. -1.
         21    1    1    2  504  502  0.42783103535E+02  0.20363155843E+02 -0.10454983538E+02  0.48521734767E+02  0.00000000000E+00 0. -1.
         21    1    1    2  505  504 -0.12534233850E+03  0.67335439246E+02  0.14024833685E+03  0.19978578325E+03  0.00000000000E+00 0. -1.
         21    1    1    2  506  501  0.38850500366E+02  0.27726101230E+01  0.61640708757E+02  0.72915195410E+02  0.00000000000E+00 0.  1.
<scales pt_clust_3="14000.00000" pt_clust_4="49.29247" pt_clust_5="114.61402" pt_clust_6="38.94931"></scales>
<clustering>
<clus scale="   38.949">  1  6  2 -1</clus>
<clus scale="   49.292">  2  4  1 -1</clus>
<clus scale="  114.614">  2  5  1 -1</clus>
<clus scale="   38.949">  1  3  2 -1</clus>
</clustering>
</event>
<event>
 6    0  0.9315069E+002  0.8475227E+02  0.7546771E-02  0.1316082E+00
         21   -1    0    0  506  501  0.00000000000E+00  0.00000000000E+00  0.65563327042E+02  0.65563327042E+02  0.00000000000E+00 0.  1.
         21   -1    0    0  504  502 -0.00000000000E+00 -0.00000000000E+00 -0.16212193716E+04  0.16212193716E+04  0.00000000000E+00 0.  1.
         21    1    1    2  503  501 -0.67354865653E+02  0.56737944161E+02 -0.12049959275E+02  0.88887984302E+02  0.00000000000E+00 0.  1.
         21    1    1    2  504  503  0.25283640744E+02 -0.33603856232E+02 -0.13697538703E+03  0.14328551320E+03  0.00000000000E+00 0. -1.
         21    1    1    2  505  502  0.62353571815E+02  0.26695090254E+02 -0.13985653098E+04  0.14002090993E+04  0.00000000000E+00 0.  1.
         21    1    1    2  506  505 -0.20282346906E+02 -0.49829178182E+02 -0.80653884207E+01  0.54400101881E+02  0.00000000000E+00 0. -1.
<scales pt_clust_3="14000.00000" pt_clust_4="42.05332" pt_clust_5="84.75227" pt_clust_6="54.25956"></scales>
<clustering>
<clus scale="   42.053">  2  4  1 -1</clus>
<clus scale="   54.260">  1  6  2 -1</clus>
<clus scale="   84.752">  2  5  1 -1</clus>
<clus scale="   54.260">  1  3  2 -1</clus>
</clustering>
</event>
<event>
 6    0  0.9315069E+002  0.8405072E+02  0.7546771E-02  0.1317934E+00
         21   -1    0    0  503  501  0.00000000000E+00  0.00000000000E+00  0.50431196036E+03  0.50431196036E+03  0.00000000000E+00 0. -1.
         21   -1    0    0  506  502 -0.00000000000E+00 -0.00000000000E+00 -0.83159582938E+02  0.83159582938E+02  0.00000000000E+00 0. -1.
         21    1    1    2  503  504  0.16488227447E+02 -0.81795855239E+02  0.72011133829E+02  0.11021808823E+03  0.00000000000E+00 0. -1.
         21    1    1    2  504  502  0.11153058917E+02  0.98975316150E+02  0.19404795334E+02  0.10147438106E+03  0.00000000000E+00 0. -1.
         21    1    1    2  505  501 -0.42397333069E+02  0.10251322654E+02  0.34015093208E+03  0.34293626239E+03  0.00000000000E+00 0. -1.
         21    1    1    2  506  505  0.14756046704E+02 -0.27430783566E+02 -0.10414483819E+02  0.32842811612E+02  0.00000000000E+00 0. -1.
<scales pt_clust_3="14000.00000" pt_clust_4="84.05072" pt_clust_5="43.15172" pt_clust_6="31.14785"></scales>
<clustering>
<clus scale="   31.148">  2  6  1 -1</clus>
<clus scale="   43.152">  1  5  2 -1</clus>
<clus scale="   84.051">  2  4  1 -1</clus>
<clus scale="   43.152">  1  3  2 -1</clus>
</clustering>
</event>
<event>
 6    0  0.9315069E+002  0.1326084E+03  0.7546771E-02  0.1223636E+00
         21   -1    0    0  503  501  0.00000000000E+00  0.00000000000E+00  0.55817440265E+03  0.55817440265E+03  0.00000000000E+00 0.  1.
         21   -1    0    0  505  502 -0.00000000000E+00 -0.00000000000E+00 -0.14622362469E+04  0.14622362469E+04  0.00000000000E+00 0.  1.
         21    1    1    2  503  506  0.19528913431E+02 -0.13032675992E+03  0.50623248396E+03  0.52310397688E+03  0.00000000000E+00 0.  1.
         21    1    1    2  504  501  0.13681713854E+03 -0.28515527358E+02 -0.27816973930E+03  0.31130446280E+03  0.00000000000E+00 0.  1.
         21    1    1    2  505  504 -0.10007704783E+03 -0.56902678870E+02 -0.23635262406E+03  0.26289901724E+03  0.00000000000E+00 0.  1.
         21    1    1    2  506  502 -0.56269004138E+02  0.21574496615E+03 -0.89577196486E+03  0.92310319265E+03  0.00000000000E+00 0.  1.
<scales pt_clust_3="14000.00000" pt_clust_4="120.19880" pt_clust_5="115.12311" pt_clust_6="132.60839"></scales>
<clustering>
<clus scale="  115.123">  2  5  1 -1</clus>
<clus scale="  120.199">  2  4  1 -1</clus>
<clus scale="  132.608">  2  6  1 -1</clus>
<clus scale="  132.608">  1  3  2 -1</clus>
</clustering>
</event>
<event>
 6    0  0.9315069E+002  0.2989551E+03  0.7546771E-02  0.1085764E+00
         21   -1    0    0  505  501  0.00000000000E+00  0.00000000000E+00  0.62797081800E+03  0.62797081800E+03  0.00000000000E+00 0.  1.
         21   -1    0    0  506  502 -0.00000000000E+00 -0.00000000000E+00 -0.99310190638E+03  0.99310190638E+03  0.00000000000E+00 0.  1.
         21    1    1    2  503  502  0.31301771962E+03  0.41605513649E+02 -0.84524053596E+03  0.90229855103E+03  0.00000000000E+00 0.  1.
         21    1    1    2  504  501 -0.17128219334E+03 -0.61157007156E+01  0.47521003323E+03  0.50517280928E+03  0.00000000000E+00 0.  1.
         21    1    1    2  505  503 -0.13576139824E+03  0.22885577839E+01  0.58423078235E+02  0.14781627386E+03  0.00000000000E+00 0.  1.
         21    1    1    2  506  504 -0.59741280479E+01 -0.37778370717E+02 -0.53523663884E+02  0.65785090222E+02  0.00000000000E+00 0. -1.
<scales pt_clust_3="298.95506" pt_clust_4="14000.00000" pt_clust_5="136.04830" pt_clust_6="38.24782"></scales>
<clustering>
<clus scale="   38.248">  2  6  1 -1</clus>
<clus scale="  136.048">  1  5  2 -1</clus>
<clus scale="  298.955">  2  3  1 -1</clus>
<clus scale="  136.048">  1  3  2 -1</clus>
</clustering>
</event>
<event>
 6    0  0.9315069E+002  0.9774192E+02  0.7546771E-02  0.1285117E+00
         21   -1    0    0  504  501  0.00000000000E+00  0.00000000000E+00  0.70766279446E+02  0.70766279446E+02  0.00000000000E+00 0.  1.
         21   -1    0    0  503  502 -0.00000000000E+00 -0.00000000000E+00 -0.45521930692E+03  0.45521930692E+03  0.00000000000E+00 0.  1.
         21    1    1    2  503  505 -0.86217761843E+02 -0.24330889200E+02 -0.14289838778E+03  0.16865777141E+03  0.00000000000E+00 0. -1.
         21    1    1    2  504  506  0.41139499491E+02 -0.40649827231E+02 -0.19853113775E+01  0.57868889168E+02  0.00000000000E+00 0.  1.
         21    1    1    2  505  501 -0.53629130688E+02  0.25743853019E+02 -0.35168242066E+02  0.69105968459E+02  0.00000000000E+00 0.  1.
         21    1    1    2  506  502  0.98707393039E+02  0.39236863412E+02 -0.20440108626E+03  0.23035295734E+03  0.00000000000E+00 0.  1.
<scales pt_clust_3="97.74192" pt_clust_4="57.83482" pt_clust_5="38.55179" pt_clust_6="14000.00000"></scales>
<clustering>
<clus scale="   57.835">  1  4  2 -1</clus>
<clus scale="   38.552">  1  5  2 -1</clus>
<clus scale="   97.742">  2  3  1 -1</clus>
<clus scale="   57.835">  1  3  2 -1</clus>
</clustering>
</event>
<event>
 6    0  0.9315069E+002  0.8937308E+02  0.7546771E-02  0.1304377E+00
         21   -1    0    0  506  501  0.00000000000E+00  0.00000000000E+00  0.61837064322E+02  0.61837064322E+02  0.00000000000E+00 0.  1.
         21   -1    0    0  504  502 -0.00000000000E+00 -0.00000000000E+00 -0.77524638254E+03  0.77524638254E+03  0.00000000000E+00 0. -1.
         21    1    1    2  503  501 -0.56123730721E+02  0.31596163479E+02  0.15477498939E+02  0.66240045818E+02  0.00000000000E+00 0.  1.
         21    1    1    2  504  505  0.50099093303E+02  0.26392438389E+02 -0.11333344830E+03  0.12669234569E+03  0.00000000000E+00 0.  1.
         21    1    1    2  505  503 -0.69609243250E+02 -0.62806557884E+02 -0.18967015271E+03  0.21157711901E+03  0.00000000000E+00 0.  1.
         21    1    1    2  506  502  0.75633880667E+02  0.48179560166E+01 -0.42588321615E+03  0.43257393634E+03  0.00000000000E+00 0. -1.
<scales pt_clust_3="63.24376" pt_clust_4="56.62579" pt_clust_5="89.37308" pt_clust_6="14000.00000"></scales>
<clustering>
<clus scale="   56.626">  2  4  1 -1</clus>
<clus scale="   63.244">  1  3  2 -1</clus>
<clus scale="   89.373">  1  5  2 -1</clus>
<clus scale="   63.244">  1  3  2 -1</clus>
</clustering>
</event>
<event>
 6    0  0.9315069E+002  0.8970121E+02  0.7546771E-02  0.1303577E+00
         21   -1    0    0  503  501  0.00000000000E+00  0.00000000000E+00  0.18736435856E+03  0.18736435856E+03  0.00000000000E+00 0.  1.
         21   -1    0    0  504  502 -0.00000000000E+00 -0.00000000000E+00 -0.47564387106E+03  0.47564387106E+03  0.00000000000E+00 0.  1.
         21    1    1    2  503  505  0.86732648346E+02 -0.21135888083E+02  0.15252547457E+03  0.17672944985E+03  0.00000000000E+00 0.  1.
         21    1    1    2  504  501 -0.10468460619E+03  0.33419363797E+01 -0.35464283964E+03  0.36978585562E+03  0.00000000000E+00 0.  1.
         21    1    1    2  505  506  0.35547876469E+02 -0.16535416548E+02 -0.50729435753E+02  0.64113549065E+02  0.00000000000E+00 0.  1.
         21    1    1    2  506  502 -0.17595918624E+02  0.34329368251E+02 -0.35432711674E+02  0.52379375076E+02  0.00000000000E+00 0. -1.
<scales pt_clust_3="89.70121" pt_clust_4="14000.00000" pt_clust_5="35.29895" pt_clust_6="38.57618"></scales>
<clustering>
<clus scale="   38.576">  2  6  1 -1</clus>
<clus scale="   35.299">  2  5  1 -1</clus>
<clus scale="   89.701">  1  3  2 -1</clus>
<clus scale="   89.701">  1  3  2 -1</clus>
</clustering>
</event>
<event>
 6    0  0.9315069E+002  0.2322824E+03  0.7546771E-02  0.1125044E+00
         21   -1    0    0  505  501  0.00000000000E+00  0.00000000000E+00  0.61438171707E+02  0.61438171707E+02  0.00000000000E+00 0. -1.
         21   -1    0    0  504  502 -0.00000000000E+00 -0.00000000000E+00 -0.13446774084E+04  0.13446774084E+04  0.00000000000E+00 0.  1.
         21    1    1    2  503  502 -0.22142893879E+02  0.57589003556E+02 -0.35137521992E+03  0.35675109847E+03  0.00000000000E+00 0.  1.
         21    1    1    2  504  506  0.15294949722E+03 -0.15453960762E+03 -0.27153559052E+03  0.34786148960E+03  0.00000000000E+00 0. -1.
         21    1    1    2  505  503 -0.11231725279E+03  0.12789266415E+03 -0.63508129943E+03  0.65749521344E+03  0.00000000000E+00 0.  1.
         21    1    1    2  506  501 -0.18489350552E+02 -0.30942060084E+02 -0.25247126855E+02  0.44007778636E+02  0.00000000000E+00 0. -1.
<scales pt_clust_3="33.60894" pt_clust_4="225.47495" pt_clust_5="33.60894" pt_clust_6="36.04535"></scales>
<clustering>
<clus scale="   33.609">  3  5 -1 -1</clus>
<clus scale="   36.045">  1  6  2 -1</clus>
<clus scale="  225.475">  1  4  2 -1</clus>
<clus scale="   36.045">  1  3  2 -1</clus>
</clustering>
</event>
<event>
 6    0  0.9315069E+002  0.1054482E+03  0.7546771E-02  0.1269239E+00
         21   -1    0    0  503  501  0.00000000000E+00  0.00000000000E+00  0.24349891209E+03  0.24349891209E+03  0.00000000000E+00 0.  1.
         21   -1    0    0  504  502 -0.00000000000E+00 -0.00000000000E+00 -0.50281010665E+03  0.50281010665E+03  0.00000000000E+00 0. -1.
         21    1    1    2  503  506  0.72692301918E+01  0.12102156488E+03 -0.15682666846E+03  0.19822629698E+03  0.00000000000E+00 0.  1.
         21    1    1    2  504  505 -0.24922558827E+02 -0.96305558222E+02 -0.11606457278E+03  0.15286228945E+03  0.00000000000E+00 0. -1.
         21    1    1    2  505  501  0.35034843077E+02  0.11281699570E+02  0.20061393609E+03  0.20396241891E+03  0.00000000000E+00 0.  1.
         21    1    1    2  506  502 -0.17381514442E+02 -0.35997706232E+02 -0.18703388941E+03  0.19125801339E+03  0.00000000000E+00 0. -1.
<scales pt_clust_3="14000.00000" pt_clust_4="105.44818" pt_clust_5="36.80648" pt_clust_6="38.69709"></scales>
<clustering>
<clus scale="   36.806">  1  5  2 -1</clus>
<clus scale="   38.697">  2  6  1 -1</clus>
<clus scale="  105.448">  1  4  2 -1</clus>
<clus scale="   36.806">  1  3  2 -1</clus>
</clustering>
</event>
<event>
 6    0  0.9315069E+002  0.1402973E+03  0.7546771E-02  0.1212929E+00
         21   -1    0    0  503  501  0.00000000000E+00  0.00000000000E+00  0.51409576079E+03  0.51409576079E+03  0.00000000000E+00 0.  1.
         21   -1    0    0  506  502 -0.00000000000E+00 -0.00000000000E+00 -0.26553834445E+03  0.26553834445E+03  0.00000000000E+00 0.  1.
         21    1    1    2  503  504 -0.25899615882E+02  0.43450891559E+02  0.69046673215E+02  0.85593300919E+02  0.00000000000E+00 0.  1.
         21    1    1    2  504  502  0.78067478994E+02 -0.75680220979E+02 -0.22261774180E+03  0.24775125850E+03  0.00000000000E+00 0.  1.
         21    1    1    2  505  501 -0.88450273454E+02  0.49933666807E+02  0.39161330498E+03  0.40457113416E+03  0.00000000000E+00 0.  1.
         21    1    1    2  506  505  0.36282410342E+02 -0.17704337386E+02  0.10515179940E+02  0.41718411663E+02  0.00000000000E+00 0.  1.
<scales pt_clust_3="49.47137" pt_clust_4="140.29734" pt_clust_5="14000.00000" pt_clust_6="40.37149"></scales>
<clustering>
<clus scale="   40.371">  2  6  1 -1</clus>
<clus scale="   49.471">  1  3  2 -1</clus>
<clus scale="  140.297">  2  4  1 -1</clus>
<clus scale="   49.471">  1  3  2 -1</clus>
</clustering>
</event>
<event>
 6    0  0.9315069E+002  0.1227517E+03  0.7546771E-02  0.1238625E+00
         21   -1    0    0  504  501  0.00000000000E+00  0.00000000000E+00  0.18368888791E+04  0.18368888791E+04  0.00000000000E+00 0. -1.
         21   -1    0    0  505  502 -0.00000000000E+00 -0.00000000000E+00 -0.15539769648E+02  0.15539769648E+02  0.00000000000E+00 0. -1.
         21    1    1    2  503  501  0.30682891356E+02 -0.44702380544E+02  0.77906147238E+03  0.78094591387E+03  0.00000000000E+00 0. -1.
         21    1    1    2  504  506  0.35687479292E+02  0.46908529544E+00  0.21978932081E+03  0.22266827740E+03  0.00000000000E+00 0. -1.
         21    1    1    2  505  503 -0.13890903089E+02 -0.56924074166E+02  0.55457569420E+03  0.55766253954E+03  0.00000000000E+00 0. -1.
         21    1    1    2  506  502 -0.52479467560E+02  0.10115736941E+03  0.26792262204E+03  0.29115191791E+03  0.00000000000E+00 0. -1.
<scales pt_clust_3="48.19998" pt_clust_4="35.69056" pt_clust_5="48.19998" pt_clust_6="111.32558"></scales>
<clustering>
<clus scale="   35.691">  1  4  2 -1</clus>
<clus scale="   48.200">  3  5 -1 -1</clus>
<clus scale="  111.326">  2  6  1 -1</clus>
<clus scale="   35.691">  1  3  2 -1</clus>
</clustering>
</event>
<event>
 6    0  0.9315069E+002  0.1484271E+03  0.7546771E-02  0.1202419E+00
         21   -1    0    0  506  501  0.00000000000E+00  0.00000000000E+00  0.12960743770E+04  0.12960743770E+04  0.00000000000E+00 0.  1.
         21   -1    0    0  505  502 -0.00000000000E+00 -0.00000000000E+00 -0.72674026332E+02  0.72674026332E+02  0.00000000000E+00 0.  1.
         21    1    1    2  503  502  0.22994821240E+02 -0.22335152803E+02  0.51313692888E+02  0.60503850558E+02  0.00000000000E+00 0.  1.
         21    1    1    2  504  503 -0.19302135481E+03 -0.43491216128E+02  0.10289293902E+04  0.10477807114E+04  0.00000000000E+00 0.  1.
         21    1    1    2  505  501  0.12247826678E+03  0.38523302489E+02  0.25842844470E+02  0.13096878742E+03  0.00000000000E+00 0.  1.
         21    1    1    2  506  504  0.47548266798E+02  0.27303066441E+02  0.11731442309E+03  0.12949505387E+03  0.00000000000E+00 0. -1.
<scales pt_clust_3="32.05653" pt_clust_4="148.42708" pt_clust_5="14000.00000" pt_clust_6="55.68694"></scales>
<clustering>
<clus scale="   32.057">  2  3  1 -1</clus>
<clus scale="   55.687">  1  6  2 -1</clus>
<clus scale="  148.427">  1  4  2 -1</clus>
<clus scale="   55.687">  1  3  2 -1</clus>
</clustering>
</event>
<event>
 6    0  0.9315069E+002  0.1163128E+03  0.7546771E-02  0.1249307E+00
         21   -1    0    0  504  501  0.00000000000E+00  0.00000000000E+00  0.33775480121E+03  0.33775480121E+03  0.00000000000E+00 0. -1.
         21   -1    0    0  501  502 -0.00000000000E+00 -0.00000000000E+00 -0.17065154156E+03  0.17065154156E+03  0.00000000000E+00 0. -1.
         21    1    1    2  503  506  0.82999227351E+02  0.21249184639E+02 -0.22662204866E+02  0.88622655783E+02  0.00000000000E+00 0. -1.
         21    1    1    2  504  505 -0.36769554385E+02 -0.90741148018E+02  0.24218454525E+03  0.26122654924E+03  0.00000000000E+00 0. -1.
         21    1    1    2  505  503  0.33955721219E+02  0.53505710295E+02 -0.42250068598E+02  0.76163773109E+02  0.00000000000E+00 0. -1.
         21    1    1    2  506  502 -0.80185394185E+02  0.15986253085E+02 -0.10169012131E+02  0.82393364636E+02  0.00000000000E+00 0. -1.
<scales pt_clust_3="52.13105" pt_clust_4="99.26960" pt_clust_5="52.13105" pt_clust_6="81.76343"></scales>
<clustering>
<clus scale="   52.131">  3  5 -1 -1</clus>
<clus scale="   81.763">  2  6  1 -1</clus>
<clus scale="   99.270">  1  4  2 -1</clus>
<clus scale="   99.270">  1  3  2 -1</clus>
</clustering>
</event>
<event>
 6    0  0.9315069E+002  0.1804014E+03  0.7546771E-02  0.1167415E+00
         21   -1    0    0  506  501  0.00000000000E+00  0.00000000000E+00  0.65356218501E+03  0.65356218501E+03  0.00000000000E+00 0. -1.
         21   -1    0    0  504  502 -0.00000000000E+00 -0.00000000000E+00 -0.33475890876E+04  0.33475890876E+04  0.00000000000E+00 0. -1.
         21    1    1    2  503  502  0.58686658918E+02  0.29437269932E+02 -0.76555919602E+02  0.10085378338E+03  0.00000000000E+00 0. -1.
         21    1    1    2  504  505 -0.12871663165E+03  0.13914862539E+03 -0.31797545402E+04  0.31853993859E+04  0.00000000000E+00 0. -1.
         21    1    1    2  505  501  0.32869206868E+02 -0.89692340997E+02  0.60867079746E+03  0.61612112484E+03  0.00000000000E+00 0. -1.
         21    1    1    2  506  503  0.37160765867E+02 -0.78893554327E+02 -0.46387240216E+02  0.98776978538E+02  0.00000000000E+00 0. -1.
<scales pt_clust_3="65.65574" pt_clust_4="180.40141" pt_clust_5="14000.00000" pt_clust_6="87.18341"></scales>
<clustering>
<clus scale="   65.656">  2  3  1 -1</clus>
<clus scale="   87.183">  1  6  2 -1</clus>
<clus scale="  180.401">  2  4  1 -1</clus>
<clus scale="   87.183">  1  3  2 -1</clus>
</clustering>
</event>
<event>
 6    0  0.9315069E+002  0.9057414E+02  0.7546771E-02  0.1301467E+00
         21   -1    0    0  503  501  0.00000000000E+00  0.00000000000E+00  0.16856693486E+03  0.16856693486E+03  0.00000000000E+00 0. -1.
         21   -1    0    0  505  502 -0.00000000000E+00 -0.00000000000E+00 -0.19284209968E+03  0.19284209968E+03  0.00000000000E+00 0. -1.
         21    1    1    2  503  502  0.19994452309E+02 -0.25073122082E+02  0.13591625345E+01  0.32098082449E+02  0.00000000000E+00 0. -1.
         21    1    1    2  504  501  0.56254086039E+02  0.40460699154E+02  0.38777244819E+02  0.79405699341E+02  0.00000000000E+00 0. -1.
         21    1    1    2  505  506  0.31413048994E+02  0.50164207374E+02 -0.10238465225E+03  0.11826176206E+03  0.00000000000E+00 0. -1.
         21    1    1    2  506  504 -0.10766158734E+03 -0.65551784447E+02  0.37973080075E+02  0.13164349070E+03  0.00000000000E+00 0. -1.
<scales pt_clust_3="32.06929" pt_clust_4="90.57414" pt_clust_5="58.65317" pt_clust_6="14000.00000"></scales>
<clustering>
<clus scale="   32.069">  1  3  2 -1</clus>
<clus scale="   58.653">  2  5  1 -1</clus>
<clus scale="   90.574">  1  4  2 -1</clus>
<clus scale="   32.069">  1  3  2 -1</clus>
</clustering>
</event>
<event>
 6    0  0.9315069E+002  0.8661021E+02  0.7546771E-02  0.1311275E+00
         21   -1    0    0  506  501  0.00000000000E+00  0.00000000000E+00  0.69047754478E+03  0.69047754478E+03  0.00000000000E+00 0. -1.
         21   -1    0    0  505  502 -0.00000000000E+00 -0.00000000000E+00 -0.42206407842E+03  0.42206407842E+03  0.00000000000E+00 0.  1.
         21    1    1    2  503  502 -0.56422242001E+02  0.75749602197E+02 -0.23368596430E+03  0.25205277530E+03  0.00000000000E+00 0.  1.
         21    1    1    2  504  501  0.87083186783E+02 -0.34748003031E+01  0.65642313321E+03  0.66218342283E+03  0.00000000000E+00 0. -1.
         21    1    1    2  505  504  0.29619765993E+02 -0.12451118675E+02 -0.15763214077E+02  0.35788822442E+02  0.00000000000E+00 0.  1.
         21    1    1    2  506  503 -0.60280710775E+02 -0.59823683219E+02 -0.13856048847E+03  0.16251660263E+03  0.00000000000E+00 0.  1.
<scales pt_clust_3="78.13272" pt_clust_4="14000.00000" pt_clust_5="32.13037" pt_clust_6="86.61021"></scales>
<clustering>
<clus scale="   32.130">  2  5  1 -1</clus>
<clus scale="   78.133">  2  3  1 -1</clus>
<clus scale="   86.610">  2  6  1 -1</clus>
<clus scale="   86.610">  1  3  2 -1</clus>
</clustering>
</event>
<event>
 6    0  0.9315069E+002  0.1134400E+03  0.7546771E-02  0.1254329E+00
         21   -1    0    0  506  501  0.00000000000E+00  0.00000000000E+00  0.17504199376E+04  0.17504199376E+04  0.00000000000E+00 0. -1.
         21   -1    0    0  505  502 -0.00000000000E+00 -0.00000000000E+00 -0.30019275053E+03  0.30019275053E+03  0.00000000000E+00 0.  1.
         21    1    1    2  503  504 -0.15173818711E+02 -0.68598557099E+02 -0.51786473060E+02  0.87280270407E+02  0.00000000000E+00 0.  1.
         21    1    1    2  504  501  0.28830186751E+02  0.11098233747E+03  0.16650646763E+04  0.16690082789E+04  0.00000000000E+00 0. -1.
         21    1    1    2  505  503 -0.63444260582E+02 -0.78424215207E+02 -0.19900939261E+03  0.22311492572E+03  0.00000000000E+00 0.  1.
         21    1    1    2  506  502  0.49787892542E+02  0.36040434839E+02  0.35958376424E+02  0.71209213043E+02  0.00000000000E+00 0.  1.
<scales pt_clust_3="14000.00000" pt_clust_4="113.43998" pt_clust_5="57.81014" pt_clust_6="61.46338"></scales>
<clustering>
<clus scale="   61.463">  2  6  1 -1</clus>
<clus scale="   57.810">  2  5  1 -1</clus>
<clus scale="  113.440">  1  4  2 -1</clus>
<clus scale="  113.440">  1  3  2 -1</clus>
</clustering>
</event>
<event>
 6    0  0.9315069E+002  0.8217555E+02  0.7546771E-02  0.1322988E+00
         21   -1    0    0  505  501  0.00000000000E+00  0.00000000000E+00  0.11382235977E+04  0.11382235977E+04  0.00000000000E+00 0.  1.
         21   -1    0    0  504  502 -0.00000000000E+00 -0.00000000000E+00 -0.26599611495E+03  0.26599611495E+03  0.00000000000E+00 0. -1.
         21    1    1    2  503  501  0.18346615958E+02  0.41350734875E+02 -0.26581361119E+02  0.52469518301E+02  0.00000000000E+00 0. -1.
         21    1    1    2  504  503  0.11160163509E+02  0.81041730470E+02 -0.19558472525E+03  0.21200400015E+03  0.00000000000E+00 0. -1.
         21    1    1    2  505  506 -0.11086799741E+02 -0.38226221575E+02  0.10334412090E+04  0.10342073746E+04  0.00000000000E+00 0.  1.
         21    1    1    2  506  502 -0.18419979725E+02 -0.84166243770E+02  0.60952360083E+02  0.10553881960E+03  0.00000000000E+00 0. -1.
<scales pt_clust_3="40.35381" pt_clust_4="14000.00000" pt_clust_5="39.80152" pt_clust_6="82.17555"></scales>
<clustering>
<clus scale="   39.802">  1  5  2 -1</clus>
<clus scale="   40.354">  1  3  2 -1</clus>
<clus scale="   82.176">  1  6  2 -1</clus>
<clus scale="   39.802">  1  3  2 -1</clus>
</clustering>
</event>
<event>
 6    0  0.9315069E+002  0.8461964E+02  0.7546771E-02  0.1316430E+00
         21   -1    0    0  504  501  0.00000000000E+00  0.00000000000E+00  0.10544403865E+04  0.10544403865E+04  0.00000000000E+00 0. -1.
         21   -1    0    0  505  502 -0.00000000000E+00 -0.00000000000E+00 -0.30721043448E+02  0.30721043448E+02  0.00000000000E+00 0. -1.
         21    1    1    2  503  506 -0.43640801377E+02  0.73566005837E+02  0.30147838089E+03  0.31337787239E+03  0.00000000000E+00 0. -1.
         21    1    1    2  504  502  0.96552720024E+02 -0.33404362706E+02  0.37142849990E+03  0.38522384366E+03  0.00000000000E+00 0. -1.
         21    1    1    2  505  503  0.20051110986E+02 -0.52123636367E+02  0.44380648811E+02  0.71334160882E+02  0.00000000000E+00 0. -1.
         21    1    1    2  506  501 -0.72963029633E+02  0.11961993236E+02  0.30643181349E+03  0.31522555305E+03  0.00000000000E+00 0.  1.
<scales pt_clust_3="66.61759" pt_clust_4="14000.00000" pt_clust_5="55.84730" pt_clust_6="84.61964"></scales>
<clustering>
<clus scale="   55.847">  2  5  1 -1</clus>
<clus scale="   66.618">  2  3  1 -1</clus>
<clus scale="   84.620">  1  6  2 -1</clus>
<clus scale="   84.620">  1  3  2 -1</clus>
</clustering>
</event>
<event>
 6    0  0.9315069E+002  0.1976369E+03  0.7546771E-02  0.1151748E+00
         21   -1    0    0  504  501  0.00000000000E+00  0.00000000000E+00  0.11726027820E+03  0.11726027820E+03  0.00000000000E+00 0. -1.
         21   -1    0    0  503  502 -0.00000000000E+00 -0.00000000000E+00 -0.10987011873E+04  0.10987011873E+04  0.00000000000E+00 0.  1.
         21    1    1    2  503  505 -0.19554223463E+02 -0.63775372797E+02 -0.53971223205E+03  0.54381886621E+03  0.00000000000E+00 0.  1.
         21    1    1    2  504  502 -0.56473022803E+02  0.17622993284E+03 -0.91031166538E+02  0.20623497476E+03  0.00000000000E+00 0. -1.
         21    1    1    2  505  506  0.24778535176E+02 -0.17969792085E+03 -0.33348303755E+03  0.37962646759E+03  0.00000000000E+00 0.  1.
         21    1    1    2  506  501  0.51248711090E+02  0.67243360801E+02 -0.17214472960E+02  0.86281156920E+02  0.00000000000E+00 0. -1.
<scales pt_clust_3="66.70582" pt_clust_4="197.63692" pt_clust_5="14000.00000" pt_clust_6="78.76141"></scales>
<clustering>
<clus scale="   66.706">  2  3  1 -1</clus>
<clus scale="   78.761">  1  6  2 -1</clus>
<clus scale="  197.637">  1  4  2 -1</clus>
<clus scale="   78.761">  1  3  2 -1</clus>
</clustering>
</event>
<event>
 6    0  0.9315069E+002  0.1102307E+03  0.7546771E-02  0.1260143E+00
         21   -1    0    0  505  501  0.00000000000E+00  0.00000000000E+00  0.26772532791E+03  0.26772532791E+03  0.00000000000E+00 0.  1.
         21   -1    0    0  503  502 -0.00000000000E+00 -0.00000000000E+00 -0.12145734843E+03  0.12145734843E+03  0.00000000000E+00 0.  1.
         21    1    1    2  503  506 -0.44084212471E+02 -0.57089027194E+02 -0.31359731164E+02  0.78651176430E+02  0.00000000000E+00 0.  1.
         21    1    1    2  504  501  0.82414779283E+02  0.54233391796E+02  0.19170293477E+03  0.21560025934E+03  0.00000000000E+00 0.  1.
         21    1    1    2  505  502  0.12031315311E+02  0.30373862255E+02 -0.18193139583E+02  0.37394042096E+02  0.00000000000E+00 0. -1.
         21    1    1    2  506  504 -0.50361882123E+02 -0.27518226856E+02  0.41179154536E+01  0.57537198471E+02  0.00000000000E+00 0. -1.
<scales pt_clust_3="40.23232" pt_clust_4="102.09847" pt_clust_5="32.66993" pt_clust_6="40.23232"></scales>
<clustering>
<clus scale="   32.670">  2  5  1 -1</clus>
<clus scale="   40.232">  3  6 -1 -1</clus>
<clus scale="  102.098">  1  4  2 -1</clus>
<clus scale="  102.098">  1  3  2 -1</clus>
</clustering>
</event>
<event>
 6    0  0.9315069E+002  0.8576700E+02  0.7546771E-02  0.1313439E+00
         21   -1    0    0  503  501  0.00000000000E+00  0.00000000000E+00  0.10699286304E+03  0.10699286304E+03  0.00000000000E+00 0.  1.
         21   -1    0    0  504  502 -0.00000000000E+00 -0.00000000000E+00 -0.27706260601E+03  0.27706260601E+03  0.00000000000E+00 0.  1.
         21    1    1    2  503  505  0.52480124751E+02 -0.61464091170E+02 -0.28433721285E+02  0.85676569162E+02  0.00000000000E+00 0.  1.
         21    1    1    2  504  506 -0.36083780124E+02 -0.35400889777E+02 -0.14228614857E+03  0.15099870946E+03  0.00000000000E+00 0.  1.
         21    1    1    2  505  502  0.46339772754E+02  0.33216060376E+02 -0.80813210236E+01  0.57584624295E+02  0.00000000000E+00 0. -1.
         21    1    1    2  506  501 -0.62736117382E+02  0.63648920572E+02  0.87314479017E+01  0.89795566129E+02  0.00000000000E+00 0.  1.
<scales pt_clust_3="14000.00000" pt_clust_4="50.54960" pt_clust_5="44.48230" pt_clust_6="85.76700"></scales>
<clustering>
<clus scale="   50.550">  2  4  1 -1</clus>
<clus scale="   44.482">  2  5  1 -1</clus>
<clus scale="   85.767">  1  6  2 -1</clus>
<clus scale="   85.767">  1  3  2 -1</clus>
</clustering>
</event>
<event>
 6    0  0.9315069E+002  0.7933075E+02  0.7546771E-02  0.1330961E+00
         21   -1    0    0  506  501  0.00000000000E+00  0.00000000000E+00  0.27599823739E+03  0.27599823739E+03  0.00000000000E+00 0.  1.
         21   -1    0    0  503  502 -0.00000000000E+00 -0.00000000000E+00 -0.17328244868E+03  0.17328244868E+03  0.00000000000E+00 0.  1.
         21    1    1    2  503  505  0.24365576562E+02 -0.69338778094E+02  0.42095619275E+02  0.84697040272E+02  0.00000000000E+00 0.  1.
         21    1    1    2  504  502 -0.16984442971E+02  0.29151679727E+02 -0.10578191209E+03  0.11103199836E+03  0.00000000000E+00 0.  1.
         21    1    1    2  505  501  0.65193916872E+02 -0.33107389996E+02  0.11983424260E+03  0.14038016872E+03  0.00000000000E+00 0.  1.
         21    1    1    2  506  504 -0.72575050463E+02  0.73294488363E+02  0.46567838920E+02  0.11317147872E+03  0.00000000000E+00 0.  1.
<scales pt_clust_3="62.65112" pt_clust_4="33.73858" pt_clust_5="14000.00000" pt_clust_6="79.33075"></scales>
<clustering>
<clus scale="   33.739">  2  4  1 -1</clus>
<clus scale="   62.651">  2  3  1 -1</clus>
<clus scale="   79.331">  2  6  1 -1</clus>
<clus scale="   79.331">  1  3  2 -1</clus>
</clustering>
</event>
<event>
 6    0  0.9315069E+002  0.1849819E+03  0.7546771E-02  0.1163067E+00
         21   -1    0    0  504  501  0.00000000000E+00  0.00000000000E+00  0.25192397786E+03  0.25192397786E+03  0.00000000000E+00 0. -1.
         21   -1    0    0  503  502 -0.00000000000E+00 -0.00000000000E+00 -0.66374493936E+03  0.66374493936E+03  0.00000000000E+00 0. -1.
         21    1    1    2  503  505 -0.22500452781E+02  0.34547668169E+02 -0.10877196552E+03  0.11632348101E+03  0.00000000000E+00 0. -1.
         21    1    1    2  504  506 -0.13743361246E+03  0.12152767935E+03  0.17334531520E+03  0.25239962952E+03  0.00000000000E+00 0. -1.
         21    1    1    2  505  501  0.17858218477E+03 -0.10224865361E+03 -0.41485052116E+03  0.46308459140E+03  0.00000000000E+00 0. -1.
         21    1    1    2  506  502 -0.18648119529E+02 -0.53826693909E+02 -0.61543790018E+02  0.83861215284E+02  0.00000000000E+00 0.  1.
<scales pt_clust_3="41.22877" pt_clust_4="14000.00000" pt_clust_5="184.98189" pt_clust_6="53.80306"></scales>
<clustering>
<clus scale="   41.229">  2  3  1 -1</clus>
<clus scale="   53.803">  2  6  1 -1</clus>
<clus scale="  184.982">  2  5  1 -1</clus>
<clus scale="  184.982">  1  3  2 -1</clus>
</clustering>
</event>
<event>
 6    0  0.9315069E+002  0.1923856E+03  0.7546771E-02  0.1156327E+00
         21   -1    0    0  505  501  0.00000000000E+00  0.00000000000E+00  0.14667029391E+03  0.14667029391E+03  0.00000000000E+00 0. -1.
         21   -1    0    0  506  502 -0.00000000000E+00 -0.00000000000E+00 -0.67269994125E+03  0.67269994125E+03  0.00000000000E+00 0. -1.
         21    1    1    2  503  504 -0.11799411247E+03  0.66298468819E+02 -0.33798672504E+03  0.36407845837E+03  0.00000000000E+00 0. -1.
         21    1    1    2  504  501  0.70314535184E+00  0.30897963812E+02 -0.19162120186E+02  0.36364342853E+02  0.00000000000E+00 0.  1.
         21    1    1    2  505  502  0.14841970314E+03 -0.13773801049E+03  0.37832036165E+02  0.20598890935E+03  0.00000000000E+00 0. -1.
         21    1    1    2  506  503 -0.31128736027E+02  0.40541577858E+02 -0.20671283829E+03  0.21293852459E+03  0.00000000000E+00 0. -1.
<scales pt_clust_3="31.33203" pt_clust_4="30.90596" pt_clust_5="185.50916" pt_clust_6="31.33203"></scales>
<clustering>
<clus scale="   30.906">  1  4  2 -1</clus>
<clus scale="   31.332">  3  6 -1 -1</clus>
<clus scale="  185.509">  1  5  2 -1</clus>
<clus scale="   30.906">  1  3  2 -1</clus>
</clustering>
</event>
<event>
 6    0  0.9315069E+002  0.1273105E+03  0.7546771E-02  0.1231502E+00
         21   -1    0    0  505  501  0.00000000000E+00  0.00000000000E+00  0.24218262311E+03  0.24218262311E+03  0.00000000000E+00 0. -1.
         21   -1    0    0  504  502 -0.00000000000E+00 -0.00000000000E+00 -0.19377112998E+03  0.19377112998E+03  0.00000000000E+00 0. -1.
         21    1    1    2  503  506  0.57340306765E+02 -0.44700517619E+01  0.98895430787E+01  0.58358334495E+02  0.00000000000E+00 0. -1.
         21    1    1    2  504  501 -0.11636520941E+02  0.51138373547E+02 -0.10430554922E+03  0.11674840242E+03  0.00000000000E+00 0. -1.
         21    1    1    2  505  503 -0.99449022843E+02  0.30975641657E+02  0.12837464117E+03  0.16531680802E+03  0.00000000000E+00 0. -1.
         21    1    1    2  506  502  0.53745237019E+02 -0.77643963442E+02  0.14452858106E+02  0.95530208147E+02  0.00000000000E+00 0. -1.
<scales pt_clust_3="49.39805" pt_clust_4="52.44561" pt_clust_5="110.46064" pt_clust_6="49.39805"></scales>
<clustering>
<clus scale="   49.398">  3  6 -1 -1</clus>
<clus scale="   52.446">  2  4  1 -1</clus>
<clus scale="  110.461">  1  5  2 -1</clus>
<clus scale="  110.461">  1  3  2 -1</clus>
</clustering>
</event>
<event>
 6    0  0.9315069E+002  0.9882054E+02  0.7546771E-02  0.1282796E+00
         21   -1    0    0  503  501  0.00000000000E+00  0.00000000000E+00  0.51629972098E+03  0.51629972098E+03  0.00000000000E+00 0.  1.
         21   -1    0    0  506  502 -0.00000000000E+00 -0.00000000000E+00 -0.22616096081E+03  0.22616096081E+03  0.00000000000E+00 0. -1.
         21    1    1    2  503  504  0.79568220991E+02  0.11611674086E+02  0.47023472512E+02  0.93151166036E+02  0.00000000000E+00 0. -1.
         21    1    1    2  504  502 -0.15181624725E+02 -0.73313441346E+02 -0.11240552594E+03  0.13505682016E+03  0.00000000000E+00 0. -1.
         21    1    1    2  505  501 -0.26265140430E+02 -0.91519566511E+02  0.34288069447E+03  0.35585510998E+03  0.00000000000E+00 0.  1.
         21    1    1    2  506  505 -0.38121455837E+02  0.15322133377E+03  0.12640119117E+02  0.15839758562E+03  0.00000000000E+00 0. -1.
<scales pt_clust_3="76.30705" pt_clust_4="74.86883" pt_clust_5="14000.00000" pt_clust_6="98.82054"></scales>
<clustering>
<clus scale="   74.869">  2  4  1 -1</clus>
<clus scale="   76.307">  2  3  1 -1</clus>
<clus scale="   98.821">  2  6  1 -1</clus>
<clus scale="   98.821">  1  3  2 -1</clus>
</clustering>
</event>
<event>
 6    0  0.9315069E+002  0.7708353E+02  0.7546771E-02  0.1337538E+00
         21   -1    0    0  506  501  0.00000000000E+00  0.00000000000E+00  0.51784635886E+03  0.51784635886E+03  0.00000000000E+00 0.  1.
         21   -1    0    0  505  502 -0.00000000000E+00 -0.00000000000E+00 -0.75720291435E+02  0.75720291435E+02  0.00000000000E+00 0.  1.
         21    1    1    2  503  501  0.51406739329E+02  0.54904895570E+02  0.12011346728E+03  0.14171960142E+03  0.00000000000E+00 0.  1.
         21    1    1    2  504  502 -0.29402389933E+02 -0.11363554545E+02 -0.44715258816E+02  0.54709096837E+02  0.00000000000E+00 0.  1.
         21    1    1    2  505  503  0.61105562119E+02 -0.27091502237E+02  0.14120779809E+03  0.15622893924E+03  0.00000000000E+00 0.  1.
         21    1    1    2  506  504 -0.83109911515E+02 -0.16449838788E+02  0.22552006087E+03  0.24090901279E+03  0.00000000000E+00 0.  1.
<scales pt_clust_3="14000.00000" pt_clust_4="31.52191" pt_clust_5="60.75228" pt_clust_6="77.08353"></scales>
<clustering>
<clus scale="   31.522">  2  4  1 -1</clus>
<clus scale="   60.752">  2  5  1 -1</clus>
<clus scale="   77.084">  1  6  2 -1</clus>
<clus scale="   77.084">  1  3  2 -1</clus>
</clustering>
</event>
<event>
 6    0  0.9315069E+002  0.1119728E+03  0.7546771E-02  0.1256960E+00
         21   -1    0    0  505  501  0.00000000000E+00  0.00000000000E+00  0.49768747956E+03  0.49768747956E+03  0.00000000000E+00 0. -1.
         21   -1    0    0  506  502 -0.00000000000E+00 -0.00000000000E+00 -0.32453116744E+03  0.32453116744E+03  0.00000000000E+00 0.  1.
         21    1    1    2  503  502 -0.38966951847E+02 -0.10658448975E+03 -0.29212029307E+03  0.31338944209E+03  0.00000000000E+00 0.  1.
         21    1    1    2  504  503  0.71015866363E+01  0.81348714450E+02  0.22532634462E+03  0.23966645041E+03  0.00000000000E+00 0. -1.
         21    1    1    2  505  504  0.65028011555E+02  0.32681543051E+02  0.21504442880E+03  0.22702605996E+03  0.00000000000E+00 0. -1.
         21    1    1    2  506  501 -0.33162646344E+02 -0.74457677542E+01  0.24905831781E+02  0.42136694539E+02  0.00000000000E+00 0. -1.
<scales pt_clust_3="111.97283" pt_clust_4="14000.00000" pt_clust_5="57.21087" pt_clust_6="33.98824"></scales>
<clustering>
<clus scale="   33.988">  1  6  2 -1</clus>
<clus scale="   57.211">  1  5  2 -1</clus>
<clus scale="  111.973">  2  3  1 -1</clus>
<clus scale="   33.988">  1  3  2 -1</clus>
</clustering>
</event>
<event>
 6    0  0.9315069E+002  0.9239073E+02  0.7546771E-02  0.1297163E+00
         21   -1    0    0  506  501  0.00000000000E+00  0.00000000000E+00  0.45669384304E+02  0.45669384304E+02  0.00000000000E+00 0.  1.
         21   -1    0    0  504  502 -0.00000000000E+00 -0.00000000000E+00 -0.12045882535E+04  0.12045882535E+04  0.00000000000E+00 0.  1.
         21    1    1    2  503  501  0.57977656098E+02  0.91838696343E+01 -0.59046155672E+01  0.58996750360E+02  0.00000000000E+00 0.  1.
         21    1    1    2  504  503  0.92457976330E+02  0.11807680162E+02 -0.20755587241E+03  0.22752436984E+03  0.00000000000E+00 0.  1.
         21    1    1    2  505  502 -0.74164852408E+02 -0.61195520064E+02 -0.60150353009E+03  0.60914022501E+03  0.00000000000E+00 0.  1.
         21    1    1    2  506  505 -0.76270780021E+02  0.40203970267E+02 -0.34395485108E+03  0.35459629255E+03  0.00000000000E+00 0.  1.
<scales pt_clust_3="58.70053" pt_clust_4="92.39073" pt_clust_5="14000.00000" pt_clust_6="73.79102"></scales>
<clustering>
<clus scale="   58.701">  1  3  2 -1</clus>
<clus scale="   73.791">  1  6  2 -1</clus>
<clus scale="   92.391">  1  4  2 -1</clus>
<clus scale="   58.701">  1  3  2 -1</clus>
</clustering>
</event>
<event>
 6    0  0.9315069E+002  0.1452262E+03  0.7546771E-02  0.1206465E+00
         21   -1    0    0  506  501  0.00000000000E+00  0.00000000000E+00  0.25152713556E+03  0.25152713556E+03  0.00000000000E+00 0.  1.
         21   -1    0    0  501  502 -0.00000000000E+00 -0.00000000000E+00 -0.20883837358E+03  0.20883837358E+03  0.00000000000E+00 0.  1.
         21    1    1    2  503  505  0.78225597471E+02 -0.11204783504E+02 -0.28057668863E+01  0.79073785801E+02  0.00000000000E+00 0.  1.
         21    1    1    2  504  503  0.84593995662E+02 -0.36980685747E+02 -0.48802500558E+02  0.10442891975E+03  0.00000000000E+00 0.  1.
         21    1    1    2  505  502 -0.10532586220E+03  0.54150205843E+02 -0.44496752752E+02  0.12651380576E+03  0.00000000000E+00 0.  1.
         21    1    1    2  506  504 -0.57493730932E+02 -0.59647365921E+01  0.13879378218E+03  0.15034899784E+03  0.00000000000E+00 0.  1.
<scales pt_clust_3="43.17460" pt_clust_4="43.17460" pt_clust_5="137.52410" pt_clust_6="57.80231"></scales>
<clustering>
<clus scale="   43.175">  3  4 -1 -1</clus>
<clus scale="   57.802">  1  6  2 -1</clus>
<clus scale="  137.524">  2  5  1 -1</clus>
<clus scale="   57.802">  1  3  2 -1</clus>
</clustering>
</event>
<event>
 6    0  0.9315069E+002  0.2972362E+03  0.7546771E-02  0.1086630E+00
         21   -1    0    0  502  501  0.00000000000E+00  0.00000000000E+00  0.21310615891E+04  0.21310615891E+04  0.00000000000E+00 0. -1.
         21   -1    0    0  505  502 -0.00000000000E+00 -0.00000000000E+00 -0.88161284220E+02  0.88161284220E+02  0.00000000000E+00 0. -1.
         21    1    1    2  503  504 -0.12549620667E+03  0.67806088264E+02  0.45532393748E+03  0.47714447658E+03  0.00000000000E+00 0. -1.
         21    1    1    2  504  506 -0.15460841457E+03  0.86342506257E+02  0.10023163490E+04  0.10178393064E+04  0.00000000000E+00 0. -1.
         21    1    1    2  505  503  0.23107262199E+03 -0.15204351926E+03  0.21393665624E+03  0.34968654716E+03  0.00000000000E+00 0. -1.
         21    1    1    2  506  501  0.49031999248E+02 -0.21050752644E+01  0.37132336220E+03  0.37455254319E+03  0.00000000000E+00 0. -1.
<scales pt_clust_3="83.14907" pt_clust_4="83.14907" pt_clust_5="283.38747" pt_clust_6="49.07717"></scales>
<clustering>
<clus scale="   49.077">  1  6  2 -1</clus>
<clus scale="   83.149">  3  4 -1 -1</clus>
<clus scale="  283.387">  2  5  1 -1</clus>
<clus scale="   49.077">  1  3  2 -1</clus>
</clustering>
</event>
<event>
 6    0  0.9315069E+002  0.1592597E+03  0.7546771E-02  0.1189535E+00
         21   -1    0    0  503  501  0.00000000000E+00  0.00000000000E+00  0.30852294077E+02  0.30852294077E+02  0.00000000000E+00 0. -1.
         21   -1    0    0  504  502 -0.00000000000E+00 -0.00000000000E+00 -0.15679493764E+04  0.15679493764E+04  0.00000000000E+00 0. -1.
         21    1    1    2  503  506 -0.28136645097E+02 -0.66772188478E+02 -0.21066957769E+03  0.22278210636E+03  0.00000000000E+00 0. -1.
         21    1    1    2  504  505  0.89617236251E+02  0.12643536966E+03 -0.89467354601E+03  0.90799664408E+03  0.00000000000E+00 0. -1.
         21    1    1    2  505  501 -0.74409333977E+02  0.36196484390E+02 -0.17271132671E+03  0.19151014814E+03  0.00000000000E+00 0. -1.
         21    1    1    2  506  502  0.12928742823E+02 -0.95859665569E+02 -0.25904263192E+03  0.27651277190E+03  0.00000000000E+00 0. -1.
<scales pt_clust_3="38.56509" pt_clust_4="152.89942" pt_clust_5="82.74621" pt_clust_6="38.56509"></scales>
<clustering>
<clus scale="   38.565">  3  6 -1 -1</clus>
<clus scale="   82.746">  1  5  2 -1</clus>
<clus scale="  152.899">  2  4  1 -1</clus>
<clus scale="   82.746">  1  3  2 -1</clus>
</clustering>
</event>
<event>
 6    0  0.9315069E+002  0.4722091E+03  0.7546771E-02  0.1021299E+00
         21   -1    0    0  503  501  0.00000000000E+00  0.00000000000E+00  0.20101965098E+03  0.20101965098E+03  0.00000000000E+00 0. -1.
         21   -1    0    0  504  502 -0.00000000000E+00 -0.00000000000E+00 -0.25069743287E+04  0.25069743287E+04  0.00000000000E+00 0. -1.
         21    1    1    2  503  505 -0.65466422725E+01 -0.95220861583E+02 -0.27562308946E+03  0.29168126174E+03  0.00000000000E+00 0. -1.
         21    1    1    2  504  501  0.57036809387E+02  0.44553235796E+03 -0.11081140083E+03  0.46263532741E+03  0.00000000000E+00 0. -1.
         21    1    1    2  505  506 -0.33438537313E+02 -0.36689500719E+02 -0.26346901361E+03  0.26810478618E+03  0.00000000000E+00 0. -1.
         21    1    1    2  506  502 -0.17051629802E+02 -0.31362199565E+03 -0.16560511738E+04  0.16855726043E+04  0.00000000000E+00 0. -1.
<scales pt_clust_3="59.06758" pt_clust_4="449.16843" pt_clust_5="33.33353" pt_clust_6="59.06758"></scales>
<clustering>
<clus scale="   33.334">  5  6 -1 -1</clus>
<clus scale="   59.068">  3  5 -1 -1</clus>
<clus scale="  449.168">  1  4  2 -1</clus>
<clus scale="  449.168">  1  3  2 -1</clus>
</clustering>
</event>
<event>
 6    0  0.9315069E+002  0.1253995E+03  0.7546771E-02  0.1234446E+00
         21   -1    0    0  503  501  0.00000000000E+00  0.00000000000E+00  0.30186326173E+04  0.30186326173E+04  0.00000000000E+00 0. -1.
         21   -1    0    0  505  502 -0.00000000000E+00 -0.00000000000E+00 -0.13023065105E+02  0.13023065105E+02  0.00000000000E+00 0. -1.
         21    1    1    2  503  504 -0.52021912577E+00 -0.48308600126E+02  0.51268591278E+03  0.51495712116E+03  0.00000000000E+00 0. -1.
         21    1    1    2  504  502  0.60920030485E+02 -0.89764636816E+02  0.31947681382E+03  0.33739350128E+03  0.00000000000E+00 0. -1.
         21    1    1    2  505  506 -0.29956920638E+02  0.43853521986E+02  0.11064376285E+04  0.11077115032E+04  0.00000000000E+00 0. -1.
         21    1    1    2  506  501 -0.30442890722E+02  0.94219714956E+02  0.10670091971E+04  0.10715935568E+04  0.00000000000E+00 0. -1.
<scales pt_clust_3="48.31140" pt_clust_4="113.74511" pt_clust_5="38.66395" pt_clust_6="38.66395"></scales>
<clustering>
<clus scale="   38.664">  5  6 -1 -1</clus>
<clus scale="   48.311">  1  3  2 -1</clus>
<clus scale="  113.745">  2  4  1 -1</clus>
<clus scale="   48.311">  1  3  2 -1</clus>
</clustering>
</event>
<event>
 6    0  0.9315069E+002  0.9579155E+02  0.7546771E-02  0.1289403E+00
         21   -1    0    0  506  501  0.00000000000E+00  0.00000000000E+00  0.68719817686E+03  0.68719817686E+03  0.00000000000E+00 0. -1.
         21   -1    0    0  503  502 -0.00000000000E+00 -0.00000000000E+00 -0.10866601243E+03  0.10866601243E+03  0.00000000000E+00 0. -1.
         21    1    1    2  503  501 -0.11550863797E+03 -0.92675460091E+02 -0.19841909167E+02  0.14941448293E+03  0.00000000000E+00 0. -1.
         21    1    1    2  504  505  0.61691381450E+02  0.27536202016E+02  0.17390258517E+03  0.18656413936E+03  0.00000000000E+00 0. -1.
         21    1    1    2  505  502  0.24184820697E+02  0.47513518470E+02  0.24923173541E+02  0.58852396458E+02  0.00000000000E+00 0. -1.
         21    1    1    2  506  504  0.29632435823E+02  0.17625739605E+02  0.39954831489E+03  0.40103317055E+03  0.00000000000E+00 0. -1.
<scales pt_clust_3="95.79155" pt_clust_4="14000.00000" pt_clust_5="57.63309" pt_clust_6="34.47822"></scales>
<clustering>
<clus scale="   34.478">  1  6  2 -1</clus>
<clus scale="   57.633">  2  5  1 -1</clus>
<clus scale="   95.792">  2  3  1 -1</clus>
<clus scale="   34.478">  1  3  2 -1</clus>
</clustering>
</event>
<event>
 6    0  0.9315069E+002  0.1286624E+03  0.7546771E-02  0.1229454E+00
         21   -1    0    0  504  501  0.00000000000E+00  0.00000000000E+00  0.90928015535E+03  0.90928015535E+03  0.00000000000E+00 0. -1.
         21   -1    0    0  506  502 -0.00000000000E+00 -0.00000000000E+00 -0.28650805809E+03  0.28650805809E+03  0.00000000000E+00 0.  1.
         21    1    1    2  503  505  0.75762579876E+02  0.14032198927E+02  0.12390919252E+03  0.14591216230E+03  0.00000000000E+00 0.  1.
         21    1    1    2  504  502  0.86252006103E+01  0.11333769645E+03  0.78775175058E+02  0.13829445299E+03  0.00000000000E+00 0.  1.
         21    1    1    2  505  501 -0.97692936194E+02 -0.97314733174E+02  0.65755134301E+03  0.67185402862E+03  0.00000000000E+00 0. -1.
         21    1    1    2  506  503  0.13305155708E+02 -0.30055162207E+02 -0.23746361332E+03  0.23972756953E+03  0.00000000000E+00 0.  1.
<scales pt_clust_3="79.13959" pt_clust_4="14000.00000" pt_clust_5="128.66243" pt_clust_6="32.86853"></scales>
<clustering>
<clus scale="   32.869">  2  6  1 -1</clus>
<clus scale="   79.140">  2  3  1 -1</clus>
<clus scale="  128.662">  1  5  2 -1</clus>
<clus scale="  128.662">  1  3  2 -1</clus>
</clustering>
</event>
<event>
 6    0  0.9315069E+002  0.1669561E+03  0.7546771E-02  0.1181060E+00
         21   -1    0    0  503  501  0.00000000000E+00  0.00000000000E+00  0.89692224598E+03  0.89692224598E+03  0.00000000000E+00 0. -1.
         21   -1    0    0  501  502 -0.00000000000E+00 -0.00000000000E+00 -0.15194963423E+03  0.15194963423E+03  0.00000000000E+00 0. -1.
         21    1    1    2  503  504 -0.41793442584E+02 -0.57793547798E+02  0.20627062981E+03  0.21825296958E+03  0.00000000000E+00 0. -1.
         21    1    1    2  504  505 -0.68792719180E+02  0.41469791796E+02  0.30670280707E+03  0.31704698974E+03  0.00000000000E+00 0. -1.
         21    1    1    2  505  506 -0.53952830316E+02  0.45490575281E+01  0.32141042471E+03  0.32593904788E+03  0.00000000000E+00 0. -1.
         21    1    1    2  506  502  0.16453899208E+03  0.11774698473E+02 -0.89411249820E+02  0.18763287301E+03  0.00000000000E+00 0. -1.
<scales pt_clust_3="71.32171" pt_clust_4="34.05576" pt_clust_5="34.05576" pt_clust_6="161.72119"></scales>
<clustering>
<clus scale="   34.056">  4  5 -1 -1</clus>
<clus scale="   71.322">  1  3  2 -1</clus>
<clus scale="  161.721">  2  6  1 -1</clus>
<clus scale="   71.322">  1  3  2 -1</clus>
</clustering>
</event>
<event>
 6    0  0.9315069E+002  0.2202509E+03  0.7546771E-02  0.1133696E+00
         21   -1    0    0  506  501  0.00000000000E+00  0.00000000000E+00  0.24762098890E+03  0.24762098890E+03  0.00000000000E+00 0. -1.
         21   -1    0    0  503  502 -0.00000000000E+00 -0.00000000000E+00 -0.38846275502E+03  0.38846275502E+03  0.00000000000E+00 0.  1.
         21    1    1    2  503  501  0.78916229487E+01  0.30117263948E+02 -0.13980248532E+03  0.14322730956E+03  0.00000000000E+00 0.  1.
         21    1    1    2  504  502  0.65962115038E+02 -0.15659487218E+02 -0.90044772801E+02  0.11271327016E+03  0.00000000000E+00 0.  1.
         21    1    1    2  505  504  0.11250045551E+03 -0.83863266219E+02 -0.36502990828E+02  0.14498920046E+03  0.00000000000E+00 0.  1.
         21    1    1    2  506  505 -0.18635419350E+03  0.69405489489E+02  0.12550848283E+03  0.23515396375E+03  0.00000000000E+00 0. -1.
<scales pt_clust_3="31.13402" pt_clust_4="66.24474" pt_clust_5="66.24474" pt_clust_6="199.66951"></scales>
<clustering>
<clus scale="   31.134">  2  3  1 -1</clus>
<clus scale="   66.245">  4  5 -1 -1</clus>
<clus scale="  199.670">  1  6  2 -1</clus>
<clus scale="  199.670">  1  3  2 -1</clus>
</clustering>
</event>
<event>
 6    0  0.9315069E+002  0.1113356E+03  0.7546771E-02  0.1258116E+00
         21   -1    0    0  505  501  0.00000000000E+00  0.00000000000E+00  0.16936760247E+03  0.16936760247E+03  0.00000000000E+00 0. -1.
         21   -1    0    0  501  502 -0.00000000000E+00 -0.00000000000E+00 -0.60906740589E+03  0.60906740589E+03  0.00000000000E+00 0. -1.
         21    1    1    2  503  506 -0.10857065666E+02 -0.46147441800E+02 -0.28578391698E+03  0.28968933267E+03  0.00000000000E+00 0. -1.
         21    1    1    2  504  503 -0.37740468475E+01  0.15215169954E+03 -0.14259932010E+03  0.20856401702E+03  0.00000000000E+00 0. -1.
         21    1    1    2  505  504  0.13700919002E+02 -0.57265161294E+02  0.12350220230E+03  0.13682034882E+03  0.00000000000E+00 0. -1.
         21    1    1    2  506  502  0.93019351153E+00 -0.48739096446E+02 -0.13481876864E+03  0.14336130985E+03  0.00000000000E+00 0. -1.
<scales pt_clust_3="38.50098" pt_clust_4="104.26591" pt_clust_5="58.88135" pt_clust_6="38.50098"></scales>
<clustering>
<clus scale="   38.501">  3  6 -1 -1</clus>
<clus scale="   58.881">  1  5  2 -1</clus>
<clus scale="  104.266">  1  4  2 -1</clus>
<clus scale="   58.881">  1  3  2 -1</clus>
</clustering>
</event>
<event>
 6    0  0.9315069E+002  0.1226469E+03  0.7546771E-02  0.1238793E+00
         21   -1    0    0  504  501  0.00000000000E+00  0.00000000000E+00  0.12121741626E+04  0.12121741626E+04  0.00000000000E+00 0.  1.
         21   -1    0    0  503  502 -0.00000000000E+00 -0.00000000000E+00 -0.10624347650E+03  0.10624347650E+03  0.00000000000E+00 0.  1.
         21    1    1    2  503  501  0.13894088545E+03  0.12651669856E+03  0.36939441207E+03  0.41444333308E+03  0.00000000000E+00 0.  1.
         21    1    1    2  504  506 -0.88274592621E+02 -0.33170549893E+02  0.77565429165E+03  0.78136564375E+03  0.00000000000E+00 0.  1.
         21    1    1    2  505  502 -0.40377300309E+02 -0.27398168891E+02 -0.10109227079E+02  0.49831541326E+02  0.00000000000E+00 0.  1.
         21    1    1    2  506  505 -0.10288992519E+02 -0.65947979774E+02 -0.29008790548E+02  0.72777120941E+02  0.00000000000E+00 0.  1.
<scales pt_clust_3="113.22619" pt_clust_4="94.30106" pt_clust_5="40.30491" pt_clust_6="40.30491"></scales>
<clustering>
<clus scale="   40.305">  5  6 -1 -1</clus>
<clus scale="   94.301">  1  4  2 -1</clus>
<clus scale="  113.226">  1  3  2 -1</clus>
<clus scale="   94.301">  1  3  2 -1</clus>
</clustering>
</event>
<event>
 6    0  0.9315069E+002  0.1908892E+03  0.7546771E-02  0.1157662E+00
         21   -1    0    0  506  501  0.00000000000E+00  0.00000000000E+00  0.85047590857E+03  0.85047590857E+03  0.00000000000E+00 0. -1.
         21   -1    0    0  505  502 -0.00000000000E+00 -0.00000000000E+00 -0.14622292435E+04  0.14622292435E+04  0.00000000000E+00 0. -1.
         21    1    1    2  503  501 -0.26485013335E+02 -0.19088510539E+03  0.71170362142E+03  0.73733345518E+03  0.00000000000E+00 0. -1.
         21    1    1    2  504  503  0.69551777494E+01  0.17584617145E+03 -0.39759312509E+02  0.18041910498E+03  0.00000000000E+00 0.  1.
         21    1    1    2  505  504 -0.11386127497E+02  0.58225562447E+02  0.39122669079E+02  0.71066470699E+02  0.00000000000E+00 0.  1.
         21    1    1    2  506  502  0.30915963083E+02 -0.43186628508E+02 -0.13228203129E+04  0.13238861212E+04  0.00000000000E+00 0. -1.
<scales pt_clust_3="14000.00000" pt_clust_4="190.88917" pt_clust_5="53.83132" pt_clust_6="53.11197"></scales>
<clustering>
<clus scale="   53.112">  2  6  1 -1</clus>
<clus scale="   53.831">  2  5  1 -1</clus>
<clus scale="  190.889">  2  4  1 -1</clus>
<clus scale="  190.889">  1  3  2 -1</clus>
</clustering>
</event>
<event>
 6    0  0.9315069E+002  0.1264734E+03  0.7546771E-02  0.1232784E+00
         21   -1    0    0  505  501  0.00000000000E+00  0.00000000000E+00  0.12313190159E+03  0.12313190159E+03  0.00000000000E+00 0.  1.
         21   -1    0    0  503  502 -0.00000000000E+00 -0.00000000000E+00 -0.58954811909E+03  0.58954811909E+03  0.00000000000E+00 0.  1.
         21    1    1    2  503  504  0.20361758436E+02  0.85679505901E+02 -0.12216396417E+03  0.15059752016E+03  0.00000000000E+00 0.  1.
         21    1    1    2  504  506  0.55904629789E+02  0.43760357137E+02 -0.66356228591E+02  0.97177392234E+02  0.00000000000E+00 0.  1.
         21    1    1    2  505  502 -0.24458233946E+02 -0.35374192480E+02 -0.33875224457E+03  0.34147126073E+03  0.00000000000E+00 0.  1.
         21    1    1    2  506  501 -0.51808154279E+02 -0.94065670558E+02  0.60856219831E+02  0.12343384754E+03  0.00000000000E+00 0.  1.
<scales pt_clust_3="53.26953" pt_clust_4="53.26953" pt_clust_5="43.00626" pt_clust_6="112.75735"></scales>
<clustering>
<clus scale="   43.006">  2  5  1 -1</clus>
<clus scale="   53.270">  3  4 -1 -1</clus>
<clus scale="  112.757">  1  6  2 -1</clus>
<clus scale="  112.757">  1  3  2 -1</clus>
</clustering>
</event>
<event>
 6    0  0.9315069E+002  0.2120719E+03  0.7546771E-02  0.1139936E+00
         21   -1    0    0  504  501  0.00000000000E+00  0.00000000000E+00  0.83947400375E+03  0.83947400375E+03  0.00000000000E+00 0. -1.
         21   -1    0    0  503  502 -0.00000000000E+00 -0.00000000000E+00 -0.11979343712E+04  0.11979343712E+04  0.00000000000E+00 0.  1.
         21    1    1    2  503  501  0.17038460340E+03  0.17875485598E+03 -0.10454954008E+04  0.10742647927E+04  0.00000000000E+00 0.  1.
         21    1    1    2  504  505 -0.28944793708E+02  0.31166359261E+02  0.64051044790E+03  0.64192116097E+03  0.00000000000E+00 0. -1.
         21    1    1    2  505  506 -0.12447096264E+03 -0.17442879135E+03  0.11429466923E+03  0.24286147328E+03  0.00000000000E+00 0. -1.
         21    1    1    2  506  502 -0.16968847055E+02 -0.35492423890E+02 -0.67770083785E+02  0.78360948056E+02  0.00000000000E+00 0. -1.
<scales pt_clust_3="212.07188" pt_clust_4="42.52496" pt_clust_5="14000.00000" pt_clust_6="39.34023"></scales>
<clustering>
<clus scale="   39.340">  2  6  1 -1</clus>
<clus scale="   42.525">  1  4  2 -1</clus>
<clus scale="  212.072">  2  3  1 -1</clus>
<clus scale="   42.525">  1  3  2 -1</clus>
</clustering>
</event>
<event>
 6    0  0.9315069E+002  0.8304171E+02  0.7546771E-02  0.1320635E+00
         21   -1    0    0  503  501  0.00000000000E+00  0.00000000000E+00  0.73567671311E+03  0.73567671311E+03  0.00000000000E+00 0.  1.
         21   -1    0    0  506  502 -0.00000000000E+00 -0.00000000000E+00 -0.27265661378E+02  0.27265661378E+02  0.00000000000E+00 0.  1.
         21    1    1    2  503  504  0.18795634481E+02 -0.39830193925E+02  0.24423853525E+03  0.24817772326E+03  0.00000000000E+00 0.  1.
         21    1    1    2  504  505 -0.74464322740E+02 -0.12910242417E+02  0.21559911162E+03  0.22846134608E+03  0.00000000000E+00 0.  1.
         21    1    1    2  505  502 -0.14577130915E+02 -0.27891546413E+02  0.32644297450E+02  0.45344032276E+02  0.00000000000E+00 0.  1.
         21    1    1    2  506  501  0.70245819175E+02  0.80631982755E+02  0.21592910741E+03  0.24095927287E+03  0.00000000000E+00 0.  1.
<scales pt_clust_3="45.89257" pt_clust_4="14000.00000" pt_clust_5="31.47112" pt_clust_6="83.04171"></scales>
<clustering>
<clus scale="   31.471">  2  5  1 -1</clus>
<clus scale="   45.893">  1  3  2 -1</clus>
<clus scale="   83.042">  2  6  1 -1</clus>
<clus scale="   45.893">  1  3  2 -1</clus>
</clustering>
</event>
<event>
 6    0  0.9315069E+002  0.1357304E+03  0.7546771E-02  0.1219192E+00
         21   -1    0    0  505  501  0.00000000000E+00  0.00000000000E+00  0.60376282670E+03  0.60376282670E+03  0.00000000000E+00 0. -1.
         21   -1    0    0  506  502 -0.00000000000E+00 -0.00000000000E+00 -0.24971543145E+03  0.24971543145E+03  0.00000000000E+00 0. -1.
         21    1    1    2  503  501  0.11889505185E+03  0.63412952177E+02  0.51590192161E+03  0.53320917901E+03  0.00000000000E+00 0. -1.
         21    1    1    2  504  502  0.35185782687E+02  0.11073737969E+01  0.82160181575E+01  0.36149253580E+02  0.00000000000E+00 0. -1.
         21    1    1    2  505  504 -0.13035094506E+03 -0.95177696622E+02 -0.18228706426E+03  0.24347225018E+03  0.00000000000E+00 0. -1.
         21    1    1    2  506  503 -0.23729889481E+02  0.30657370649E+02  0.12216519752E+02  0.40647575385E+02  0.00000000000E+00 0. -1.
<scales pt_clust_3="135.73044" pt_clust_4="35.20320" pt_clust_5="14000.00000" pt_clust_6="37.56178"></scales>
<clustering>
<clus scale="   35.203">  2  4  1 -1</clus>
<clus scale="   37.562">  2  6  1 -1</clus>
<clus scale="  135.730">  1  3  2 -1</clus>
<clus scale="  135.730">  1  3  2 -1</clus>
</clustering>
</event>
<event>
 6    0  0.9315069E+002  0.1008852E+03  0.7546771E-02  0.1278446E+00
         21   -1    0    0  506  501  0.00000000000E+00  0.00000000000E+00  0.23352648170E+02  0.23352648170E+02  0.00000000000E+00 0.  1.
         21   -1    0    0  504  502 -0.00000000000E+00 -0.00000000000E+00 -0.17583509709E+04  0.17583509709E+04  0.00000000000E+00 0.  1.
         21    1    1    2  503  501 -0.15483963528E+02  0.30501771913E+02 -0.68607545145E+01  0.34888123608E+02  0.00000000000E+00 0.  1.
         21    1    1    2  504  505 -0.52909666613E+02  0.67620478579E+02 -0.61069090960E+03  0.61669712908E+03  0.00000000000E+00 0.  1.
         21    1    1    2  505  503 -0.26684384712E+02 -0.23874815107E+02 -0.11515712775E+03  0.12059530362E+03  0.00000000000E+00 0.  1.
         21    1    1    2  506  502  0.95078014853E+02 -0.74247435385E+02 -0.10022895309E+04  0.10095230628E+04  0.00000000000E+00 0.  1.
<scales pt_clust_3="34.20689" pt_clust_4="100.88515" pt_clust_5="34.60927" pt_clust_6="14000.00000"></scales>
<clustering>
<clus scale="   34.207">  1  3  2 -1</clus>
<clus scale="   34.609">  1  5  2 -1</clus>
<clus scale="  100.885">  2  4  1 -1</clus>
<clus scale="   34.207">  1  3  2 -1</clus>
</clustering>
</event>
<event>
 6    0  0.9315069E+002  0.7971746E+02  0.7546771E-02  0.1329855E+00
         21   -1    0    0  505  501  0.00000000000E+00  0.00000000000E+00  0.56836912756E+02  0.56836912756E+02  0.00000000000E+00 0. -1.
         21   -1    0    0  503  502 -0.00000000000E+00 -0.00000000000E+00 -0.16945955401E+04  0.16945955401E+04  0.00000000000E+00 0. -1.
         21    1    1    2  503  506 -0.92991308722E+01  0.76435971199E+02 -0.13496164591E+04  0.13518111992E+04  0.00000000000E+00 0. -1.
         21    1    1    2  504  502  0.20263912603E+02 -0.10657086346E+03 -0.24370095189E+03  0.26675481072E+03  0.00000000000E+00 0. -1.
         21    1    1    2  505  504 -0.46681073307E+02  0.32525190430E+02  0.19033388002E+02  0.59994003671E+02  0.00000000000E+00 0. -1.
         21    1    1    2  506  501  0.35716291577E+02 -0.23902981728E+01 -0.63474604321E+02  0.72872439255E+02  0.00000000000E+00 0. -1.
<scales pt_clust_3="14000.00000" pt_clust_4="79.71746" pt_clust_5="36.44164" pt_clust_6="35.79619"></scales>
<clustering>
<clus scale="   35.796">  1  6  2 -1</clus>
<clus scale="   36.442">  1  5  2 -1</clus>
<clus scale="   79.717">  1  4  2 -1</clus>
<clus scale="   35.796">  1  3  2 -1</clus>
</clustering>
</event>
<event>
 6    0  0.9315069E+002  0.1249300E+03  0.7546771E-02  0.1235179E+00
         21   -1    0    0  503  501  0.00000000000E+00  0.00000000000E+00  0.30645930579E+02  0.30645930579E+02  0.00000000000E+00 0. -1.
         21   -1    0    0  504  502 -0.00000000000E+00 -0.00000000000E+00 -0.90893588961E+03  0.90893588961E+03  0.00000000000E+00 0. -1.
         21    1    1    2  503  506 -0.11503515802E+03 -0.26739476270E+02 -0.49812858057E+03  0.51193766217E+03  0.00000000000E+00 0. -1.
         21    1    1    2  504  505  0.13085200344E+02  0.47250783790E+02 -0.73004132072E+02  0.87940106530E+02  0.00000000000E+00 0. -1.
         21    1    1    2  505  501  0.71990413546E+02  0.28892753680E+02 -0.11249059242E+03  0.13664385914E+03  0.00000000000E+00 0. -1.
         21    1    1    2  506  502  0.29959544130E+02 -0.49404061200E+02 -0.19466665397E+03  0.20306019235E+03  0.00000000000E+00 0. -1.
<scales pt_clust_3="112.31002" pt_clust_4="43.50091" pt_clust_5="43.50091" pt_clust_6="57.77833"></scales>
<clustering>
<clus scale="   43.501">  4  5 -1 -1</clus>
<clus scale="   57.778">  2  6  1 -1</clus>
<clus scale="  112.310">  2  3  1 -1</clus>
<clus scale="  124.930">  1  3  2 -1</clus>
</clustering>
</event>
<event>
 6    0  0.9315069E+002  0.1475455E+03  0.7546771E-02  0.1203522E+00
         21   -1    0    0  505  501  0.00000000000E+00  0.00000000000E+00  0.13090108587E+03  0.13090108587E+03  0.00000000000E+00 0.  1.
         21   -1    0    0  504  502 -0.00000000000E+00 -0.00000000000E+00 -0.37687704526E+03  0.37687704526E+03  0.00000000000E+00 0.  1.
         21    1    1    2  503  502  0.23489891203E+02  0.39509289856E+02 -0.55665400473E+01  0.46300597640E+02  0.00000000000E+00 0. -1.
         21    1    1    2  504  506  0.19670827303E+02  0.25405262964E+02 -0.15147626445E+03  0.15484646436E+03  0.00000000000E+00 0.  1.
         21    1    1    2  505  503  0.84473260048E+01  0.89544334645E+02  0.40468620204E+02  0.98626844240E+02  0.00000000000E+00 0.  1.
         21    1    1    2  506  501 -0.51608044511E+02 -0.15445888746E+03 -0.12940177510E+03  0.20800422490E+03  0.00000000000E+00 0.  1.
<scales pt_clust_3="33.48606" pt_clust_4="32.13050" pt_clust_5="33.48606" pt_clust_6="140.20943"></scales>
<clustering>
<clus scale="   32.130">  2  4  1 -1</clus>
<clus scale="   33.486">  3  5 -1 -1</clus>
<clus scale="  140.209">  2  6  1 -1</clus>
<clus scale="  147.545">  1  3  2 -1</clus>
</clustering>
</event>
<event>
 6    0  0.9315069E+002  0.8803850E+02  0.7546771E-02  0.1307672E+00
         21   -1    0    0  504  501  0.00000000000E+00  0.00000000000E+00  0.79983944822E+02  0.79983944822E+02  0.00000000000E+00 0. -1.
         21   -1    0    0  505  502 -0.00000000000E+00 -0.00000000000E+00 -0.34077192805E+03  0.34077192805E+03  0.00000000000E+00 0. -1.
         21    1    1    2  503  506 -0.41586998458E+02  0.94317062733E+02 -0.39156249920E+02  0.11026512899E+03  0.00000000000E+00 0. -1.
         21    1    1    2  504  503 -0.14684933708E+02 -0.43259947957E+02  0.78506475785E+01  0.46354104917E+02  0.00000000000E+00 0. -1.
         21    1    1    2  505  501  0.79565613487E+01  0.29303268301E+02 -0.98339422090E+02  0.10292050495E+03  0.00000000000E+00 0. -1.
         21    1    1    2  506  502  0.48315370816E+02 -0.80360383078E+02 -0.13114295879E+03  0.16121613401E+03  0.00000000000E+00 0. -1.
<scales pt_clust_3="88.03850" pt_clust_4="43.25518" pt_clust_5="30.36426" pt_clust_6="14000.00000"></scales>
<clustering>
<clus scale="   30.364">  2  5  1 -1</clus>
<clus scale="   43.255">  1  4  2 -1</clus>
<clus scale="   88.038">  1  3  2 -1</clus>
<clus scale="   43.255">  1  3  2 -1</clus>
</clustering>
</event>
<event>
 6    0  0.9315069E+002  0.9830870E+02  0.7546771E-02  0.1283893E+00
         21   -1    0    0  503  501  0.00000000000E+00  0.00000000000E+00  0.89005711530E+03  0.89005711530E+03  0.00000000000E+00 0. -1.
         21   -1    0    0  505  502 -0.00000000000E+00 -0.00000000000E+00 -0.55561677164E+02  0.55561677164E+02  0.00000000000E+00 0.  1.
         21    1    1    2  503  506 -0.47435265426E+02  0.10313706743E+03  0.64066179703E+03  0.65064191169E+03  0.00000000000E+00 0. -1.
         21    1    1    2  504  501  0.72383489239E+02 -0.38949827542E+02  0.17278193723E+03  0.19133754575E+03  0.00000000000E+00 0.  1.
         21    1    1    2  505  504  0.48310012319E+01 -0.54124441292E+02  0.39511785597E+02  0.67186121477E+02  0.00000000000E+00 0.  1.
         21    1    1    2  506  502 -0.29779225045E+02 -0.10062798597E+02 -0.18460081725E+02  0.36453213537E+02  0.00000000000E+00 0.  1.
<scales pt_clust_3="98.30870" pt_clust_4="14000.00000" pt_clust_5="59.89102" pt_clust_6="31.43346"></scales>
<clustering>
<clus scale="   31.433">  2  6  1 -1</clus>
<clus scale="   59.891">  2  5  1 -1</clus>
<clus scale="   98.309">  1  3  2 -1</clus>
<clus scale="   98.309">  1  3  2 -1</clus>
</clustering>
</event>
<event>
 6    0  0.9315069E+002  0.1263634E+03  0.7546771E-02  0.1232954E+00
         21   -1    0    0  505  501  0.00000000000E+00  0.00000000000E+00  0.21343441579E+03  0.21343441579E+03  0.00000000000E+00 0.  1.
         21   -1    0    0  506  502 -0.00000000000E+00 -0.00000000000E+00 -0.10147604424E+04  0.10147604424E+04  0.00000000000E+00 0. -1.
         21    1    1    2  503  501 -0.15533023311E+02 -0.28358338706E+02 -0.18551254354E+02  0.37277596831E+02  0.00000000000E+00 0.  1.
         21    1    1    2  504  503  0.43810578931E+02 -0.74867118230E+02 -0.14367308205E+03  0.16782850391E+03  0.00000000000E+00 0.  1.
         21    1    1    2  505  502  0.61790994157E+02 -0.14908411537E+02  0.17986068854E+03  0.19076229967E+03  0.00000000000E+00 0.  1.
         21    1    1    2  506  504 -0.90068549777E+02  0.11813386847E+03 -0.81896237873E+03  0.83232645778E+03  0.00000000000E+00 0. -1.
<scales pt_clust_3="32.33373" pt_clust_4="126.36344" pt_clust_5="62.66710" pt_clust_6="14000.00000"></scales>
<clustering>
<clus scale="   32.334">  1  3  2 -1</clus>
<clus scale="   62.667">  1  5  2 -1</clus>
<clus scale="  126.363">  1  4  2 -1</clus>
<clus scale="   32.334">  1  3  2 -1</clus>
</clustering>
</event>
<event>
 6    0  0.9315069E+002  0.1526572E+03  0.7546771E-02  0.1197245E+00
         21   -1    0    0  503  501  0.00000000000E+00  0.00000000000E+00  0.10694099152E+04  0.10694099152E+04  0.00000000000E+00 0. -1.
         21   -1    0    0  501  502 -0.00000000000E+00 -0.00000000000E+00 -0.31902631889E+02  0.31902631889E+02  0.00000000000E+00 0.  1.
         21    1    1    2  503  504 -0.35445427007E+02 -0.66379309268E+02  0.35977030866E+03  0.36755579983E+03  0.00000000000E+00 0. -1.
         21    1    1    2  504  505  0.24715040166E+02 -0.90383849109E+02  0.33661826770E+03  0.34941655877E+03  0.00000000000E+00 0. -1.
         21    1    1    2  505  506  0.41392484599E+02  0.10941328205E+03  0.26432393714E+03  0.28905319201E+03  0.00000000000E+00 0.  1.
         21    1    1    2  506  502 -0.30662097757E+02  0.47349876331E+02  0.76794769803E+02  0.95286996471E+02  0.00000000000E+00 0.  1.
<scales pt_clust_3="63.06337" pt_clust_4="63.06337" pt_clust_5="137.48359" pt_clust_6="56.41077"></scales>
<clustering>
<clus scale="   56.411">  2  6  1 -1</clus>
<clus scale="   63.063">  3  4 -1 -1</clus>
<clus scale="  137.484">  2  5  1 -1</clus>
<clus scale="  152.657">  1  3  2 -1</clus>
</clustering>
</event>
<event>
 6    0  0.9315069E+002  0.9473252E+02  0.7546771E-02  0.1291780E+00
         21   -1    0    0  505  501  0.00000000000E+00  0.00000000000E+00  0.22841214376E+02  0.22841214376E+02  0.00000000000E+00 0. -1.
         21   -1    0    0  504  502 -0.00000000000E+00 -0.00000000000E+00 -0.17147084090E+04  0.17147084090E+04  0.00000000000E+00 0. -1.
         21    1    1    2  503  501  0.18079577826E+02 -0.26448423180E+02 -0.11512085536E+02  0.34042889661E+02  0.00000000000E+00 0. -1.
         21    1    1    2  504  503  0.73308822032E+02  0.60326342283E+02 -0.33432907732E+03  0.34754766997E+03  0.00000000000E+00 0. -1.
         21    1    1    2  505  506  0.84688359684E+01 -0.33911998336E+02 -0.99898026485E+02  0.10583648005E+03  0.00000000000E+00 0. -1.
         21    1    1    2  506  502 -0.99857235826E+02  0.34079233035E-01 -0.12461280052E+04  0.12501225837E+04  0.00000000000E+00 0. -1.
<scales pt_clust_3="32.03733" pt_clust_4="14000.00000" pt_clust_5="42.75449" pt_clust_6="94.73252"></scales>
<clustering>
<clus scale="   32.037">  1  3  2 -1</clus>
<clus scale="   42.754">  1  5  2 -1</clus>
<clus scale="   94.733">  2  6  1 -1</clus>
<clus scale="   32.037">  1  3  2 -1</clus>
</clustering>
</event>
<event>
 6    0  0.9315069E+002  0.5598931E+02  0.7546771E-02  0.1415477E+00
         21   -1    0    0  505  501  0.00000000000E+00  0.00000000000E+00  0.24326289847E+03  0.24326289847E+03  0.00000000000E+00 0. -1.
         21   -1    0    0  503  502 -0.00000000000E+00 -0.00000000000E+00 -0.38575807065E+03  0.38575807065E+03  0.00000000000E+00 0. -1.
         21    1    1    2  503  504 -0.22230694173E+02 -0.67145951178E+02 -0.55369595370E+02  0.89825244862E+02  0.00000000000E+00 0. -1.
         21    1    1    2  504  501 -0.12386459202E+02 -0.52838145934E+02  0.18537028776E+03  0.19315133347E+03  0.00000000000E+00 0. -1.
         21    1    1    2  505  506  0.53356841343E+02  0.70218167471E+02 -0.23270413885E+02  0.91208857703E+02  0.00000000000E+00 0.  1.
         21    1    1    2  506  502 -0.18739687969E+02  0.49765929641E+02 -0.24922545068E+03  0.25483553309E+03  0.00000000000E+00 0. -1.
<scales pt_clust_3="51.57884" pt_clust_4="14000.00000" pt_clust_5="55.98931" pt_clust_6="53.17729"></scales>
<clustering>
<clus scale="   53.177">  2  6  1 -1</clus>
<clus scale="   51.579">  2  3  1 -1</clus>
<clus scale="   55.989">  2  5  1 -1</clus>
<clus scale="   55.989">  1  3  2 -1</clus>
</clustering>
</event>
<event>
 6    0  0.9315069E+002  0.1241522E+03  0.7546771E-02  0.1236400E+00
         21   -1    0    0  504  501  0.00000000000E+00  0.00000000000E+00  0.42911647790E+03  0.42911647790E+03  0.00000000000E+00 0.  1.
         21   -1    0    0  503  502 -0.00000000000E+00 -0.00000000000E+00 -0.67569397623E+02  0.67569397623E+02  0.00000000000E+00 0. -1.
         21    1    1    2  503  506 -0.66710148034E+02  0.39664295715E+02  0.72189008214E+02  0.10599411829E+03  0.00000000000E+00 0. -1.
         21    1    1    2  504  505  0.74623221771E+02  0.15599733641E+02  0.20292188755E+03  0.21677008411E+03  0.00000000000E+00 0.  1.
         21    1    1    2  505  502  0.53865723464E+02  0.10468693169E+02  0.56784435116E+02  0.78965699974E+02  0.00000000000E+00 0.  1.
         21    1    1    2  506  501 -0.61778797201E+02 -0.65732722525E+02  0.29651749395E+02  0.94955973147E+02  0.00000000000E+00 0. -1.
<scales pt_clust_3="77.61121" pt_clust_4="45.07957" pt_clust_5="45.07957" pt_clust_6="112.20727"></scales>
<clustering>
<clus scale="   45.080">  4  5 -1 -1</clus>
<clus scale="   77.611">  2  3  1 -1</clus>
<clus scale="  112.207">  2  6  1 -1</clus>
<clus scale="  124.152">  1  3  2 -1</clus>
</clustering>
</event>
<event>
 6    0  0.9315069E+002  0.1029729E+03  0.7546771E-02  0.1274166E+00
         21   -1    0    0  503  501  0.00000000000E+00  0.00000000000E+00  0.15693330922E+03  0.15693330922E+03  0.00000000000E+00 0. -1.
         21   -1    0    0  504  502 -0.00000000000E+00 -0.00000000000E+00 -0.28131555903E+03  0.28131555903E+03  0.00000000000E+00 0. -1.
         21    1    1    2  503  506 -0.53417174700E+02 -0.74262865847E+02 -0.71247073830E+02  0.11595047790E+03  0.00000000000E+00 0. -1.
         21    1    1    2  504  501  0.21978644143E+02  0.79500733732E+02  0.99701531741E+02  0.12939792461E+03  0.00000000000E+00 0. -1.
         21    1    1    2  505  502  0.30757398081E+02  0.51836685861E+02 -0.71174701038E+02  0.93267880889E+02  0.00000000000E+00 0. -1.
         21    1    1    2  506  505  0.68113247536E+00 -0.57074553746E+02 -0.81662006681E+02  0.99632584840E+02  0.00000000000E+00 0. -1.
<scales pt_clust_3="43.72597" pt_clust_4="86.82829" pt_clust_5="60.27487" pt_clust_6="43.72597"></scales>
<clustering>
<clus scale="   43.726">  3  6 -1 -1</clus>
<clus scale="   60.275">  2  5  1 -1</clus>
<clus scale="   86.828">  1  4  2 -1</clus>
<clus scale="   86.828">  1  3  2 -1</clus>
</clustering>
</event>
<event>
 6    0  0.9315069E+002  0.2005958E+03  0.7546771E-02  0.1149237E+00
         21   -1    0    0  505  501  0.00000000000E+00  0.00000000000E+00  0.23653279792E+03  0.23653279792E+03  0.00000000000E+00 0.  1.
         21   -1    0    0  504  502 -0.00000000000E+00 -0.00000000000E+00 -0.36814937492E+03  0.36814937492E+03  0.00000000000E+00 0. -1.
         21    1    1    2  503  502  0.37906806691E+02 -0.19462626597E+02 -0.11088864790E+03  0.11879399000E+03  0.00000000000E+00 0. -1.
         21    1    1    2  504  501 -0.46464100437E+02  0.20562024135E+03 -0.14304803597E+03  0.25475740790E+03  0.00000000000E+00 0. -1.
         21    1    1    2  505  506 -0.47673528173E+00 -0.11440437071E+03  0.10815677142E+03  0.15743720818E+03  0.00000000000E+00 0.  1.
         21    1    1    2  506  503  0.90340290273E+01 -0.71753244042E+02  0.14163335451E+02  0.73693566762E+02  0.00000000000E+00 0.  1.
<scales pt_clust_3="42.61126" pt_clust_4="191.06890" pt_clust_5="49.12959" pt_clust_6="49.12959"></scales>
<clustering>
<clus scale="   42.611">  2  3  1 -1</clus>
<clus scale="   49.130">  5  6 -1 -1</clus>
<clus scale="  191.069">  2  4  1 -1</clus>
<clus scale="  200.596">  1  3  2 -1</clus>
</clustering>
</event>
<event>
 6    0  0.9315069E+002  0.9767836E+02  0.7546771E-02  0.1285255E+00
         21   -1    0    0  505  501  0.00000000000E+00  0.00000000000E+00  0.36267743805E+03  0.36267743805E+03  0.00000000000E+00 0.  1.
         21   -1    0    0  501  502 -0.00000000000E+00 -0.00000000000E+00 -0.42669692032E+03  0.42669692032E+03  0.00000000000E+00 0.  1.
         21    1    1    2  503  504 -0.29195626340E+02  0.54108336413E+02 -0.56380073605E+02  0.83419478340E+02  0.00000000000E+00 0. -1.
         21    1    1    2  504  502  0.16250301236E+02  0.31838902147E+02 -0.14789562630E+03  0.15215421210E+03  0.00000000000E+00 0. -1.
         21    1    1    2  505  506  0.92290279953E+02 -0.36327413854E+02  0.32873307902E+03  0.34336950070E+03  0.00000000000E+00 0.  1.
         21    1    1    2  506  503 -0.79344954848E+02 -0.49619824706E+02 -0.18847686139E+03  0.21043116723E+03  0.00000000000E+00 0.  1.
<scales pt_clust_3="67.02549" pt_clust_4="35.74616" pt_clust_5="14000.00000" pt_clust_6="97.67836"></scales>
<clustering>
<clus scale="   35.746">  2  4  1 -1</clus>
<clus scale="   67.025">  2  3  1 -1</clus>
<clus scale="   97.678">  2  6  1 -1</clus>
<clus scale="   97.678">  1  3  2 -1</clus>
</clustering>
</event>
<event>
 6    0  0.9315069E+002  0.1786523E+03  0.7546771E-02  0.1169114E+00
         21   -1    0    0  505  501  0.00000000000E+00  0.00000000000E+00  0.33526317565E+03  0.33526317565E+03  0.00000000000E+00 0.  1.
         21   -1    0    0  504  502 -0.00000000000E+00 -0.00000000000E+00 -0.23792341753E+03  0.23792341753E+03  0.00000000000E+00 0.  1.
         21    1    1    2  503  506  0.10853865293E+03 -0.33746461405E+02 -0.68062610094E+02  0.13248389234E+03  0.00000000000E+00 0.  1.
         21    1    1    2  504  503  0.88789258218E+02  0.17738214948E+02 -0.59552388743E+02  0.10837279940E+03  0.00000000000E+00 0.  1.
         21    1    1    2  505  502 -0.31600935236E+02  0.44401252801E+02  0.39595675438E+01  0.54642186388E+02  0.00000000000E+00 0.  1.
         21    1    1    2  506  501 -0.16572697591E+03 -0.28393006344E+02  0.22099518941E+03  0.27768771506E+03  0.00000000000E+00 0.  1.
<scales pt_clust_3="44.90886" pt_clust_4="44.90886" pt_clust_5="54.49854" pt_clust_6="171.42013"></scales>
<clustering>
<clus scale="   44.909">  3  4 -1 -1</clus>
<clus scale="   54.499">  2  5  1 -1</clus>
<clus scale="  171.420">  1  6  2 -1</clus>
<clus scale="  171.420">  1  3  2 -1</clus>
</clustering>
</event>
<event>
 6    0  0.9315069E+002  0.8979190E+02  0.7546771E-02  0.1303356E+00
         21   -1    0    0  506  501  0.00000000000E+00  0.00000000000E+00  0.21309251011E+03  0.21309251011E+03  0.00000000000E+00 0.  1.
         21   -1    0    0  501  502 -0.00000000000E+00 -0.00000000000E+00 -0.40386085180E+03  0.40386085180E+03  0.00000000000E+00 0.  1.
         21    1    1    2  503  505  0.54899754654E+02 -0.75485229185E+02 -0.21561951082E+03  0.23495483892E+03  0.00000000000E+00 0.  1.
         21    1    1    2  504  503 -0.10143346758E+03  0.23391972867E+02  0.71674798916E+01  0.10434225178E+03  0.00000000000E+00 0.  1.
         21    1    1    2  505  502  0.36102269575E+02  0.80331245137E+02 -0.11316052235E+03  0.14339381658E+03  0.00000000000E+00 0.  1.
         21    1    1    2  506  504  0.10431443346E+02 -0.28237988818E+02  0.13084421158E+03  0.13426245464E+03  0.00000000000E+00 0.  1.
<scales pt_clust_3="89.79190" pt_clust_4="14000.00000" pt_clust_5="84.13236" pt_clust_6="30.10314"></scales>
<clustering>
<clus scale="   30.103">  1  6  2 -1</clus>
<clus scale="   84.132">  2  5  1 -1</clus>
<clus scale="   89.792">  2  3  1 -1</clus>
<clus scale="   30.103">  1  3  2 -1</clus>
</clustering>
</event>
<event>
 6    0  0.9315069E+002  0.9806091E+02  0.7546771E-02  0.1284427E+00
         21   -1    0    0  506  501  0.00000000000E+00  0.00000000000E+00  0.27603227145E+04  0.27603227145E+04  0.00000000000E+00 0.  1.
         21   -1    0    0  505  502 -0.00000000000E+00 -0.00000000000E+00 -0.23537731963E+04  0.23537731963E+04  0.00000000000E+00 0. -1.
         21    1    1    2  503  504 -0.22314601985E+02  0.80550005706E+02  0.13625472085E+03  0.15984865916E+03  0.00000000000E+00 0.  1.
         21    1    1    2  504  501  0.82191981855E+02 -0.51092694463E+02  0.25508761872E+04  0.25527113640E+04  0.00000000000E+00 0.  1.
         21    1    1    2  505  503 -0.47133903229E+02  0.59512768825E+01 -0.23349394027E+04  0.23354226677E+04  0.00000000000E+00 0. -1.
         21    1    1    2  506  502 -0.12743476642E+02 -0.35408588125E+02  0.54358012791E+02  0.66113220043E+02  0.00000000000E+00 0. -1.
<scales pt_clust_3="14000.00000" pt_clust_4="98.06091" pt_clust_5="47.50887" pt_clust_6="37.63196"></scales>
<clustering>
<clus scale="   37.632">  1  6  2 -1</clus>
<clus scale="   47.509">  2  5  1 -1</clus>
<clus scale="   98.061">  1  4  2 -1</clus>
<clus scale="   37.632">  1  3  2 -1</clus>
</clustering>
</event>
<event>
 6    0  0.9315069E+002  0.1602347E+03  0.7546771E-02  0.1188432E+00
         21   -1    0    0  503  501  0.00000000000E+00  0.00000000000E+00  0.85310173193E+03  0.85310173193E+03  0.00000000000E+00 0. -1.
         21   -1    0    0  506  502 -0.00000000000E+00 -0.00000000000E+00 -0.74369963392E+03  0.74369963392E+03  0.00000000000E+00 0. -1.
         21    1    1    2  503  505 -0.82368350548E+02 -0.89811219658E+02  0.77696208723E+03  0.78646086066E+03  0.00000000000E+00 0. -1.
         21    1    1    2  504  502  0.74974389411E+01  0.40341218431E+02 -0.27279638374E+03  0.27586498958E+03  0.00000000000E+00 0. -1.
         21    1    1    2  505  504  0.11464187871E+03  0.65969439359E+02 -0.44735926337E+03  0.46650298799E+03  0.00000000000E+00 0. -1.
         21    1    1    2  506  501 -0.39770967107E+02 -0.16499438132E+02  0.52595657879E+02  0.67972527620E+02  0.00000000000E+00 0.  1.
<scales pt_clust_3="14000.00000" pt_clust_4="41.03201" pt_clust_5="160.23469" pt_clust_6="42.69471"></scales>
<clustering>
<clus scale="   41.032">  2  4  1 -1</clus>
<clus scale="   42.695">  1  6  2 -1</clus>
<clus scale="  160.235">  2  5  1 -1</clus>
<clus scale="   42.695">  1  3  2 -1</clus>
</clustering>
</event>
<event>
 6    0  0.9315069E+002  0.2314955E+03  0.7546771E-02  0.1125592E+00
         21   -1    0    0  504  501  0.00000000000E+00  0.00000000000E+00  0.16512640412E+04  0.16512640412E+04  0.00000000000E+00 0. -1.
         21   -1    0    0  506  502 -0.00000000000E+00 -0.00000000000E+00 -0.36565441136E+02  0.36565441136E+02  0.00000000000E+00 0. -1.
         21    1    1    2  503  502 -0.10833607563E+00  0.34353551611E+02  0.10775765098E+03  0.11310123602E+03  0.00000000000E+00 0.  1.
         21    1    1    2  504  505 -0.43515397162E+02 -0.40714309686E+02  0.33130875634E+03  0.33662551423E+03  0.00000000000E+00 0. -1.
         21    1    1    2  505  503 -0.16960858030E+03 -0.18815544075E+02  0.59730126222E+03  0.62120036466E+03  0.00000000000E+00 0. -1.
         21    1    1    2  506  501  0.21323231354E+03  0.25176302151E+02  0.57833093051E+03  0.61690236741E+03  0.00000000000E+00 0. -1.
<scales pt_clust_3="34.35372" pt_clust_4="45.74711" pt_clust_5="45.74711" pt_clust_6="217.81172"></scales>
<clustering>
<clus scale="   34.354">  2  3  1 -1</clus>
<clus scale="   45.747">  4  5 -1 -1</clus>
<clus scale="  217.812">  2  6  1 -1</clus>
<clus scale="  231.495">  1  3  2 -1</clus>
</clustering>
</event>
<event>
 6    0  0.9315069E+002  0.8198373E+02  0.7546771E-02  0.1323514E+00
         21   -1    0    0  503  501  0.00000000000E+00  0.00000000000E+00  0.11169244482E+03  0.11169244482E+03  0.00000000000E+00 0. -1.
         21   -1    0    0  505  502 -0.00000000000E+00 -0.00000000000E+00 -0.23151866534E+04  0.23151866534E+04  0.00000000000E+00 0.  1.
         21    1    1    2  503  504 -0.63175437591E+02 -0.46648400833E+02  0.70970681045E+02  0.10584916997E+03  0.00000000000E+00 0. -1.
         21    1    1    2  504  506  0.12194297506E+02 -0.63733934795E+02 -0.22399410643E+03  0.23320393447E+03  0.00000000000E+00 0. -1.
         21    1    1    2  505  501  0.83199000634E+02  0.12054771334E+03 -0.27112902850E+03  0.30816355234E+03  0.00000000000E+00 0. -1.
         21    1    1    2  506  502 -0.32217860548E+02 -0.10165377711E+02 -0.17793417547E+04  0.17796624414E+04  0.00000000000E+00 0.  1.
<scales pt_clust_3="14000.00000" pt_clust_4="68.08967" pt_clust_5="81.98373" pt_clust_6="33.78351"></scales>
<clustering>
<clus scale="   33.784">  2  6  1 -1</clus>
<clus scale="   68.090">  2  4  1 -1</clus>
<clus scale="   81.984">  2  5  1 -1</clus>
<clus scale="   81.984">  1  3  2 -1</clus>
</clustering>
</event>
<event>
 6    0  0.9315069E+002  0.7667407E+02  0.7546771E-02  0.1338764E+00
         21   -1    0    0  505  501  0.00000000000E+00  0.00000000000E+00  0.37676256522E+03  0.37676256522E+03  0.00000000000E+00 0. -1.
         21   -1    0    0  503  502 -0.00000000000E+00 -0.00000000000E+00 -0.14823781145E+04  0.14823781145E+04  0.00000000000E+00 0. -1.
         21    1    1    2  503  504  0.15908810115E+02 -0.53185193304E+02  0.35662503239E+02  0.65981582001E+02  0.00000000000E+00 0.  1.
         21    1    1    2  504  501 -0.15993870961E+02 -0.73290768965E+02  0.25090681597E+03  0.26188083364E+03  0.00000000000E+00 0. -1.
         21    1    1    2  505  506  0.11549445208E+02  0.83927917144E+02  0.43282324874E+02  0.95134875872E+02  0.00000000000E+00 0. -1.
         21    1    1    2  506  502 -0.11464384362E+02  0.42548045125E+02 -0.14354671934E+04  0.14361433882E+04  0.00000000000E+00 0. -1.
<scales pt_clust_3="41.17744" pt_clust_4="14000.00000" pt_clust_5="76.67407" pt_clust_6="44.06550"></scales>
<clustering>
<clus scale="   44.065">  2  6  1 -1</clus>
<clus scale="   41.177">  2  3  1 -1</clus>
<clus scale="   76.674">  2  5  1 -1</clus>
<clus scale="   76.674">  1  3  2 -1</clus>
</clustering>
</event>
<event>
 6    0  0.9315069E+002  0.1071324E+03  0.7546771E-02  0.1265974E+00
         21   -1    0    0  506  501  0.00000000000E+00  0.00000000000E+00  0.10326342047E+04  0.10326342047E+04  0.00000000000E+00 0.  1.
         21   -1    0    0  504  502 -0.00000000000E+00 -0.00000000000E+00 -0.50275650089E+02  0.50275650089E+02  0.00000000000E+00 0.  1.
         21    1    1    2  503  501  0.64095845800E+02  0.27305684203E+02  0.15481848104E+03  0.16977231786E+03  0.00000000000E+00 0.  1.
         21    1    1    2  504  503 -0.10183063808E+03 -0.94816416195E+02  0.90706730746E+02  0.16609437870E+03  0.00000000000E+00 0.  1.
         21    1    1    2  505  502 -0.26002514664E+01  0.79646666329E+02  0.42862497709E+03  0.43596986564E+03  0.00000000000E+00 0.  1.
         21    1    1    2  506  505  0.40335043745E+02 -0.12135934336E+02  0.30820836576E+03  0.31107329262E+03  0.00000000000E+00 0.  1.
<scales pt_clust_3="14000.00000" pt_clust_4="107.13244" pt_clust_5="75.52045" pt_clust_6="42.12121"></scales>
<clustering>
<clus scale="   42.121">  1  6  2 -1</clus>
<clus scale="   75.520">  1  5  2 -1</clus>
<clus scale="  107.132">  2  4  1 -1</clus>
<clus scale="   42.121">  1  3  2 -1</clus>
</clustering>
</event>
<event>
 6    0  0.9315069E+002  0.1420830E+03  0.7546771E-02  0.1210553E+00
         21   -1    0    0  503  501  0.00000000000E+00  0.00000000000E+00  0.34366599714E+03  0.34366599714E+03  0.00000000000E+00 0.  1.
         21   -1    0    0  506  502 -0.00000000000E+00 -0.00000000000E+00 -0.24231439431E+04  0.24231439431E+04  0.00000000000E+00 0. -1.
         21    1    1    2  503  504  0.89786499332E+02 -0.80649296624E+02  0.30045725908E+03  0.32379081062E+03  0.00000000000E+00 0.  1.
         21    1    1    2  504  502 -0.64029917078E+02  0.16690347206E+03 -0.22665232196E+04  0.22735619861E+04  0.00000000000E+00 0. -1.
         21    1    1    2  505  501 -0.31329653815E+02 -0.48684681961E+02 -0.93035218944E+01  0.58637027427E+02  0.00000000000E+00 0. -1.
         21    1    1    2  506  505  0.55730715613E+01 -0.37569493476E+02 -0.10410846345E+03  0.11082011608E+03  0.00000000000E+00 0. -1.
<scales pt_clust_3="142.08303" pt_clust_4="14000.00000" pt_clust_5="58.31463" pt_clust_6="37.98060"></scales>
<clustering>
<clus scale="   37.981">  2  6  1 -1</clus>
<clus scale="   58.315">  1  5  2 -1</clus>
<clus scale="  142.083">  1  3  2 -1</clus>
<clus scale="   58.315">  1  3  2 -1</clus>
</clustering>
</event>
<event>
 6    0  0.9315069E+002  0.1131910E+03  0.7546771E-02  0.1254772E+00
         21   -1    0    0  503  501  0.00000000000E+00  0.00000000000E+00  0.88110267699E+02  0.88110267699E+02  0.00000000000E+00 0.  1.
         21   -1    0    0  505  502 -0.00000000000E+00 -0.00000000000E+00 -0.76331302937E+03  0.76331302937E+03  0.00000000000E+00 0.  1.
         21    1    1    2  503  506  0.60768785316E+02  0.18040535905E+02  0.20758576769E+02  0.66702509053E+02  0.00000000000E+00 0.  1.
         21    1    1    2  504  502 -0.63198248794E+02  0.50172222373E+02 -0.34299585839E+02  0.87679713373E+02  0.00000000000E+00 0.  1.
         21    1    1    2  505  501  0.45139660407E+00 -0.10317293367E+03 -0.65282436123E+03  0.66092700400E+03  0.00000000000E+00 0.  1.
         21    1    1    2  506  504  0.19780668738E+01  0.34960175392E+02 -0.88373913683E+01  0.36114070640E+02  0.00000000000E+00 0.  1.
<scales pt_clust_3="63.39011" pt_clust_4="32.73019" pt_clust_5="101.70313" pt_clust_6="32.73019"></scales>
<clustering>
<clus scale="   32.730">  4  6 -1 -1</clus>
<clus scale="   63.390">  1  3  2 -1</clus>
<clus scale="  101.703">  2  5  1 -1</clus>
<clus scale="   63.390">  1  3  2 -1</clus>
</clustering>
</event>
<event>
 6    0  0.9315069E+002  0.1068181E+03  0.7546771E-02  0.1266578E+00
         21   -1    0    0  506  501  0.00000000000E+00  0.00000000000E+00  0.96384859033E+03  0.96384859033E+03  0.00000000000E+00 0. -1.
         21   -1    0    0  504  502 -0.00000000000E+00 -0.00000000000E+00 -0.28262814497E+03  0.28262814497E+03  0.00000000000E+00 0.  1.
         21    1    1    2  503  501 -0.13001756967E+02  0.27396406897E+02  0.84748190770E+03  0.84802428778E+03  0.00000000000E+00 0. -1.
         21    1    1    2  504  505 -0.11423685587E+03  0.30548465542E+00 -0.20791529928E+03  0.23723179432E+03  0.00000000000E+00 0.  1.
         21    1    1    2  505  503  0.67583764095E+02 -0.49157208067E+02  0.49831743383E+02  0.97299531976E+02  0.00000000000E+00 0.  1.
         21    1    1    2  506  502  0.59654848738E+02  0.21455316515E+02 -0.81779064309E+01  0.63921121222E+02  0.00000000000E+00 0.  1.
<scales pt_clust_3="30.32505" pt_clust_4="106.81806" pt_clust_5="14000.00000" pt_clust_6="63.10192"></scales>
<clustering>
<clus scale="   30.325">  1  3  2 -1</clus>
<clus scale="   63.102">  1  6  2 -1</clus>
<clus scale="  106.818">  2  4  1 -1</clus>
<clus scale="   30.325">  1  3  2 -1</clus>
</clustering>
</event>
<event>
 6    0  0.9315069E+002  0.7579251E+02  0.7546771E-02  0.1341434E+00
         21   -1    0    0  504  501  0.00000000000E+00  0.00000000000E+00  0.27093995762E+02  0.27093995762E+02  0.00000000000E+00 0.  1.
         21   -1    0    0  505  502 -0.00000000000E+00 -0.00000000000E+00 -0.14518168202E+04  0.14518168202E+04  0.00000000000E+00 0.  1.
         21    1    1    2  503  506 -0.75794570694E+02  0.54505912120E+02 -0.58643832478E+03  0.59382288620E+03  0.00000000000E+00 0.  1.
         21    1    1    2  504  503  0.64192534004E+02  0.23049445658E+02 -0.23977528547E+03  0.24928727583E+03  0.00000000000E+00 0.  1.
         21    1    1    2  505  501  0.43437485243E+02 -0.64293787726E+01 -0.13954427350E+02  0.46074701066E+02  0.00000000000E+00 0.  1.
         21    1    1    2  506  502 -0.31835448553E+02 -0.71125979005E+02 -0.58455478685E+03  0.58972595289E+03  0.00000000000E+00 0.  1.
<scales pt_clust_3="74.05101" pt_clust_4="14000.00000" pt_clust_5="43.91073" pt_clust_6="75.79251"></scales>
<clustering>
<clus scale="   43.911">  1  5  2 -1</clus>
<clus scale="   75.793">  2  6  1 -1</clus>
<clus scale="   74.051">  2  3  1 -1</clus>
<clus scale="   43.911">  1  3  2 -1</clus>
</clustering>
</event>
<event>
 6    0  0.9315069E+002  0.8238964E+02  0.7546771E-02  0.1322404E+00
         21   -1    0    0  506  501  0.00000000000E+00  0.00000000000E+00  0.44299941917E+02  0.44299941917E+02  0.00000000000E+00 0.  1.
         21   -1    0    0  505  502 -0.00000000000E+00 -0.00000000000E+00 -0.99568163679E+03  0.99568163679E+03  0.00000000000E+00 0.  1.
         21    1    1    2  503  504 -0.97051246918E+02  0.26945217965E+02 -0.27006410007E+03  0.28823533345E+03  0.00000000000E+00 0.  1.
         21    1    1    2  504  501  0.58758925894E+01 -0.33439098129E+02  0.20405675656E+02  0.39611753261E+02  0.00000000000E+00 0.  1.
         21    1    1    2  505  503  0.61447095706E+02  0.42370000792E+02 -0.44557738586E+03  0.45178553466E+03  0.00000000000E+00 0.  1.
         21    1    1    2  506  502  0.29728258622E+02 -0.35876120628E+02 -0.25614588459E+03  0.26034895733E+03  0.00000000000E+00 0.  1.
<scales pt_clust_3="82.38964" pt_clust_4="33.95143" pt_clust_5="14000.00000" pt_clust_6="50.99008"></scales>
<clustering>
<clus scale="   33.951">  1  4  2 -1</clus>
<clus scale="   50.990">  2  6  1 -1</clus>
<clus scale="   82.390">  1  3  2 -1</clus>
<clus scale="   33.951">  1  3  2 -1</clus>
</clustering>
</event>
<event>
 6    0  0.9315069E+002  0.1284511E+03  0.7546771E-02  0.1229772E+00
         21   -1    0    0  505  501  0.00000000000E+00  0.00000000000E+00  0.54765867042E+02  0.54765867042E+02  0.00000000000E+00 0. -1.
         21   -1    0    0  506  502 -0.00000000000E+00 -0.00000000000E+00 -0.83665022621E+03  0.83665022621E+03  0.00000000000E+00 0. -1.
         21    1    1    2  503  501  0.40534731453E+01  0.13130325348E+03 -0.61205545758E+02  0.14492444187E+03  0.00000000000E+00 0. -1.
         21    1    1    2  504  503 -0.79159380180E+01 -0.11327325062E+03 -0.52343980508E+03  0.53561433973E+03  0.00000000000E+00 0. -1.
         21    1    1    2  505  502 -0.29719973113E+02 -0.19463824807E+02 -0.61359921154E+02  0.70902448491E+02  0.00000000000E+00 0.  1.
         21    1    1    2  506  504  0.33582437986E+02  0.14338219513E+01 -0.13587908717E+03  0.13997486316E+03  0.00000000000E+00 0.  1.
<scales pt_clust_3="14000.00000" pt_clust_4="128.45110" pt_clust_5="32.83336" pt_clust_6="33.61303"></scales>
<clustering>
<clus scale="   33.613">  2  6  1 -1</clus>
<clus scale="   32.833">  2  5  1 -1</clus>
<clus scale="  128.451">  2  4  1 -1</clus>
<clus scale="  128.451">  1  3  2 -1</clus>
</clustering>
</event>
<event>
 6    0  0.9315069E+002  0.1632790E+03  0.7546771E-02  0.1185044E+00
         21   -1    0    0  502  501  0.00000000000E+00  0.00000000000E+00  0.24979912731E+03  0.24979912731E+03  0.00000000000E+00 0. -1.
         21   -1    0    0  504  502 -0.00000000000E+00 -0.00000000000E+00 -0.16671913512E+04  0.16671913512E+04  0.00000000000E+00 0. -1.
         21    1    1    2  503  505 -0.65320385213E+01  0.39958451142E+02 -0.23738371180E+02  0.46934588644E+02  0.00000000000E+00 0. -1.
         21    1    1    2  504  506  0.62336261412E+01 -0.57117401516E+02 -0.12954321585E+04  0.12967057233E+04  0.00000000000E+00 0. -1.
         21    1    1    2  505  501  0.86965277989E+02 -0.11139042293E+03  0.19549688377E+03  0.24122565672E+03  0.00000000000E+00 0. -1.
         21    1    1    2  506  503 -0.86666865609E+02  0.12854937331E+03 -0.29371857795E+03  0.33212450980E+03  0.00000000000E+00 0. -1.
<scales pt_clust_3="39.00637" pt_clust_4="57.45655" pt_clust_5="144.34010" pt_clust_6="39.00637"></scales>
<clustering>
<clus scale="   39.006">  3  6 -1 -1</clus>
<clus scale="   57.457">  2  4  1 -1</clus>
<clus scale="  144.340">  1  5  2 -1</clus>
<clus scale="  144.340">  1  3  2 -1</clus>
</clustering>
</event>
<event>
 6    0  0.9315069E+002  0.6142118E+02  0.7546771E-02  0.1391963E+00
         21   -1    0    0  503  501  0.00000000000E+00  0.00000000000E+00  0.58869363267E+02  0.58869363267E+02  0.00000000000E+00 0.  1.
         21   -1    0    0  505  502 -0.00000000000E+00 -0.00000000000E+00 -0.17519902364E+04  0.17519902364E+04  0.00000000000E+00 0.  1.
         21    1    1    2  503  506 -0.20645621781E+02  0.56923168670E+02  0.32583261128E+02  0.68761600737E+02  0.00000000000E+00 0.  1.
         21    1    1    2  504  501  0.20348836614E+02 -0.88263978457E+02 -0.58979855235E+03  0.59671344664E+03  0.00000000000E+00 0.  1.
         21    1    1    2  505  504  0.37396998059E+02  0.61704653810E+02 -0.97030670299E+03  0.97298566157E+03  0.00000000000E+00 0.  1.
         21    1    1    2  506  502 -0.37100212892E+02 -0.30363844023E+02 -0.16559887896E+03  0.17239889075E+03  0.00000000000E+00 0. -1.
<scales pt_clust_3="61.42118" pt_clust_4="14000.00000" pt_clust_5="45.48261" pt_clust_6="47.94151"></scales>
<clustering>
<clus scale="   47.942">  2  6  1 -1</clus>
<clus scale="   45.483">  2  5  1 -1</clus>
<clus scale="   61.421">  1  3  2 -1</clus>
<clus scale="   61.421">  1  3  2 -1</clus>
</clustering>
</event>
<event>
 6    0  0.9315069E+002  0.8637593E+02  0.7546771E-02  0.1311873E+00
         21   -1    0    0  503  501  0.00000000000E+00  0.00000000000E+00  0.12046514894E+04  0.12046514894E+04  0.00000000000E+00 0.  1.
         21   -1    0    0  504  502 -0.00000000000E+00 -0.00000000000E+00 -0.40233102797E+02  0.40233102797E+02  0.00000000000E+00 0.  1.
         21    1    1    2  503  502  0.52218293778E+02 -0.18423976470E+02  0.46642280027E+03  0.46969822411E+03  0.00000000000E+00 0.  1.
         21    1    1    2  504  506  0.64213719691E+02 -0.15454795330E+02  0.12915245166E+01  0.66059976769E+02  0.00000000000E+00 0.  1.
         21    1    1    2  505  501 -0.75084016023E+02 -0.29875812208E+01  0.45433232747E+03  0.46050450475E+03  0.00000000000E+00 0.  1.
         21    1    1    2  506  505 -0.41347997446E+02  0.36866353021E+02  0.24237173438E+03  0.24862188662E+03  0.00000000000E+00 0.  1.
<scales pt_clust_3="55.37322" pt_clust_4="68.56600" pt_clust_5="45.10364" pt_clust_6="45.10364"></scales>
<clustering>
<clus scale="   45.104">  5  6 -1 -1</clus>
<clus scale="   55.373">  1  3  2 -1</clus>
<clus scale="   68.566">  2  4  1 -1</clus>
<clus scale="   55.373">  1  3  2 -1</clus>
</clustering>
</event>
<event>
 6    0  0.9315069E+002  0.1436641E+03  0.7546771E-02  0.1208482E+00
         21   -1    0    0  502  501  0.00000000000E+00  0.00000000000E+00  0.53347464628E+03  0.53347464628E+03  0.00000000000E+00 0. -1.
         21   -1    0    0  506  502 -0.00000000000E+00 -0.00000000000E+00 -0.20809013190E+03  0.20809013190E+03  0.00000000000E+00 0. -1.
         21    1    1    2  503  504  0.55880327085E+02  0.92192462450E+02  0.28047743257E+03  0.30048236432E+03  0.00000000000E+00 0. -1.
         21    1    1    2  504  501 -0.31648924152E+02  0.21256821667E+02  0.69673030468E+02  0.79421899008E+02  0.00000000000E+00 0. -1.
         21    1    1    2  505  503 -0.15607657934E+03 -0.45474363909E+02  0.78888508021E+02  0.18069646673E+03  0.00000000000E+00 0. -1.
         21    1    1    2  506  505  0.13184517641E+03 -0.67974920208E+02 -0.10365445668E+03  0.18096404811E+03  0.00000000000E+00 0. -1.
<scales pt_clust_3="111.56335" pt_clust_4="38.12489" pt_clust_5="14000.00000" pt_clust_6="143.66410"></scales>
<clustering>
<clus scale="   38.125">  1  4  2 -1</clus>
<clus scale="  111.563">  1  3  2 -1</clus>
<clus scale="  143.664">  2  6  1 -1</clus>
<clus scale="   38.125">  1  3  2 -1</clus>
</clustering>
</event>
<event>
 6    0  0.9315069E+002  0.1367704E+03  0.7546771E-02  0.1217742E+00
         21   -1    0    0  505  501  0.00000000000E+00  0.00000000000E+00  0.83397757746E+02  0.83397757746E+02  0.00000000000E+00 0. -1.
         21   -1    0    0  504  502 -0.00000000000E+00 -0.00000000000E+00 -0.20645310084E+04  0.20645310084E+04  0.00000000000E+00 0.  1.
         21    1    1    2  503  502  0.11466122702E+03 -0.16111307131E+03 -0.12465029544E+04  0.12620912146E+04  0.00000000000E+00 0.  1.
         21    1    1    2  504  506 -0.73591479903E+02  0.77967933433E+02 -0.74450832474E+03  0.75218837412E+03  0.00000000000E+00 0.  1.
         21    1    1    2  505  503  0.16853023625E+01  0.33498847485E+02 -0.39343977074E+02  0.51700692054E+02  0.00000000000E+00 0.  1.
         21    1    1    2  506  501 -0.42755049483E+02  0.49646290389E+02  0.49222005604E+02  0.81948485291E+02  0.00000000000E+00 0. -1.
<scales pt_clust_3="14000.00000" pt_clust_4="136.77043" pt_clust_5="33.54121" pt_clust_6="88.35698"></scales>
<clustering>
<clus scale="   33.541">  1  5  2 -1</clus>
<clus scale="   88.357">  1  6  2 -1</clus>
<clus scale="  136.770">  2  4  1 -1</clus>
<clus scale="   33.541">  1  3  2 -1</clus>
</clustering>
</event>
<event>
 6    0  0.9315069E+002  0.1139658E+03  0.7546771E-02  0.1253397E+00
         21   -1    0    0  506  501  0.00000000000E+00  0.00000000000E+00  0.22262183977E+04  0.22262183977E+04  0.00000000000E+00 0. -1.
         21   -1    0    0  503  502 -0.00000000000E+00 -0.00000000000E+00 -0.65682578530E+03  0.65682578530E+03  0.00000000000E+00 0.  1.
         21    1    1    2  503  504 -0.73563538707E+01  0.31412891396E+02 -0.13264842066E+03  0.13651552729E+03  0.00000000000E+00 0.  1.
         21    1    1    2  504  501 -0.90439258140E+02  0.93620115256E+01 -0.17104065322E+03  0.19370547676E+03  0.00000000000E+00 0.  1.
         21    1    1    2  505  502 -0.16316643522E+02 -0.44015978704E+02 -0.33676941200E+03  0.34002540508E+03  0.00000000000E+00 0.  1.
         21    1    1    2  506  505  0.11411225553E+03  0.32410757820E+01  0.22098510983E+04  0.22127977738E+04  0.00000000000E+00 0. -1.
<scales pt_clust_3="32.26276" pt_clust_4="113.96581" pt_clust_5="31.69179" pt_clust_6="14000.00000"></scales>
<clustering>
<clus scale="   32.263">  2  3  1 -1</clus>
<clus scale="   31.692">  2  5  1 -1</clus>
<clus scale="  113.966">  2  4  1 -1</clus>
<clus scale="  113.966">  1  3  2 -1</clus>
</clustering>
</event>
<event>
 6    0  0.9315069E+002  0.1333627E+03  0.7546771E-02  0.1222550E+00
         21   -1    0    0  502  501  0.00000000000E+00  0.00000000000E+00  0.93703833592E+02  0.93703833592E+02  0.00000000000E+00 0.  1.
         21   -1    0    0  504  502 -0.00000000000E+00 -0.00000000000E+00 -0.27770722324E+03  0.27770722324E+03  0.00000000000E+00 0.  1.
         21    1    1    2  503  505 -0.72673586215E+02 -0.38558149614E+02  0.95776148986E+01  0.82824584165E+02  0.00000000000E+00 0.  1.
         21    1    1    2  504  506  0.72053605139E+02  0.14807901988E+02 -0.15799034807E+03  0.17427548898E+03  0.00000000000E+00 0.  1.
         21    1    1    2  505  501 -0.46877248399E+02  0.20322058715E+02  0.55327796211E+01  0.51391381945E+02  0.00000000000E+00 0.  1.
         21    1    1    2  506  503  0.47497229475E+02  0.34281889101E+01 -0.41123436090E+02  0.62919601738E+02  0.00000000000E+00 0.  1.
<scales pt_clust_3="44.30464" pt_clust_4="128.90001" pt_clust_5="44.30464" pt_clust_6="35.89495"></scales>
<clustering>
<clus scale="   35.895">  4  6 -1 -1</clus>
<clus scale="   44.305">  3  5 -1 -1</clus>
<clus scale="  128.900">  2  4  1 -1</clus>
<clus scale="  133.363">  1  3  2 -1</clus>
</clustering>
</event>
<event>
 6    0  0.9315069E+002  0.1048653E+03  0.7546771E-02  0.1270385E+00
         21   -1    0    0  506  501  0.00000000000E+00  0.00000000000E+00  0.48368133316E+03  0.48368133316E+03  0.00000000000E+00 0.  1.
         21   -1    0    0  503  502 -0.00000000000E+00 -0.00000000000E+00 -0.11095481620E+03  0.11095481620E+03  0.00000000000E+00 0.  1.
         21    1    1    2  503  505 -0.71564752330E+02  0.27128954236E+02 -0.34837704001E+01  0.76613514409E+02  0.00000000000E+00 0.  1.
         21    1    1    2  504  502  0.10982542142E+01  0.31760583683E+02 -0.46727845324E+02  0.56510462454E+02  0.00000000000E+00 0.  1.
         21    1    1    2  505  501  0.10341288475E+03 -0.37768491146E+02  0.40265173215E+03  0.41743155254E+03  0.00000000000E+00 0.  1.
         21    1    1    2  506  504 -0.32946386635E+02 -0.21121046773E+02  0.20286400527E+02  0.44080619953E+02  0.00000000000E+00 0.  1.
<scales pt_clust_3="104.86531" pt_clust_4="31.77957" pt_clust_5="14000.00000" pt_clust_6="35.89778"></scales>
<clustering>
<clus scale="   31.780">  2  4  1 -1</clus>
<clus scale="   35.898">  2  6  1 -1</clus>
<clus scale="  104.865">  2  3  1 -1</clus>
<clus scale="  104.865">  1  3  2 -1</clus>
</clustering>
</event>
<event>
 6    0  0.9315069E+002  0.2134420E+03  0.7546771E-02  0.1138869E+00
         21   -1    0    0  506  501  0.00000000000E+00  0.00000000000E+00  0.22290866977E+04  0.22290866977E+04  0.00000000000E+00 0. -1.
         21   -1    0    0  504  502 -0.00000000000E+00 -0.00000000000E+00 -0.49766391882E+02  0.49766391882E+02  0.00000000000E+00 0.  1.
         21    1    1    2  503  502  0.38239676910E+02  0.12913059563E+03  0.14848372728E+04  0.14909321616E+04  0.00000000000E+00 0. -1.
         21    1    1    2  504  501 -0.34820235197E+02 -0.22913440312E+03  0.30192784004E+03  0.38062507020E+03  0.00000000000E+00 0.  1.
         21    1    1    2  505  503 -0.12519667439E+02  0.35188308394E+02  0.84845926202E+02  0.92702698523E+02  0.00000000000E+00 0. -1.
         21    1    1    2  506  505  0.91002257259E+01  0.64815499091E+02  0.30770926669E+03  0.31459315924E+03  0.00000000000E+00 0.  1.
<scales pt_clust_3="213.44202" pt_clust_4="14000.00000" pt_clust_5="31.85173" pt_clust_6="108.58331"></scales>
<clustering>
<clus scale="   31.852">  5  6 -1 -1</clus>
<clus scale="  108.583">  1  5  2 -1</clus>
<clus scale="  213.442">  1  3  2 -1</clus>
<clus scale="  108.583">  1  3  2 -1</clus>
</clustering>
</event>
<event>
 6    0  0.9315069E+002  0.1064220E+03  0.7546771E-02  0.1267343E+00
         21   -1    0    0  506  501  0.00000000000E+00  0.00000000000E+00  0.12837413714E+04  0.12837413714E+04  0.00000000000E+00 0.  1.
         21   -1    0    0  503  502 -0.00000000000E+00 -0.00000000000E+00 -0.11994871317E+03  0.11994871317E+03  0.00000000000E+00 0. -1.
         21    1    1    2  503  501 -0.12294168373E+03  0.45389139172E+02  0.16383913763E+03  0.20980489645E+03  0.00000000000E+00 0.  1.
         21    1    1    2  504  505  0.75723375404E+02  0.21911264926E+02  0.49758151714E+01  0.78986656151E+02  0.00000000000E+00 0. -1.
         21    1    1    2  505  502  0.51592952084E+02 -0.32369654717E+02 -0.44118071979E+02  0.75206592306E+02  0.00000000000E+00 0. -1.
         21    1    1    2  506  504 -0.43746437530E+01 -0.34930749381E+02  0.10390957774E+04  0.10396919396E+04  0.00000000000E+00 0.  1.
<scales pt_clust_3="14000.00000" pt_clust_4="106.42200" pt_clust_5="61.88526" pt_clust_6="35.20362"></scales>
<clustering>
<clus scale="   35.204">  1  6  2 -1</clus>
<clus scale="   61.885">  2  5  1 -1</clus>
<clus scale="  106.422">  2  4  1 -1</clus>
<clus scale="   35.204">  1  3  2 -1</clus>
</clustering>
</event>
<event>
 6    0  0.9315069E+002  0.8570641E+02  0.7546771E-02  0.1313595E+00
         21   -1    0    0  503  501  0.00000000000E+00  0.00000000000E+00  0.33327916025E+03  0.33327916025E+03  0.00000000000E+00 0. -1.
         21   -1    0    0  504  502 -0.00000000000E+00 -0.00000000000E+00 -0.81332530828E+02  0.81332530828E+02  0.00000000000E+00 0.  1.
         21    1    1    2  503  502  0.28860149214E+02  0.73652862836E+02  0.19619702369E+01  0.79129651482E+02  0.00000000000E+00 0.  1.
         21    1    1    2  504  505 -0.28535818540E+02  0.19554586939E+02 -0.44109689952E+01  0.34873076400E+02  0.00000000000E+00 0.  1.
         21    1    1    2  505  506 -0.50245299913E+02 -0.13242163159E+02  0.37399047593E+02  0.64020573329E+02  0.00000000000E+00 0.  1.
         21    1    1    2  506  501  0.49920969239E+02 -0.79965286615E+02  0.21699658059E+03  0.23658838987E+03  0.00000000000E+00 0. -1.
<scales pt_clust_3="85.70641" pt_clust_4="34.59299" pt_clust_5="57.11954" pt_clust_6="14000.00000"></scales>
<clustering>
<clus scale="   34.593">  2  4  1 -1</clus>
<clus scale="   57.120">  2  5  1 -1</clus>
<clus scale="   85.706">  2  3  1 -1</clus>
<clus scale="   85.706">  1  3  2 -1</clus>
</clustering>
</event>
<event>
 6    0  0.9315069E+002  0.2832806E+03  0.7546771E-02  0.1093911E+00
         21   -1    0    0  506  501  0.00000000000E+00  0.00000000000E+00  0.76689196973E+03  0.76689196973E+03  0.00000000000E+00 0. -1.
         21   -1    0    0  504  502 -0.00000000000E+00 -0.00000000000E+00 -0.12861515189E+03  0.12861515189E+03  0.00000000000E+00 0. -1.
         21    1    1    2  503  502 -0.14777203447E+03  0.20164795132E+03  0.13098652375E+03  0.28223383895E+03  0.00000000000E+00 0. -1.
         21    1    1    2  504  505  0.12204977588E+03 -0.10518576341E+03  0.16448897111E+03  0.23025380395E+03  0.00000000000E+00 0. -1.
         21    1    1    2  505  501  0.21594793500E+02 -0.13011313653E+03  0.22890308521E+03  0.26418248583E+03  0.00000000000E+00 0. -1.
         21    1    1    2  506  503  0.41274650943E+01  0.33650948612E+02  0.11389823777E+03  0.11883699289E+03  0.00000000000E+00 0.  1.
<scales pt_clust_3="257.94826" pt_clust_4="102.65374" pt_clust_5="102.65374" pt_clust_6="33.90313"></scales>
<clustering>
<clus scale="   33.903">  1  6  2 -1</clus>
<clus scale="  102.654">  4  5 -1 -1</clus>
<clus scale="  257.948">  2  3  1 -1</clus>
<clus scale="   33.903">  1  3  2 -1</clus>
</clustering>
</event>
<event>
 6    0  0.9315069E+002  0.1359134E+03  0.7546771E-02  0.1218936E+00
         21   -1    0    0  506  501  0.00000000000E+00  0.00000000000E+00  0.42842239456E+03  0.42842239456E+03  0.00000000000E+00 0. -1.
         21   -1    0    0  503  502 -0.00000000000E+00 -0.00000000000E+00 -0.84057404817E+03  0.84057404817E+03  0.00000000000E+00 0. -1.
         21    1    1    2  503  501  0.42713023318E+02 -0.99291849327E+02  0.18131767586E+03  0.21109091237E+03  0.00000000000E+00 0. -1.
         21    1    1    2  504  505 -0.32861749214E+01  0.87113915180E+02  0.72885208036E+02  0.11363048321E+03  0.00000000000E+00 0. -1.
         21    1    1    2  505  502 -0.12142438543E+01 -0.67348563707E+02 -0.78972983701E+03  0.79259732455E+03  0.00000000000E+00 0. -1.
         21    1    1    2  506  504 -0.38212604543E+02  0.79526497853E+02  0.12337529950E+03  0.15167772260E+03  0.00000000000E+00 0. -1.
<scales pt_clust_3="126.85963" pt_clust_4="48.48337" pt_clust_5="67.35951" pt_clust_6="48.48337"></scales>
<clustering>
<clus scale="   48.483">  4  6 -1 -1</clus>
<clus scale="   67.360">  2  5  1 -1</clus>
<clus scale="  126.860">  1  3  2 -1</clus>
<clus scale="  126.860">  1  3  2 -1</clus>
</clustering>
</event>
<event>
 6    0  0.9315069E+002  0.1088250E+03  0.7546771E-02  0.1262761E+00
         21   -1    0    0  504  501  0.00000000000E+00  0.00000000000E+00  0.38836426764E+03  0.38836426764E+03  0.00000000000E+00 0. -1.
         21   -1    0    0  505  502 -0.00000000000E+00 -0.00000000000E+00 -0.75109706704E+03  0.75109706704E+03  0.00000000000E+00 0. -1.
         21    1    1    2  503  506 -0.11197073316E+02  0.13244270482E+03  0.21401176782E+03  0.25192753179E+03  0.00000000000E+00 0. -1.
         21    1    1    2  504  502 -0.12547940056E+02 -0.72137521434E+02  0.11681198508E+03  0.13786338403E+03  0.00000000000E+00 0. -1.
         21    1    1    2  505  503  0.22115316127E+02 -0.10612817241E+03 -0.69538261721E+03  0.70378211153E+03  0.00000000000E+00 0. -1.
         21    1    1    2  506  501  0.16296972445E+01  0.45822989027E+02  0.18260649148E+01  0.45888307329E+02  0.00000000000E+00 0. -1.
<scales pt_clust_3="14000.00000" pt_clust_4="57.39357" pt_clust_5="108.82502" pt_clust_6="45.85196"></scales>
<clustering>
<clus scale="   45.852">  1  6  2 -1</clus>
<clus scale="   57.394">  1  4  2 -1</clus>
<clus scale="  108.825">  2  5  1 -1</clus>
<clus scale="   45.852">  1  3  2 -1</clus>
</clustering>
</event>
<event>
 6    0  0.9315069E+002  0.1594438E+03  0.7546771E-02  0.1189326E+00
         21   -1    0    0  506  501  0.00000000000E+00  0.00000000000E+00  0.16435085460E+03  0.16435085460E+03  0.00000000000E+00 0. -1.
         21   -1    0    0  503  502 -0.00000000000E+00 -0.00000000000E+00 -0.26709910347E+03  0.26709910347E+03  0.00000000000E+00 0. -1.
         21    1    1    2  503  505 -0.54402535976E+02  0.68943091711E+02 -0.38136508050E+02  0.95745386633E+02  0.00000000000E+00 0. -1.
         21    1    1    2  504  501  0.14794234067E+03 -0.57929920110E+02 -0.30820623897E+02  0.16184165924E+03  0.00000000000E+00 0. -1.
         21    1    1    2  505  504 -0.55133918731E+02  0.40442325240E+02 -0.71880188365E+02  0.99207319009E+02  0.00000000000E+00 0. -1.
         21    1    1    2  506  502 -0.38405885966E+02 -0.51455496841E+02  0.38089071436E+02  0.74655593192E+02  0.00000000000E+00 0. -1.
<scales pt_clust_3="38.85911" pt_clust_4="153.24119" pt_clust_5="38.85911" pt_clust_6="64.20810"></scales>
<clustering>
<clus scale="   38.859">  3  5 -1 -1</clus>
<clus scale="   64.208">  1  6  2 -1</clus>
<clus scale="  153.241">  1  4  2 -1</clus>
<clus scale="   64.208">  1  3  2 -1</clus>
</clustering>
</event>
<event>
 6    0  0.9315069E+002  0.1100373E+03  0.7546771E-02  0.1260501E+00
         21   -1    0    0  503  501  0.00000000000E+00  0.00000000000E+00  0.88946062146E+02  0.88946062146E+02  0.00000000000E+00 0. -1.
         21   -1    0    0  505  502 -0.00000000000E+00 -0.00000000000E+00 -0.13139079584E+04  0.13139079584E+04  0.00000000000E+00 0. -1.
         21    1    1    2  503  506  0.39484717500E+02  0.49017818184E+02 -0.25128234395E+03  0.25904556702E+03  0.00000000000E+00 0. -1.
         21    1    1    2  504  501 -0.10768948867E+03 -0.33774604668E+02  0.39371276377E+02  0.11953178362E+03  0.00000000000E+00 0. -1.
         21    1    1    2  505  504  0.41324876474E+02  0.14890094455E+02 -0.93820659152E+03  0.93923429915E+03  0.00000000000E+00 0. -1.
         21    1    1    2  506  502  0.26879894698E+02 -0.30133307971E+02 -0.74844237207E+02  0.85042370800E+02  0.00000000000E+00 0.  1.
<scales pt_clust_3="62.12552" pt_clust_4="110.03727" pt_clust_5="14000.00000" pt_clust_6="40.38001"></scales>
<clustering>
<clus scale="   40.380">  2  6  1 -1</clus>
<clus scale="   62.126">  2  3  1 -1</clus>
<clus scale="  110.037">  1  4  2 -1</clus>
<clus scale="  110.037">  1  3  2 -1</clus>
</clustering>
</event>
<event>
 6    0  0.9315069E+002  0.6541992E+02  0.7546771E-02  0.1376399E+00
         21   -1    0    0  505  501  0.00000000000E+00  0.00000000000E+00  0.18170209620E+04  0.18170209620E+04  0.00000000000E+00 0.  1.
         21   -1    0    0  503  502 -0.00000000000E+00 -0.00000000000E+00 -0.29011983368E+02  0.29011983368E+02  0.00000000000E+00 0.  1.
         21    1    1    2  503  501  0.14801025664E+02 -0.95010952226E+02  0.28361194103E+03  0.29946933816E+03  0.00000000000E+00 0.  1.
         21    1    1    2  504  502  0.47027699086E+02  0.34429879022E+02  0.33899632463E+02  0.67425559931E+02  0.00000000000E+00 0.  1.
         21    1    1    2  505  506 -0.14115488544E+01  0.45298037753E+02  0.12255314989E+04  0.12263691774E+04  0.00000000000E+00 0.  1.
         21    1    1    2  506  504 -0.60417175896E+02  0.15283035451E+02  0.24496590631E+03  0.25276886986E+03  0.00000000000E+00 0.  1.
<scales pt_clust_3="65.41992" pt_clust_4="60.56475" pt_clust_5="45.32003" pt_clust_6="14000.00000"></scales>
<clustering>
<clus scale="   45.320">  1  5  2 -1</clus>
<clus scale="   60.565">  2  4  1 -1</clus>
<clus scale="   65.420">  1  3  2 -1</clus>
<clus scale="   45.320">  1  3  2 -1</clus>
</clustering>
</event>
<event>
 6    0  0.9315069E+002  0.1638460E+03  0.7546771E-02  0.1184422E+00
         21   -1    0    0  506  501  0.00000000000E+00  0.00000000000E+00  0.10794306005E+03  0.10794306005E+03  0.00000000000E+00 0. -1.
         21   -1    0    0  505  502 -0.00000000000E+00 -0.00000000000E+00 -0.84177484331E+03  0.84177484331E+03  0.00000000000E+00 0. -1.
         21    1    1    2  503  502 -0.53287131520E+02  0.28033453689E+02 -0.42709265960E+03  0.43131604746E+03  0.00000000000E+00 0. -1.
         21    1    1    2  504  501  0.62232051381E+01  0.48244417499E+02  0.56339451188E+00  0.48647399883E+02  0.00000000000E+00 0.  1.
         21    1    1    2  505  504  0.17402900354E+03 -0.89710675725E+02 -0.85103386990E+02  0.21348696890E+03  0.00000000000E+00 0. -1.
         21    1    1    2  506  503 -0.12696507716E+03  0.13432804537E+02 -0.22219913118E+03  0.25626748712E+03  0.00000000000E+00 0. -1.
<scales pt_clust_3="60.65185" pt_clust_4="48.64414" pt_clust_5="163.84600" pt_clust_6="14000.00000"></scales>
<clustering>
<clus scale="   48.644">  1  4  2 -1</clus>
<clus scale="   60.652">  2  3  1 -1</clus>
<clus scale="  163.846">  1  5  2 -1</clus>
<clus scale="   48.644">  1  3  2 -1</clus>
</clustering>
</event>
<event>
 6    0  0.9315069E+002  0.1184456E+03  0.7546771E-02  0.1245684E+00
         21   -1    0    0  503  501  0.00000000000E+00  0.00000000000E+00  0.12648429235E+04  0.12648429235E+04  0.00000000000E+00 0.  1.
         21   -1    0    0  505  502 -0.00000000000E+00 -0.00000000000E+00 -0.15690957134E+03  0.15690957134E+03  0.00000000000E+00 0. -1.
         21    1    1    2  503  504 -0.63179196693E+01  0.30885072958E+02  0.11801465989E+03  0.12215262498E+03  0.00000000000E+00 0.  1.
         21    1    1    2  504  502 -0.37102320313E+02  0.53450351161E+01  0.36869240985E+03  0.37059309850E+03  0.00000000000E+00 0. -1.
         21    1    1    2  505  506 -0.11627232680E+03 -0.15249522218E+02 -0.12159199017E+03  0.16892724464E+03  0.00000000000E+00 0. -1.
         21    1    1    2  506  501  0.15969256679E+03 -0.20980585856E+02  0.74281827264E+03  0.76007952678E+03  0.00000000000E+00 0.  1.
<scales pt_clust_3="31.52465" pt_clust_4="42.03286" pt_clust_5="14000.00000" pt_clust_6="118.44557"></scales>
<clustering>
<clus scale="   31.525">  1  3  2 -1</clus>
<clus scale="   42.033">  1  4  2 -1</clus>
<clus scale="  118.446">  1  6  2 -1</clus>
<clus scale="   31.525">  1  3  2 -1</clus>
</clustering>
</event>
<event>
 6    0  0.9315069E+002  0.7145910E+02  0.7546771E-02  0.1355200E+00
         21   -1    0    0  505  501  0.00000000000E+00  0.00000000000E+00  0.52498281364E+03  0.52498281364E+03  0.00000000000E+00 0.  1.
         21   -1    0    0  506  502 -0.00000000000E+00 -0.00000000000E+00 -0.11058339313E+03  0.11058339313E+03  0.00000000000E+00 0. -1.
         21    1    1    2  503  502 -0.12083853237E+02  0.73314762873E+02 -0.74111751395E+02  0.10494582249E+03  0.00000000000E+00 0. -1.
         21    1    1    2  504  501  0.39524708570E+01 -0.49066015720E+02  0.16542508742E+03  0.17259361365E+03  0.00000000000E+00 0. -1.
         21    1    1    2  505  503  0.64798819630E+02  0.71140938329E+01  0.65453496259E+02  0.92377797814E+02  0.00000000000E+00 0. -1.
         21    1    1    2  506  504 -0.56667437250E+02 -0.31362840986E+02  0.25763258823E+03  0.26564897281E+03  0.00000000000E+00 0.  1.
<scales pt_clust_3="14000.00000" pt_clust_4="49.22495" pt_clust_5="65.78278" pt_clust_6="71.45910"></scales>
<clustering>
<clus scale="   49.225">  1  4  2 -1</clus>
<clus scale="   65.783">  1  5  2 -1</clus>
<clus scale="   71.459">  1  6  2 -1</clus>
<clus scale="   49.225">  1  3  2 -1</clus>
</clustering>
</event>
<event>
 6    0  0.9315069E+002  0.1154195E+03  0.7546771E-02  0.1250851E+00
         21   -1    0    0  504  501  0.00000000000E+00  0.00000000000E+00  0.19422458532E+03  0.19422458532E+03  0.00000000000E+00 0.  1.
         21   -1    0    0  505  502 -0.00000000000E+00 -0.00000000000E+00 -0.13134606956E+04  0.13134606956E+04  0.00000000000E+00 0.  1.
         21    1    1    2  503  502 -0.31068968316E+02 -0.91711970859E+01 -0.11379199705E+04  0.11383809779E+04  0.00000000000E+00 0.  1.
         21    1    1    2  504  506  0.30448660095E+02 -0.23379863096E+01  0.57632992852E+02  0.65223837258E+02  0.00000000000E+00 0.  1.
         21    1    1    2  505  501  0.47812152305E+02 -0.90065617498E+02  0.88067338246E+02  0.13473556854E+03  0.00000000000E+00 0.  1.
         21    1    1    2  506  503 -0.47191844084E+02  0.10157480089E+03 -0.12701647083E+03  0.16934489714E+03  0.00000000000E+00 0.  1.
<scales pt_clust_3="32.34478" pt_clust_4="30.53829" pt_clust_5="115.41951" pt_clust_6="14000.00000"></scales>
<clustering>
<clus scale="   30.538">  1  4  2 -1</clus>
<clus scale="   32.345">  2  3  1 -1</clus>
<clus scale="  115.420">  1  5  2 -1</clus>
<clus scale="   30.538">  1  3  2 -1</clus>
</clustering>
</event>
<event>
 6    0  0.9315069E+002  0.1140917E+03  0.7546771E-02  0.1253175E+00
         21   -1    0    0  503  501  0.00000000000E+00  0.00000000000E+00  0.64622978187E+03  0.64622978187E+03  0.00000000000E+00 0. -1.
         21   -1    0    0  506  502 -0.00000000000E+00 -0.00000000000E+00 -0.11746298287E+03  0.11746298287E+03  0.00000000000E+00 0.  1.
         21    1    1    2  503  505  0.36882876754E+02  0.53441089975E+02  0.52104561473E+03  0.52507602242E+03  0.00000000000E+00 0. -1.
         21    1    1    2  504  501  0.11109954705E+02 -0.43246498563E+02 -0.37609695039E+02  0.58379618810E+02  0.00000000000E+00 0.  1.
         21    1    1    2  505  502 -0.88665430966E+02  0.46617238758E+02  0.46310027294E+02  0.11036006626E+03  0.00000000000E+00 0.  1.
         21    1    1    2  506  504  0.40672599508E+02 -0.56811830170E+02 -0.97914798482E+00  0.69877057241E+02  0.00000000000E+00 0.  1.
<scales pt_clust_3="64.93302" pt_clust_4="38.06705" pt_clust_5="103.67908" pt_clust_6="38.06705"></scales>
<clustering>
<clus scale="   38.067">  4  6 -1 -1</clus>
<clus scale="   64.933">  1  3  2 -1</clus>
<clus scale="  103.679">  1  5  2 -1</clus>
<clus scale="   64.933">  1  3  2 -1</clus>
</clustering>
</event>
<event>
 6    0  0.9315069E+002  0.8699753E+02  0.7546771E-02  0.1310290E+00
         21   -1    0    0  504  501  0.00000000000E+00  0.00000000000E+00  0.55488120385E+02  0.55488120385E+02  0.00000000000E+00 0. -1.
         21   -1    0    0  503  502 -0.00000000000E+00 -0.00000000000E+00 -0.42428557899E+03  0.42428557899E+03  0.00000000000E+00 0. -1.
         21    1    1    2  503  501 -0.47413818942E+02  0.78342784333E+01 -0.55367264583E+02  0.73314255999E+02  0.00000000000E+00 0. -1.
         21    1    1    2  504  505  0.42894217318E+02 -0.28234416974E+01  0.51117428901E+01  0.43289902030E+02  0.00000000000E+00 0. -1.
         21    1    1    2  505  506  0.70450915472E+02  0.51537936263E+02 -0.14951815986E+03  0.17313338931E+03  0.00000000000E+00 0. -1.
         21    1    1    2  506  502 -0.65931313848E+02 -0.56548772998E+02 -0.16902377705E+03  0.19003615204E+03  0.00000000000E+00 0. -1.
<scales pt_clust_3="35.80712" pt_clust_4="42.98704" pt_clust_5="14000.00000" pt_clust_6="86.99753"></scales>
<clustering>
<clus scale="   42.987">  1  4  2 -1</clus>
<clus scale="   35.807">  1  3  2 -1</clus>
<clus scale="   86.998">  2  6  1 -1</clus>
<clus scale="   42.987">  1  3  2 -1</clus>
</clustering>
</event>
<event>
 6    0  0.9315069E+002  0.1552901E+03  0.7546771E-02  0.1194119E+00
         21   -1    0    0  505  501  0.00000000000E+00  0.00000000000E+00  0.10666986178E+03  0.10666986178E+03  0.00000000000E+00 0. -1.
         21   -1    0    0  504  502 -0.00000000000E+00 -0.00000000000E+00 -0.83317726572E+03  0.83317726572E+03  0.00000000000E+00 0. -1.
         21    1    1    2  503  501 -0.91344966885E+02 -0.86463457373E+02 -0.26092867847E+02  0.12845493447E+03  0.00000000000E+00 0. -1.
         21    1    1    2  504  506 -0.49401731293E+02  0.23008058380E+02 -0.16122592544E+03  0.17018725229E+03  0.00000000000E+00 0. -1.
         21    1    1    2  505  502  0.51612902863E+02 -0.79821078793E+02 -0.22527661857E+02  0.97687214672E+02  0.00000000000E+00 0. -1.
         21    1    1    2  506  503  0.89133795315E+02  0.14327647779E+03 -0.51666094879E+03  0.54351772608E+03  0.00000000000E+00 0. -1.
<scales pt_clust_3="14000.00000" pt_clust_4="54.49681" pt_clust_5="90.93617" pt_clust_6="155.29007"></scales>
<clustering>
<clus scale="   54.497">  2  4  1 -1</clus>
<clus scale="   90.936">  1  5  2 -1</clus>
<clus scale="  155.290">  2  6  1 -1</clus>
<clus scale="   90.936">  1  3  2 -1</clus>
</clustering>
</event>
<event>
 6    0  0.9315069E+002  0.1557020E+03  0.7546771E-02  0.1193636E+00
         21   -1    0    0  506  501  0.00000000000E+00  0.00000000000E+00  0.13020702081E+03  0.13020702081E+03  0.00000000000E+00 0. -1.
         21   -1    0    0  503  502 -0.00000000000E+00 -0.00000000000E+00 -0.79571211197E+03  0.79571211197E+03  0.00000000000E+00 0.  1.
         21    1    1    2  503  501  0.91052283522E+02  0.14000890460E+03 -0.35701331188E+03  0.39414656736E+03  0.00000000000E+00 0.  1.
         21    1    1    2  504  502 -0.11153943910E+03 -0.98305190343E+02 -0.33048711716E+03  0.36239024757E+03  0.00000000000E+00 0.  1.
         21    1    1    2  505  504 -0.89060371759E+01 -0.61576849576E+02 -0.55992306947E+02  0.83702833519E+02  0.00000000000E+00 0.  1.
         21    1    1    2  506  505  0.29393192756E+02  0.19873135321E+02  0.77987644832E+02  0.85679484326E+02  0.00000000000E+00 0. -1.
<scales pt_clust_3="14000.00000" pt_clust_4="155.70197" pt_clust_5="55.88685" pt_clust_6="35.48100"></scales>
<clustering>
<clus scale="   35.481">  1  6  2 -1</clus>
<clus scale="   55.887">  1  5  2 -1</clus>
<clus scale="  155.702">  2  4  1 -1</clus>
<clus scale="   35.481">  1  3  2 -1</clus>
</clustering>
</event>
<event>
 6    0  0.9315069E+002  0.8264500E+02  0.7546771E-02  0.1321709E+00
         21   -1    0    0  504  501  0.00000000000E+00  0.00000000000E+00  0.15363423038E+03  0.15363423038E+03  0.00000000000E+00 0. -1.
         21   -1    0    0  505  502 -0.00000000000E+00 -0.00000000000E+00 -0.21102848721E+03  0.21102848721E+03  0.00000000000E+00 0. -1.
         21    1    1    2  503  501  0.83987212758E+02 -0.30523456536E+02  0.65290300975E+02  0.11067229422E+03  0.00000000000E+00 0. -1.
         21    1    1    2  504  506 -0.40774414003E+02  0.65469575648E+02 -0.37527559515E+02  0.85773748291E+02  0.00000000000E+00 0. -1.
         21    1    1    2  505  503  0.39651536710E+02  0.20904569344E+02 -0.21308986423E+02  0.49631827342E+02  0.00000000000E+00 0. -1.
         21    1    1    2  506  502 -0.82864335466E+02 -0.55850688456E+02 -0.63848011868E+02  0.11858484774E+03  0.00000000000E+00 0. -1.
<scales pt_clust_3="14000.00000" pt_clust_4="82.64500" pt_clust_5="44.82461" pt_clust_6="76.81536"></scales>
<clustering>
<clus scale="   44.825">  2  5  1 -1</clus>
<clus scale="   76.815">  2  6  1 -1</clus>
<clus scale="   82.645">  2  4  1 -1</clus>
<clus scale="   82.645">  1  3  2 -1</clus>
</clustering>
</event>
<event>
 6    0  0.9315069E+002  0.2058694E+03  0.7546771E-02  0.1144879E+00
         21   -1    0    0  506  501  0.00000000000E+00  0.00000000000E+00  0.37643592060E+03  0.37643592060E+03  0.00000000000E+00 0. -1.
         21   -1    0    0  505  502 -0.00000000000E+00 -0.00000000000E+00 -0.14381054718E+03  0.14381054718E+03  0.00000000000E+00 0. -1.
         21    1    1    2  503  504  0.92428128153E+02  0.12501401799E+02  0.48092997678E+02  0.10493893627E+03  0.00000000000E+00 0. -1.
         21    1    1    2  504  501  0.10356825483E+03  0.31456585785E+02  0.92539702293E+02  0.14240609783E+03  0.00000000000E+00 0. -1.
         21    1    1    2  505  503 -0.55677072324E+01  0.41018300681E+02 -0.71454069124E+01  0.42006632744E+02  0.00000000000E+00 0. -1.
         21    1    1    2  506  502 -0.19042867576E+03 -0.84976288265E+02  0.99138080364E+02  0.23089480093E+03  0.00000000000E+00 0. -1.
<scales pt_clust_3="30.15282" pt_clust_4="30.15282" pt_clust_5="41.39445" pt_clust_6="203.29064"></scales>
<clustering>
<clus scale="   30.153">  3  4 -1 -1</clus>
<clus scale="   41.394">  2  5  1 -1</clus>
<clus scale="  203.291">  2  6  1 -1</clus>
<clus scale="  205.869">  1  3  2 -1</clus>
</clustering>
</event>
<event>
 6    0  0.9315069E+002  0.6293467E+02  0.7546771E-02  0.1385913E+00
         21   -1    0    0  503  501  0.00000000000E+00  0.00000000000E+00  0.45560782836E+03  0.45560782836E+03  0.00000000000E+00 0.  1.
         21   -1    0    0  504  502 -0.00000000000E+00 -0.00000000000E+00 -0.25225629095E+03  0.25225629095E+03  0.00000000000E+00 0.  1.
         21    1    1    2  503  505  0.78734085756E+02 -0.28132523678E+01 -0.67491873476E+02  0.10374065565E+03  0.00000000000E+00 0. -1.
         21    1    1    2  504  506  0.23530193468E+02 -0.50723045729E+02 -0.18473281906E+02  0.58887685614E+02  0.00000000000E+00 0. -1.
         21    1    1    2  505  502 -0.40288256642E+02  0.61762439941E+02 -0.11472798776E+03  0.13638274739E+03  0.00000000000E+00 0.  1.
         21    1    1    2  506  501 -0.61976022581E+02 -0.82261418444E+01  0.40404468056E+03  0.40885303066E+03  0.00000000000E+00 0.  1.
<scales pt_clust_3="62.93467" pt_clust_4="55.91509" pt_clust_5="41.47646" pt_clust_6="14000.00000"></scales>
<clustering>
<clus scale="   55.915">  2  4  1 -1</clus>
<clus scale="   41.476">  2  5  1 -1</clus>
<clus scale="   62.935">  2  3  1 -1</clus>
<clus scale="   62.935">  1  3  2 -1</clus>
</clustering>
</event>
<event>
 6    0  0.9315069E+002  0.6603432E+02  0.7546771E-02  0.1374123E+00
         21   -1    0    0  506  501  0.00000000000E+00  0.00000000000E+00  0.32514085196E+02  0.32514085196E+02  0.00000000000E+00 0.  1.
         21   -1    0    0  504  502 -0.00000000000E+00 -0.00000000000E+00 -0.78501325095E+03  0.78501325095E+03  0.00000000000E+00 0.  1.
         21    1    1    2  503  505  0.65447842467E+02  0.31299335457E+02 -0.47657742358E+03  0.48206753588E+03  0.00000000000E+00 0.  1.
         21    1    1    2  504  503 -0.84197502090E+01 -0.45046494184E+02 -0.12648485583E+03  0.13453065668E+03  0.00000000000E+00 0. -1.
         21    1    1    2  505  501 -0.84232674697E+02  0.42388016182E+02 -0.97028613236E+02  0.13530129042E+03  0.00000000000E+00 0.  1.
         21    1    1    2  506  502  0.27204582439E+02 -0.28640857455E+02 -0.52408273109E+02  0.65627853169E+02  0.00000000000E+00 0. -1.
<scales pt_clust_3="14000.00000" pt_clust_4="49.67183" pt_clust_5="66.03432" pt_clust_6="39.50175"></scales>
<clustering>
<clus scale="   39.502">  1  6  2 -1</clus>
<clus scale="   49.672">  2  4  1 -1</clus>
<clus scale="   66.034">  1  5  2 -1</clus>
<clus scale="   39.502">  1  3  2 -1</clus>
</clustering>
</event>
<event>
 6    0  0.9315069E+002  0.1705397E+03  0.7546771E-02  0.1177286E+00
         21   -1    0    0  504  501  0.00000000000E+00  0.00000000000E+00  0.29559993138E+03  0.29559993138E+03  0.00000000000E+00 0. -1.
         21   -1    0    0  503  502 -0.00000000000E+00 -0.00000000000E+00 -0.20548570930E+03  0.20548570930E+03  0.00000000000E+00 0. -1.
         21    1    1    2  503  505  0.30938076262E+02  0.28772471930E+02 -0.35248621902E+02  0.55022586723E+02  0.00000000000E+00 0. -1.
         21    1    1    2  504  506 -0.11148354210E+03 -0.36958382789E+02 -0.43973127148E+02  0.12541187396E+03  0.00000000000E+00 0. -1.
         21    1    1    2  505  501  0.15843353366E+03 -0.87757990731E+00  0.18191341536E+03  0.24123524913E+03  0.00000000000E+00 0. -1.
         21    1    1    2  506  502 -0.77888067819E+02  0.90634907666E+01 -0.12577444229E+02  0.79415930875E+02  0.00000000000E+00 0. -1.
<scales pt_clust_3="42.24949" pt_clust_4="37.59258" pt_clust_5="164.21649" pt_clust_6="37.59258"></scales>
<clustering>
<clus scale="   37.593">  4  6 -1 -1</clus>
<clus scale="   42.249">  2  3  1 -1</clus>
<clus scale="  164.216">  1  5  2 -1</clus>
<clus scale="  164.216">  1  3  2 -1</clus>
</clustering>
</event>
<event>
 6    0  0.9315069E+002  0.1146446E+03  0.7546771E-02  0.1252203E+00
         21   -1    0    0  504  501  0.00000000000E+00  0.00000000000E+00  0.11362189950E+04  0.11362189950E+04  0.00000000000E+00 0. -1.
         21   -1    0    0  503  502 -0.00000000000E+00 -0.00000000000E+00 -0.13343493888E+03  0.13343493888E+03  0.00000000000E+00 0. -1.
         21    1    1    2  503  506  0.66576793945E+02  0.62262929924E+02 -0.73466216511E+02  0.11707445026E+03  0.00000000000E+00 0. -1.
         21    1    1    2  504  502  0.46352604891E+02  0.29284106481E+02  0.22761933778E+02  0.59365212894E+02  0.00000000000E+00 0. -1.
         21    1    1    2  505  501 -0.27994271283E+02 -0.47384264035E+02  0.95240714711E+03  0.95399597566E+03  0.00000000000E+00 0. -1.
         21    1    1    2  506  505 -0.84935127553E+02 -0.44162772370E+02  0.10108119170E+03  0.13921829503E+03  0.00000000000E+00 0. -1.
<scales pt_clust_3="14000.00000" pt_clust_4="54.82812" pt_clust_5="54.69950" pt_clust_6="114.64464"></scales>
<clustering>
<clus scale="   54.828">  2  4  1 -1</clus>
<clus scale="   54.699">  1  5  2 -1</clus>
<clus scale="  114.645">  1  6  2 -1</clus>
<clus scale="   54.699">  1  3  2 -1</clus>
</clustering>
</event>
<event>
 6    0  0.9315069E+002  0.1273552E+03  0.7546771E-02  0.1231434E+00
         21   -1    0    0  503  501  0.00000000000E+00  0.00000000000E+00  0.58851546527E+03  0.58851546527E+03  0.00000000000E+00 0. -1.
         21   -1    0    0  506  502 -0.00000000000E+00 -0.00000000000E+00 -0.52593374212E+02  0.52593374212E+02  0.00000000000E+00 0. -1.
         21    1    1    2  503  505  0.49823063903E+02  0.38908121015E+01  0.99733535155E+02  0.11155381728E+03  0.00000000000E+00 0. -1.
         21    1    1    2  504  502  0.35532386313E+02 -0.81896642226E+01 -0.13504593152E+02  0.38884381355E+02  0.00000000000E+00 0. -1.
         21    1    1    2  505  504  0.38100477269E+02 -0.46995162128E+02  0.10860768553E+03  0.12432144219E+03  0.00000000000E+00 0. -1.
         21    1    1    2  506  501 -0.12345592748E+03  0.51294014249E+02  0.34108546352E+03  0.36634919866E+03  0.00000000000E+00 0. -1.
<scales pt_clust_3="46.92754" pt_clust_4="36.46397" pt_clust_5="46.92754" pt_clust_6="116.51953"></scales>
<clustering>
<clus scale="   36.464">  2  4  1 -1</clus>
<clus scale="   46.928">  3  5 -1 -1</clus>
<clus scale="  116.520">  2  6  1 -1</clus>
<clus scale="  127.355">  1  3  2 -1</clus>
</clustering>
</event>
<event>
 6    0  0.9315069E+002  0.1159199E+03  0.7546771E-02  0.1249984E+00
         21   -1    0    0  506  501  0.00000000000E+00  0.00000000000E+00  0.15969088435E+04  0.15969088435E+04  0.00000000000E+00 0. -1.
         21   -1    0    0  505  502 -0.00000000000E+00 -0.00000000000E+00 -0.14026306659E+03  0.14026306659E+03  0.00000000000E+00 0. -1.
         21    1    1    2  503  502 -0.30057294598E+02  0.99091241927E+02 -0.11419858564E+03  0.15415522095E+03  0.00000000000E+00 0. -1.
         21    1    1    2  504  503 -0.35918265635E+02 -0.72832697145E+02  0.40543210737E+03  0.41348508711E+03  0.00000000000E+00 0. -1.
         21    1    1    2  505  501  0.54671047004E+02  0.11312281917E+02  0.81996320447E+03  0.82186163543E+03  0.00000000000E+00 0. -1.
         21    1    1    2  506  504  0.11304513229E+02 -0.37570826698E+02  0.34544905073E+03  0.34766996662E+03  0.00000000000E+00 0. -1.
<scales pt_clust_3="103.42962" pt_clust_4="36.38225" pt_clust_5="55.82912" pt_clust_6="36.38225"></scales>
<clustering>
<clus scale="   36.382">  4  6 -1 -1</clus>
<clus scale="   55.829">  1  5  2 -1</clus>
<clus scale="  103.430">  2  3  1 -1</clus>
<clus scale="   55.829">  1  3  2 -1</clus>
</clustering>
</event>
<event>
 6    0  0.9315069E+002  0.1100816E+03  0.7546771E-02  0.1260419E+00
         21   -1    0    0  505  501  0.00000000000E+00  0.00000000000E+00  0.56766533712E+03  0.56766533712E+03  0.00000000000E+00 0.  1.
         21   -1    0    0  504  502 -0.00000000000E+00 -0.00000000000E+00 -0.10336746961E+03  0.10336746961E+03  0.00000000000E+00 0. -1.
         21    1    1    2  503  502 -0.59421610477E+02  0.13204287990E+02 -0.67739249669E+02  0.91070779939E+02  0.00000000000E+00 0. -1.
         21    1    1    2  504  506  0.58272419726E+02 -0.64570476545E+02  0.15386152932E+03  0.17674385859E+03  0.00000000000E+00 0.  1.
         21    1    1    2  505  503 -0.48583270713E+02  0.71292238640E+02  0.22870697541E+03  0.24443771821E+03  0.00000000000E+00 0.  1.
         21    1    1    2  506  501  0.49732461464E+02 -0.19926050085E+02  0.14946861245E+03  0.15878045000E+03  0.00000000000E+00 0.  1.
<scales pt_clust_3="60.87102" pt_clust_4="32.95089" pt_clust_5="101.76089" pt_clust_6="32.95089"></scales>
<clustering>
<clus scale="   32.951">  4  6 -1 -1</clus>
<clus scale="   60.871">  2  3  1 -1</clus>
<clus scale="  101.761">  1  5  2 -1</clus>
<clus scale="  101.761">  1  3  2 -1</clus>
</clustering>
</event>
<event>
 6    0  0.9315069E+002  0.1247129E+03  0.7546771E-02  0.1235519E+00
         21   -1    0    0  506  501  0.00000000000E+00  0.00000000000E+00  0.30794480197E+03  0.30794480197E+03  0.00000000000E+00 0.  1.
         21   -1    0    0  504  502 -0.00000000000E+00 -0.00000000000E+00 -0.35972988434E+03  0.35972988434E+03  0.00000000000E+00 0.  1.
         21    1    1    2  503  501  0.68764451454E+02  0.14936764441E+02  0.19748764003E+03  0.20964976671E+03  0.00000000000E+00 0.  1.
         21    1    1    2  504  503 -0.10082181070E+03  0.95736156873E+02 -0.18515555420E+02  0.14026145243E+03  0.00000000000E+00 0.  1.
         21    1    1    2  505  502  0.66346010294E+02 -0.10250391509E+03 -0.24954864620E+03  0.27781895636E+03  0.00000000000E+00 0.  1.
         21    1    1    2  506  505 -0.34288651048E+02 -0.81690062216E+01  0.18791479218E+02  0.39944510818E+02  0.00000000000E+00 0.  1.
<scales pt_clust_3="44.61858" pt_clust_4="14000.00000" pt_clust_5="124.71290" pt_clust_6="35.24832"></scales>
<clustering>
<clus scale="   35.248">  1  6  2 -1</clus>
<clus scale="   44.619">  1  3  2 -1</clus>
<clus scale="  124.713">  2  5  1 -1</clus>
<clus scale="   35.248">  1  3  2 -1</clus>
</clustering>
</event>
<event>
 6    0  0.9315069E+002  0.1327835E+03  0.7546771E-02  0.1223383E+00
         21   -1    0    0  503  501  0.00000000000E+00  0.00000000000E+00  0.61555860005E+03  0.61555860005E+03  0.00000000000E+00 0. -1.
         21   -1    0    0  504  502 -0.00000000000E+00 -0.00000000000E+00 -0.24655036940E+03  0.24655036940E+03  0.00000000000E+00 0. -1.
         21    1    1    2  503  502  0.19532880055E+02 -0.22916190471E+02  0.49571360232E+03  0.49662728551E+03  0.00000000000E+00 0. -1.
         21    1    1    2  504  506 -0.98676409302E+02  0.87288556448E+02 -0.19583802673E+03  0.23602724113E+03  0.00000000000E+00 0. -1.
         21    1    1    2  505  501  0.55883162021E+02 -0.20035437496E+02  0.38568994461E+02  0.70794871896E+02  0.00000000000E+00 0. -1.
         21    1    1    2  506  505  0.23260367227E+02 -0.44336928480E+02  0.30563660599E+02  0.58659570914E+02  0.00000000000E+00 0. -1.
<scales pt_clust_3="30.11121" pt_clust_4="126.72737" pt_clust_5="36.60432" pt_clust_6="36.60432"></scales>
<clustering>
<clus scale="   30.111">  1  3  2 -1</clus>
<clus scale="   36.604">  5  6 -1 -1</clus>
<clus scale="  126.727">  2  4  1 -1</clus>
<clus scale="   30.111">  1  3  2 -1</clus>
</clustering>
</event>
<event>
 6    0  0.9315069E+002  0.1198372E+03  0.7546771E-02  0.1243366E+00
         21   -1    0    0  506  501  0.00000000000E+00  0.00000000000E+00  0.27134347362E+03  0.27134347362E+03  0.00000000000E+00 0. -1.
         21   -1    0    0  504  502 -0.00000000000E+00 -0.00000000000E+00 -0.46264105543E+03  0.46264105543E+03  0.00000000000E+00 0. -1.
         21    1    1    2  503  502  0.16588803294E+02  0.47241015110E+02  0.29496504927E+02  0.58111493753E+02  0.00000000000E+00 0. -1.
         21    1    1    2  504  505 -0.25356805810E+02 -0.84489573246E+02 -0.39724507558E+03  0.40692149815E+03  0.00000000000E+00 0. -1.
         21    1    1    2  505  501 -0.85176306244E+02 -0.26780497974E+02  0.77136455034E+02  0.11799250363E+03  0.00000000000E+00 0. -1.
         21    1    1    2  506  503  0.93944308760E+02  0.64029056109E+02  0.99314533802E+02  0.15095903351E+03  0.00000000000E+00 0. -1.
<scales pt_clust_3="33.31123" pt_clust_4="88.21256" pt_clust_5="108.81794" pt_clust_6="33.31123"></scales>
<clustering>
<clus scale="   33.311">  3  6 -1 -1</clus>
<clus scale="   88.213">  2  4  1 -1</clus>
<clus scale="  108.818">  1  5  2 -1</clus>
<clus scale="  108.818">  1  3  2 -1</clus>
</clustering>
</event>
<event>
 6    0  0.9315069E+002  0.8682006E+02  0.7546771E-02  0.1310740E+00
         21   -1    0    0  504  501  0.00000000000E+00  0.00000000000E+00  0.76190795355E+03  0.76190795355E+03  0.00000000000E+00 0.  1.
         21   -1    0    0  505  502 -0.00000000000E+00 -0.00000000000E+00 -0.45604213496E+02  0.45604213496E+02  0.00000000000E+00 0.  1.
         21    1    1    2  503  502  0.14945088025E+02 -0.83562767238E+02  0.28951334275E+03  0.30170195120E+03  0.00000000000E+00 0.  1.
         21    1    1    2  504  503  0.29008930337E+02  0.15424440689E+02  0.28597431153E+03  0.28785541208E+03  0.00000000000E+00 0.  1.
         21    1    1    2  505  506  0.38269666195E+01  0.87453788007E+02  0.24762707374E+02  0.90972536443E+02  0.00000000000E+00 0.  1.
         21    1    1    2  506  501 -0.47780984982E+02 -0.19315461458E+02  0.11605337840E+03  0.12698226733E+03  0.00000000000E+00 0.  1.
<scales pt_clust_3="86.82006" pt_clust_4="32.85470" pt_clust_5="14000.00000" pt_clust_6="43.18700"></scales>
<clustering>
<clus scale="   32.855">  1  4  2 -1</clus>
<clus scale="   43.187">  1  6  2 -1</clus>
<clus scale="   86.820">  1  3  2 -1</clus>
<clus scale="   32.855">  1  3  2 -1</clus>
</clustering>
</event>
<event>
 6    0  0.9315069E+002  0.1709670E+03  0.7546771E-02  0.1176843E+00
         21   -1    0    0  503  501  0.00000000000E+00  0.00000000000E+00  0.22039860060E+04  0.22039860060E+04  0.00000000000E+00 0. -1.
         21   -1    0    0  506  502 -0.00000000000E+00 -0.00000000000E+00 -0.11004070032E+03  0.11004070032E+03  0.00000000000E+00 0. -1.
         21    1    1    2  503  502  0.10603393091E+03  0.24452676171E+03  0.13929483761E+04  0.14182177936E+04  0.00000000000E+00 0. -1.
         21    1    1    2  504  505  0.25040072317E+02 -0.91615553143E+02  0.55869243828E+03  0.56670773366E+03  0.00000000000E+00 0. -1.
         21    1    1    2  505  501 -0.23709414678E+02 -0.25802633111E+02  0.15812986536E+03  0.16196594253E+03  0.00000000000E+00 0.  1.
         21    1    1    2  506  504 -0.10736458854E+03 -0.12710857546E+03 -0.15825374022E+02  0.16713523654E+03  0.00000000000E+00 0. -1.
<scales pt_clust_3="14000.00000" pt_clust_4="100.43993" pt_clust_5="35.04158" pt_clust_6="170.96699"></scales>
<clustering>
<clus scale="   35.042">  1  5  2 -1</clus>
<clus scale="  100.440">  1  4  2 -1</clus>
<clus scale="  170.967">  2  6  1 -1</clus>
<clus scale="   35.042">  1  3  2 -1</clus>
</clustering>
</event>
<event>
 6    0  0.9315069E+002  0.1655182E+03  0.7546771E-02  0.1182604E+00
         21   -1    0    0  503  501  0.00000000000E+00  0.00000000000E+00  0.15530472576E+03  0.15530472576E+03  0.00000000000E+00 0.  1.
         21   -1    0    0  505  502 -0.00000000000E+00 -0.00000000000E+00 -0.41923540624E+03  0.41923540624E+03  0.00000000000E+00 0. -1.
         21    1    1    2  503  502 -0.43374811288E+02  0.56453693711E+02 -0.27987488882E+02  0.76496361494E+02  0.00000000000E+00 0.  1.
         21    1    1    2  504  506  0.76222540358E+02  0.33137903381E+02 -0.21547264894E+03  0.23094687428E+03  0.00000000000E+00 0. -1.
         21    1    1    2  505  504  0.74608581985E+02  0.81304053294E+01 -0.80388997602E+02  0.10997697455E+03  0.00000000000E+00 0. -1.
         21    1    1    2  506  501 -0.10745631106E+03 -0.97722002421E+02  0.59918454945E+02  0.15711992167E+03  0.00000000000E+00 0.  1.
<scales pt_clust_3="71.19265" pt_clust_4="61.88937" pt_clust_5="61.88937" pt_clust_6="152.16577"></scales>
<clustering>
<clus scale="   61.889">  4  5 -1 -1</clus>
<clus scale="   71.193">  1  3  2 -1</clus>
<clus scale="  152.166">  1  6  2 -1</clus>
<clus scale="   71.193">  1  3  2 -1</clus>
</clustering>
</event>
<event>
 6    0  0.9315069E+002  0.1826665E+03  0.7546771E-02  0.1165247E+00
         21   -1    0    0  506  501  0.00000000000E+00  0.00000000000E+00  0.21587385970E+03  0.21587385970E+03  0.00000000000E+00 0.  1.
         21   -1    0    0  503  502 -0.00000000000E+00 -0.00000000000E+00 -0.20877017368E+03  0.20877017368E+03  0.00000000000E+00 0.  1.
         21    1    1    2  503  504 -0.15514473627E+03 -0.26673329642E+01 -0.11979887257E+02  0.15562943666E+03  0.00000000000E+00 0.  1.
         21    1    1    2  504  501 -0.35683391095E+02 -0.27147851925E+01  0.54307246094E+02  0.65038076824E+02  0.00000000000E+00 0.  1.
         21    1    1    2  505  502  0.83557812910E+02  0.31987943181E+02 -0.60786086167E+01  0.89677678883E+02  0.00000000000E+00 0.  1.
         21    1    1    2  506  505  0.10727031445E+03 -0.26605825024E+02 -0.29145064204E+02  0.11429884101E+03  0.00000000000E+00 0.  1.
<scales pt_clust_3="171.59743" pt_clust_4="35.78651" pt_clust_5="55.76633" pt_clust_6="55.76633"></scales>
<clustering>
<clus scale="   35.787">  1  4  2 -1</clus>
<clus scale="   55.766">  5  6 -1 -1</clus>
<clus scale="  171.597">  2  3  1 -1</clus>
<clus scale="   35.787">  1  3  2 -1</clus>
</clustering>
</event>
<event>
 6    0  0.9315069E+002  0.1022081E+03  0.7546771E-02  0.1275720E+00
         21   -1    0    0  504  501  0.00000000000E+00  0.00000000000E+00  0.13217344166E+03  0.13217344166E+03  0.00000000000E+00 0.  1.
         21   -1    0    0  506  502 -0.00000000000E+00 -0.00000000000E+00 -0.33728110441E+03  0.33728110441E+03  0.00000000000E+00 0.  1.
         21    1    1    2  503  505 -0.19841590884E+02 -0.86197193970E+02 -0.84968833856E+02  0.12265132573E+03  0.00000000000E+00 0.  1.
         21    1    1    2  504  503  0.43519501274E+02  0.23968480674E+02  0.55539206782E+02  0.74518712729E+02  0.00000000000E+00 0.  1.
         21    1    1    2  505  502  0.28402547872E+02 -0.51656612980E+02 -0.12305888276E+03  0.13644998724E+03  0.00000000000E+00 0.  1.
         21    1    1    2  506  501 -0.52080458261E+02  0.11388532628E+03 -0.52619152911E+02  0.13583452038E+03  0.00000000000E+00 0.  1.
<scales pt_clust_3="102.20810" pt_clust_4="49.68335" pt_clust_5="59.15441" pt_clust_6="14000.00000"></scales>
<clustering>
<clus scale="   49.683">  1  4  2 -1</clus>
<clus scale="   59.154">  2  5  1 -1</clus>
<clus scale="  102.208">  1  3  2 -1</clus>
<clus scale="   49.683">  1  3  2 -1</clus>
</clustering>
</event>
<event>
 6    0  0.9315069E+002  0.1462858E+03  0.7546771E-02  0.1205113E+00
         21   -1    0    0  505  501  0.00000000000E+00  0.00000000000E+00  0.33232994310E+03  0.33232994310E+03  0.00000000000E+00 0.  1.
         21   -1    0    0  501  502 -0.00000000000E+00 -0.00000000000E+00 -0.84914727543E+03  0.84914727543E+03  0.00000000000E+00 0.  1.
         21    1    1    2  503  506 -0.10333666224E+02  0.12489625905E+03  0.10062047911E+02  0.12572630985E+03  0.00000000000E+00 0.  1.
         21    1    1    2  504  502 -0.10063094740E+03 -0.86191641643E+02 -0.75572345210E+03  0.76725062576E+03  0.00000000000E+00 0.  1.
         21    1    1    2  505  503  0.99933975761E+02 -0.82059999877E+02  0.18619301218E+03  0.22669027521E+03  0.00000000000E+00 0.  1.
         21    1    1    2  506  504  0.11030637862E+02  0.43355382475E+02  0.42651059674E+02  0.61810007705E+02  0.00000000000E+00 0. -1.
<scales pt_clust_3="38.17313" pt_clust_4="131.59574" pt_clust_5="129.30833" pt_clust_6="38.17313"></scales>
<clustering>
<clus scale="   38.173">  3  6 -1 -1</clus>
<clus scale="  129.308">  1  5  2 -1</clus>
<clus scale="  131.596">  2  4  1 -1</clus>
<clus scale="  129.308">  1  3  2 -1</clus>
</clustering>
</event>
<event>
 6    0  0.9315069E+002  0.1143848E+03  0.7546771E-02  0.1252659E+00
         21   -1    0    0  503  501  0.00000000000E+00  0.00000000000E+00  0.34782097758E+03  0.34782097758E+03  0.00000000000E+00 0.  1.
         21   -1    0    0  506  502 -0.00000000000E+00 -0.00000000000E+00 -0.24116741001E+03  0.24116741001E+03  0.00000000000E+00 0.  1.
         21    1    1    2  503  502 -0.11998175463E+03  0.38942457136E+02  0.13643586850E+03  0.18581410772E+03  0.00000000000E+00 0.  1.
         21    1    1    2  504  505  0.89064664966E+02 -0.97702079082E+01  0.51705573713E+01  0.89748014862E+02  0.00000000000E+00 0.  1.
         21    1    1    2  505  501 -0.19273804897E+02 -0.29819158151E+02  0.13324698089E+03  0.13789640918E+03  0.00000000000E+00 0.  1.
         21    1    1    2  506  504  0.50190894562E+02  0.64690892248E+00 -0.16819983919E+03  0.17552985584E+03  0.00000000000E+00 0.  1.
<scales pt_clust_3="114.38478" pt_clust_4="14000.00000" pt_clust_5="35.50580" pt_clust_6="49.85826"></scales>
<clustering>
<clus scale="   35.506">  1  5  2 -1</clus>
<clus scale="   49.858">  2  6  1 -1</clus>
<clus scale="  114.385">  1  3  2 -1</clus>
<clus scale="   35.506">  1  3  2 -1</clus>
</clustering>
</event>
<event>
 6    0  0.9315069E+002  0.9312895E+02  0.7546771E-02  0.1295447E+00
         21   -1    0    0  506  501  0.00000000000E+00  0.00000000000E+00  0.44359084253E+03  0.44359084253E+03  0.00000000000E+00 0.  1.
         21   -1    0    0  504  502 -0.00000000000E+00 -0.00000000000E+00 -0.32342224972E+03  0.32342224972E+03  0.00000000000E+00 0.  1.
         21    1    1    2  503  502 -0.34666757968E+02  0.40704059235E+01 -0.49251724510E+01  0.35250668590E+02  0.00000000000E+00 0.  1.
         21    1    1    2  504  505 -0.73204420873E+02 -0.11647863815E+02 -0.14209874155E+03  0.16027043494E+03  0.00000000000E+00 0.  1.
         21    1    1    2  505  501  0.10120889142E+03  0.55026208985E+02 -0.12869019834E+03  0.17272026670E+03  0.00000000000E+00 0.  1.
         21    1    1    2  506  503  0.66622874219E+01 -0.47448751093E+02  0.39588270515E+03  0.39877172203E+03  0.00000000000E+00 0.  1.
<scales pt_clust_3="34.90490" pt_clust_4="93.12895" pt_clust_5="14000.00000" pt_clust_6="47.87231"></scales>
<clustering>
<clus scale="   34.905">  2  3  1 -1</clus>
<clus scale="   47.872">  1  6  2 -1</clus>
<clus scale="   93.129">  2  4  1 -1</clus>
<clus scale="   47.872">  1  3  2 -1</clus>
</clustering>
</event>
<event>
 6    0  0.9315069E+002  0.1195460E+03  0.7546771E-02  0.1243848E+00
         21   -1    0    0  506  501  0.00000000000E+00  0.00000000000E+00  0.14679182494E+03  0.14679182494E+03  0.00000000000E+00 0.  1.
         21   -1    0    0  505  502 -0.00000000000E+00 -0.00000000000E+00 -0.57601459214E+03  0.57601459214E+03  0.00000000000E+00 0. -1.
         21    1    1    2  503  504 -0.90711298593E+01 -0.82146142044E+02 -0.17841832651E+03  0.19663004166E+03  0.00000000000E+00 0. -1.
         21    1    1    2  504  502  0.18343746614E+02 -0.41812547250E+02 -0.20374066514E+03  0.20879425466E+03  0.00000000000E+00 0. -1.
         21    1    1    2  505  501  0.81438486462E+02  0.71514827895E+02 -0.14018920445E+03  0.17719935308E+03  0.00000000000E+00 0. -1.
         21    1    1    2  506  503 -0.90711103216E+02  0.52443861398E+02  0.93125428902E+02  0.14018276768E+03  0.00000000000E+00 0.  1.
<scales pt_clust_3="39.83086" pt_clust_4="39.83086" pt_clust_5="106.86264" pt_clust_6="104.78007"></scales>
<clustering>
<clus scale="   39.831">  3  4 -1 -1</clus>
<clus scale="  104.780">  1  6  2 -1</clus>
<clus scale="  106.863">  1  5  2 -1</clus>
<clus scale="  104.780">  1  3  2 -1</clus>
</clustering>
</event>
<event>
 6    0  0.9315069E+002  0.4174038E+03  0.7546771E-02  0.1037915E+00
         21   -1    0    0  505  501  0.00000000000E+00  0.00000000000E+00  0.45117921276E+03  0.45117921276E+03  0.00000000000E+00 0.  1.
         21   -1    0    0  506  502 -0.00000000000E+00 -0.00000000000E+00 -0.21652255586E+04  0.21652255586E+04  0.00000000000E+00 0. -1.
         21    1    1    2  503  504 -0.17064461095E+03  0.33048982087E+03 -0.12828786192E+04  0.13357097950E+04  0.00000000000E+00 0. -1.
         21    1    1    2  504  502 -0.14806202541E+02  0.86664653129E+02 -0.45577287032E+03  0.46417550027E+03  0.00000000000E+00 0. -1.
         21    1    1    2  505  503  0.77320800518E+02 -0.12897652782E+03  0.34248341607E+03  0.37404323441E+03  0.00000000000E+00 0.  1.
         21    1    1    2  506  501  0.10813001298E+03 -0.28817794618E+03 -0.31787827246E+03  0.44247624170E+03  0.00000000000E+00 0. -1.
<scales pt_clust_3="44.20905" pt_clust_4="44.20905" pt_clust_5="150.37769" pt_clust_6="407.37912"></scales>
<clustering>
<clus scale="   44.209">  3  4 -1 -1</clus>
<clus scale="  150.378">  1  5  2 -1</clus>
<clus scale="  407.379">  1  6  2 -1</clus>
<clus scale="  150.378">  1  3  2 -1</clus>
</clustering>
</event>
<event>
 6    0  0.9315069E+002  0.1558208E+03  0.7546771E-02  0.1193497E+00
         21   -1    0    0  505  501  0.00000000000E+00  0.00000000000E+00  0.13960258898E+04  0.13960258898E+04  0.00000000000E+00 0. -1.
         21   -1    0    0  506  502 -0.00000000000E+00 -0.00000000000E+00 -0.11200724190E+03  0.11200724190E+03  0.00000000000E+00 0. -1.
         21    1    1    2  503  502  0.23599635905E+02  0.57179225849E+02 -0.15168303317E+02  0.63690533904E+02  0.00000000000E+00 0. -1.
         21    1    1    2  504  503  0.14412443296E+02 -0.17458371945E+03  0.14612492088E+03  0.22812208600E+03  0.00000000000E+00 0. -1.
         21    1    1    2  505  504 -0.48680062285E+02  0.14608249978E+03  0.11707804389E+04  0.11808626852E+04  0.00000000000E+00 0. -1.
         21    1    1    2  506  501  0.10667983084E+02 -0.28678006172E+02 -0.17718408548E+02  0.35357826609E+02  0.00000000000E+00 0. -1.
<scales pt_clust_3="52.39262" pt_clust_4="14000.00000" pt_clust_5="155.82082" pt_clust_6="30.59794"></scales>
<clustering>
<clus scale="   30.598">  2  6  1 -1</clus>
<clus scale="   52.393">  2  3  1 -1</clus>
<clus scale="  155.821">  1  5  2 -1</clus>
<clus scale="  155.821">  1  3  2 -1</clus>
</clustering>
</event>
<event>
 6    0  0.9315069E+002  0.7437963E+02  0.7546771E-02  0.1345803E+00
         21   -1    0    0  506  501  0.00000000000E+00  0.00000000000E+00  0.17207207155E+04  0.17207207155E+04  0.00000000000E+00 0. -1.
         21   -1    0    0  503  502 -0.00000000000E+00 -0.00000000000E+00 -0.14803319196E+02  0.14803319196E+02  0.00000000000E+00 0. -1.
         21    1    1    2  503  505  0.21037320995E+02 -0.44607928663E+02  0.93277685192E+02  0.10551380350E+03  0.00000000000E+00 0. -1.
         21    1    1    2  504  502 -0.47539046679E+02 -0.22454453699E+02  0.17258860453E+03  0.18041892879E+03  0.00000000000E+00 0. -1.
         21    1    1    2  505  501 -0.36678145871E+02  0.86407561479E+02  0.10278984325E+04  0.10321757315E+04  0.00000000000E+00 0. -1.
         21    1    1    2  506  504  0.63179871555E+02 -0.19345179116E+02  0.41215267403E+03  0.41741557091E+03  0.00000000000E+00 0. -1.
<scales pt_clust_3="49.31973" pt_clust_4="57.09506" pt_clust_5="74.37963" pt_clust_6="14000.00000"></scales>
<clustering>
<clus scale="   49.320">  2  3  1 -1</clus>
<clus scale="   57.095">  2  4  1 -1</clus>
<clus scale="   74.380">  1  5  2 -1</clus>
<clus scale="   74.380">  1  3  2 -1</clus>
</clustering>
</event>
<event>
 6    0  0.9315069E+002  0.8041387E+02  0.7546771E-02  0.1327881E+00
         21   -1    0    0  503  501  0.00000000000E+00  0.00000000000E+00  0.32420487439E+03  0.32420487439E+03  0.00000000000E+00 0. -1.
         21   -1    0    0  506  502 -0.00000000000E+00 -0.00000000000E+00 -0.21532478711E+03  0.21532478711E+03  0.00000000000E+00 0. -1.
         21    1    1    2  503  502  0.11471804718E+03 -0.23626653880E+02  0.11795419205E+03  0.16622767683E+03  0.00000000000E+00 0. -1.
         21    1    1    2  504  501  0.20928525471E+02 -0.35760267479E+02  0.13104915824E+03  0.13744337665E+03  0.00000000000E+00 0. -1.
         21    1    1    2  505  504 -0.79488006689E+02  0.39135691644E+01 -0.54682465652E+01  0.79771930849E+02  0.00000000000E+00 0.  1.
         21    1    1    2  506  505 -0.56158565960E+02  0.55473352195E+02 -0.13465501645E+03  0.15608667717E+03  0.00000000000E+00 0. -1.
<scales pt_clust_3="14000.00000" pt_clust_4="41.43428" pt_clust_5="75.45774" pt_clust_6="80.41387"></scales>
<clustering>
<clus scale="   41.434">  1  4  2 -1</clus>
<clus scale="   75.458">  1  5  2 -1</clus>
<clus scale="   80.414">  2  6  1 -1</clus>
<clus scale="   41.434">  1  3  2 -1</clus>
</clustering>
</event>
<event>
 6    0  0.9315069E+002  0.1454674E+03  0.7546771E-02  0.1206156E+00
         21   -1    0    0  505  501  0.00000000000E+00  0.00000000000E+00  0.45704246812E+02  0.45704246812E+02  0.00000000000E+00 0. -1.
         21   -1    0    0  503  502 -0.00000000000E+00 -0.00000000000E+00 -0.70774283843E+03  0.70774283843E+03  0.00000000000E+00 0. -1.
         21    1    1    2  503  501 -0.54351362739E+02 -0.13343100825E+03 -0.25102029593E+03  0.28942890934E+03  0.00000000000E+00 0. -1.
         21    1    1    2  504  506  0.60827870153E+02  0.13401142912E+03 -0.28373805716E+03  0.31963475719E+03  0.00000000000E+00 0. -1.
         21    1    1    2  505  504 -0.32630596149E+02  0.15574629395E+02 -0.54798986497E+02  0.65652523233E+02  0.00000000000E+00 0. -1.
         21    1    1    2  506  502  0.26154088735E+02 -0.16155050270E+02 -0.72481252033E+02  0.78730895480E+02  0.00000000000E+00 0. -1.
<scales pt_clust_3="145.46737" pt_clust_4="14000.00000" pt_clust_5="33.24669" pt_clust_6="30.74121"></scales>
<clustering>
<clus scale="   30.741">  2  6  1 -1</clus>
<clus scale="   33.247">  1  5  2 -1</clus>
<clus scale="  145.467">  1  3  2 -1</clus>
<clus scale="   33.247">  1  3  2 -1</clus>
</clustering>
</event>
<event>
 6    0  0.9315069E+002  0.1456459E+03  0.7546771E-02  0.1205928E+00
         21   -1    0    0  504  501  0.00000000000E+00  0.00000000000E+00  0.27166938919E+03  0.27166938919E+03  0.00000000000E+00 0.  1.
         21   -1    0    0  503  502 -0.00000000000E+00 -0.00000000000E+00 -0.82303712584E+03  0.82303712584E+03  0.00000000000E+00 0.  1.
         21    1    1    2  503  506 -0.49722430160E+02  0.69900353665E+01 -0.13795101337E+03  0.14680484578E+03  0.00000000000E+00 0.  1.
         21    1    1    2  504  505 -0.19773891579E+02  0.59355312544E+02  0.24307690156E+03  0.25099888444E+03  0.00000000000E+00 0.  1.
         21    1    1    2  505  502  0.13658010858E+03  0.34592754467E+01 -0.36344624483E+03  0.38827730493E+03  0.00000000000E+00 0.  1.
         21    1    1    2  506  501 -0.67083786841E+02 -0.69804623357E+02 -0.29304738002E+03  0.30862547989E+03  0.00000000000E+00 0.  1.
<scales pt_clust_3="45.93166" pt_clust_4="62.56245" pt_clust_5="130.93860" pt_clust_6="45.93166"></scales>
<clustering>
<clus scale="   45.932">  3  6 -1 -1</clus>
<clus scale="   62.562">  1  4  2 -1</clus>
<clus scale="  130.939">  1  5  2 -1</clus>
<clus scale="   62.562">  1  3  2 -1</clus>
</clustering>
</event>
<event>
 6    0  0.9315069E+002  0.8168272E+02  0.7546771E-02  0.1324343E+00
         21   -1    0    0  506  501  0.00000000000E+00  0.00000000000E+00  0.56808218347E+03  0.56808218347E+03  0.00000000000E+00 0.  1.
         21   -1    0    0  505  502 -0.00000000000E+00 -0.00000000000E+00 -0.37331552791E+03  0.37331552791E+03  0.00000000000E+00 0.  1.
         21    1    1    2  503  504  0.17531960517E+02 -0.38018492967E+02 -0.45382429165E+01  0.42111412892E+02  0.00000000000E+00 0. -1.
         21    1    1    2  504  501 -0.27866183509E+02  0.16523975358E+02  0.34487856093E+03  0.34639686450E+03  0.00000000000E+00 0.  1.
         21    1    1    2  505  503  0.46734571871E+00 -0.81164855481E+02 -0.33094892202E+03  0.34075671844E+03  0.00000000000E+00 0.  1.
         21    1    1    2  506  502  0.98668772733E+01  0.10265937309E+03  0.18537525956E+03  0.21213271555E+03  0.00000000000E+00 0.  1.
<scales pt_clust_3="39.64377" pt_clust_4="32.39701" pt_clust_5="14000.00000" pt_clust_6="81.68272"></scales>
<clustering>
<clus scale="   32.397">  1  4  2 -1</clus>
<clus scale="   39.644">  1  3  2 -1</clus>
<clus scale="   81.683">  1  6  2 -1</clus>
<clus scale="   32.397">  1  3  2 -1</clus>
</clustering>
</event>
<event>
 6    0  0.9315069E+002  0.1038751E+03  0.7546771E-02  0.1272352E+00
         21   -1    0    0  505  501  0.00000000000E+00  0.00000000000E+00  0.18739560417E+03  0.18739560417E+03  0.00000000000E+00 0. -1.
         21   -1    0    0  503  502 -0.00000000000E+00 -0.00000000000E+00 -0.56169060957E+03  0.56169060957E+03  0.00000000000E+00 0.  1.
         21    1    1    2  503  501  0.16698440275E+02  0.69579918655E+02  0.12393181904E+02  0.72620891934E+02  0.00000000000E+00 0.  1.
         21    1    1    2  504  506 -0.68861339149E+02  0.56366651507E+01 -0.84343157082E+02  0.10902946469E+03  0.00000000000E+00 0.  1.
         21    1    1    2  505  504  0.10364349858E+03 -0.10142277978E+03  0.90125302153E+02  0.17073700578E+03  0.00000000000E+00 0. -1.
         21    1    1    2  506  502 -0.51480599703E+02  0.26206195974E+02 -0.39247033238E+03  0.39669885134E+03  0.00000000000E+00 0.  1.
<scales pt_clust_3="74.67218" pt_clust_4="103.87509" pt_clust_5="14000.00000" pt_clust_6="57.76692"></scales>
<clustering>
<clus scale="   57.767">  2  6  1 -1</clus>
<clus scale="   74.672">  1  3  2 -1</clus>
<clus scale="  103.875">  2  4  1 -1</clus>
<clus scale="   74.672">  1  3  2 -1</clus>
</clustering>
</event>
<event>
 6    0  0.9315069E+002  0.1070076E+03  0.7546771E-02  0.1266214E+00
         21   -1    0    0  503  501  0.00000000000E+00  0.00000000000E+00  0.18168475580E+04  0.18168475580E+04  0.00000000000E+00 0. -1.
         21   -1    0    0  506  502 -0.00000000000E+00 -0.00000000000E+00 -0.28873743115E+02  0.28873743115E+02  0.00000000000E+00 0. -1.
         21    1    1    2  503  505 -0.22469533595E+02  0.32896936378E+02  0.59872731991E+03  0.60005124112E+03  0.00000000000E+00 0. -1.
         21    1    1    2  504  501  0.25312353658E+02 -0.13168970542E+03  0.77748680714E+03  0.78896681111E+03  0.00000000000E+00 0. -1.
         21    1    1    2  505  502  0.26524638616E+01  0.50312261778E+02  0.40420266372E+03  0.40733052010E+03  0.00000000000E+00 0. -1.
         21    1    1    2  506  504 -0.54952839248E+01  0.48480507264E+02  0.75570240712E+01  0.49372728735E+02  0.00000000000E+00 0. -1.
<scales pt_clust_3="35.93367" pt_clust_4="99.08408" pt_clust_5="35.93367" pt_clust_6="48.79096"></scales>
<clustering>
<clus scale="   35.934">  3  5 -1 -1</clus>
<clus scale="   48.791">  2  6  1 -1</clus>
<clus scale="   99.084">  2  4  1 -1</clus>
<clus scale="  107.008">  1  3  2 -1</clus>
</clustering>
</event>
<event>
 6    0  0.9315069E+002  0.1490346E+03  0.7546771E-02  0.1201664E+00
         21   -1    0    0  506  501  0.00000000000E+00  0.00000000000E+00  0.10701511768E+03  0.10701511768E+03  0.00000000000E+00 0. -1.
         21   -1    0    0  503  502 -0.00000000000E+00 -0.00000000000E+00 -0.88968765953E+03  0.88968765953E+03  0.00000000000E+00 0. -1.
         21    1    1    2  503  505  0.88969047345E+01  0.87107933898E+02 -0.15466320013E+03  0.17772915500E+03  0.00000000000E+00 0. -1.
         21    1    1    2  504  501 -0.30359860644E+02 -0.11445342445E+03 -0.26914573949E+00  0.11841190796E+03  0.00000000000E+00 0. -1.
         21    1    1    2  505  504  0.39591271513E+02  0.13143744952E+03 -0.12120056553E+03  0.18311976682E+03  0.00000000000E+00 0. -1.
         21    1    1    2  506  502 -0.18128315603E+02 -0.10409195897E+03 -0.50653963045E+03  0.51744194744E+03  0.00000000000E+00 0. -1.
<scales pt_clust_3="50.49922" pt_clust_4="134.95691" pt_clust_5="50.49922" pt_clust_6="105.65875"></scales>
<clustering>
<clus scale="   50.499">  3  5 -1 -1</clus>
<clus scale="  105.659">  2  6  1 -1</clus>
<clus scale="  134.957">  1  4  2 -1</clus>
<clus scale="  134.957">  1  3  2 -1</clus>
</clustering>
</event>
<event>
 6    0  0.9315069E+002  0.1947195E+03  0.7546771E-02  0.1154272E+00
         21   -1    0    0  504  501  0.00000000000E+00  0.00000000000E+00  0.12691815232E+03  0.12691815232E+03  0.00000000000E+00 0.  1.
         21   -1    0    0  503  502 -0.00000000000E+00 -0.00000000000E+00 -0.61421479712E+03  0.61421479712E+03  0.00000000000E+00 0. -1.
         21    1    1    2  503  501  0.58288582206E+02 -0.17314520847E+03  0.56405414668E+01  0.18278029911E+03  0.00000000000E+00 0.  1.
         21    1    1    2  504  506 -0.41249660071E+02  0.10750703539E+02 -0.42979744074E+02  0.60534044002E+02  0.00000000000E+00 0.  1.
         21    1    1    2  505  502  0.56871687393E+02  0.38722033692E+02 -0.15281947392E+03  0.16759348535E+03  0.00000000000E+00 0.  1.
         21    1    1    2  506  505 -0.73910609529E+02  0.12367247124E+03 -0.29713796827E+03  0.33022512099E+03  0.00000000000E+00 0. -1.
<scales pt_clust_3="179.53963" pt_clust_4="40.99874" pt_clust_5="68.80251" pt_clust_6="40.99874"></scales>
<clustering>
<clus scale="   40.999">  4  6 -1 -1</clus>
<clus scale="   68.803">  2  5  1 -1</clus>
<clus scale="  179.540">  1  3  2 -1</clus>
<clus scale="  179.540">  1  3  2 -1</clus>
</clustering>
</event>
<event>
 6    0  0.9315069E+002  0.8755403E+02  0.7546771E-02  0.1308885E+00
         21   -1    0    0  505  501  0.00000000000E+00  0.00000000000E+00  0.53691851419E+02  0.53691851419E+02  0.00000000000E+00 0.  1.
         21   -1    0    0  506  502 -0.00000000000E+00 -0.00000000000E+00 -0.11801614450E+04  0.11801614450E+04  0.00000000000E+00 0.  1.
         21    1    1    2  503  504  0.10575412161E+03 -0.55005391980E+01 -0.64436643147E+03  0.65301017464E+03  0.00000000000E+00 0.  1.
         21    1    1    2  504  502 -0.48519716583E+02 -0.28187765494E+02 -0.18774359689E+03  0.19594992012E+03  0.00000000000E+00 0.  1.
         21    1    1    2  505  503 -0.18810030610E+00 -0.81709839405E+02 -0.23535470205E+02  0.85032062159E+02  0.00000000000E+00 0. -1.
         21    1    1    2  506  501 -0.57046304725E+02  0.11539814410E+03 -0.27082409497E+03  0.29986113946E+03  0.00000000000E+00 0.  1.
<scales pt_clust_3="77.70748" pt_clust_4="56.11339" pt_clust_5="87.55403" pt_clust_6="14000.00000"></scales>
<clustering>
<clus scale="   56.113">  2  4  1 -1</clus>
<clus scale="   77.707">  2  3  1 -1</clus>
<clus scale="   87.554">  1  5  2 -1</clus>
<clus scale="   87.554">  1  3  2 -1</clus>
</clustering>
</event>
<event>
 6    0  0.9315069E+002  0.1351665E+03  0.7546771E-02  0.1219985E+00
         21   -1    0    0  506  501  0.00000000000E+00  0.00000000000E+00  0.17957148119E+03  0.17957148119E+03  0.00000000000E+00 0. -1.
         21   -1    0    0  504  502 -0.00000000000E+00 -0.00000000000E+00 -0.31504699369E+03  0.31504699369E+03  0.00000000000E+00 0.  1.
         21    1    1    2  503  502  0.29995289151E+02 -0.98230418838E+01 -0.41560880735E+01  0.31835241340E+02  0.00000000000E+00 0. -1.
         21    1    1    2  504  505 -0.18177661457E+02 -0.32609472314E+02 -0.16792883617E+03  0.17202877398E+03  0.00000000000E+00 0.  1.
         21    1    1    2  505  501 -0.11016486678E+03 -0.32828622375E+02  0.99343046135E+02  0.15193109337E+03  0.00000000000E+00 0. -1.
         21    1    1    2  506  503  0.98347239081E+02  0.75261136573E+02 -0.62733634397E+02  0.13882336618E+03  0.00000000000E+00 0. -1.
<scales pt_clust_3="31.51200" pt_clust_4="37.33370" pt_clust_5="119.89082" pt_clust_6="31.51200"></scales>
<clustering>
<clus scale="   31.512">  3  6 -1 -1</clus>
<clus scale="   37.334">  2  4  1 -1</clus>
<clus scale="  119.891">  1  5  2 -1</clus>
<clus scale="  119.891">  1  3  2 -1</clus>
</clustering>
</event>
<event>
 6    0  0.9315069E+002  0.1838203E+03  0.7546771E-02  0.1164156E+00
         21   -1    0    0  502  501  0.00000000000E+00  0.00000000000E+00  0.53584972373E+03  0.53584972373E+03  0.00000000000E+00 0.  1.
         21   -1    0    0  505  502 -0.00000000000E+00 -0.00000000000E+00 -0.24504850944E+03  0.24504850944E+03  0.00000000000E+00 0. -1.
         21    1    1    2  503  506 -0.74692960832E+02  0.78106565039E+02  0.42253286986E+02  0.11603884764E+03  0.00000000000E+00 0. -1.
         21    1    1    2  504  503 -0.89439965052E+02  0.30888524274E+02  0.80673635704E+02  0.12434566248E+03  0.00000000000E+00 0. -1.
         21    1    1    2  505  504  0.13575034542E+03 -0.99017968365E+02 -0.14757586459E+03  0.22363217602E+03  0.00000000000E+00 0. -1.
         21    1    1    2  506  501  0.28382580460E+02 -0.99771209472E+01  0.31545015619E+03  0.31688154704E+03  0.00000000000E+00 0.  1.
<scales pt_clust_3="56.14460" pt_clust_4="56.14460" pt_clust_5="173.01959" pt_clust_6="30.08511"></scales>
<clustering>
<clus scale="   30.085">  1  6  2 -1</clus>
<clus scale="   56.145">  3  4 -1 -1</clus>
<clus scale="  173.020">  2  5  1 -1</clus>
<clus scale="   30.085">  1  3  2 -1</clus>
</clustering>
</event>
<event>
 6    0  0.9315069E+002  0.9800235E+02  0.7546771E-02  0.1284554E+00
         21   -1    0    0  506  501  0.00000000000E+00  0.00000000000E+00  0.29565802345E+03  0.29565802345E+03  0.00000000000E+00 0.  1.
         21   -1    0    0  503  502 -0.00000000000E+00 -0.00000000000E+00 -0.28200464714E+03  0.28200464714E+03  0.00000000000E+00 0. -1.
         21    1    1    2  503  504  0.32220465605E+02 -0.11203019010E+02 -0.43009944737E+02  0.54895549774E+02  0.00000000000E+00 0.  1.
         21    1    1    2  504  501  0.97659060244E+02  0.80573951303E+01  0.25808018733E+03  0.27605723456E+03  0.00000000000E+00 0.  1.
         21    1    1    2  505  502 -0.32390020029E+02  0.16290827133E+02 -0.22897811813E+02  0.42881397271E+02  0.00000000000E+00 0.  1.
         21    1    1    2  506  505 -0.97489505820E+02 -0.13145203254E+02 -0.17851905447E+03  0.20382848899E+03  0.00000000000E+00 0. -1.
<scales pt_clust_3="34.11255" pt_clust_4="98.00235" pt_clust_5="31.48975" pt_clust_6="14000.00000"></scales>
<clustering>
<clus scale="   34.113">  2  3  1 -1</clus>
<clus scale="   31.490">  2  5  1 -1</clus>
<clus scale="   98.002">  1  4  2 -1</clus>
<clus scale="   98.002">  1  3  2 -1</clus>
</clustering>
</event>
<event>
 6    0  0.9315069E+002  0.2961792E+03  0.7546771E-02  0.1087166E+00
         21   -1    0    0  502  501  0.00000000000E+00  0.00000000000E+00  0.23700059754E+04  0.23700059754E+04  0.00000000000E+00 0.  1.
         21   -1    0    0  504  502 -0.00000000000E+00 -0.00000000000E+00 -0.14248162783E+03  0.14248162783E+03  0.00000000000E+00 0.  1.
         21    1    1    2  503  506 -0.13373212233E+03  0.27212902723E+03  0.32850193313E+03  0.44704810488E+03  0.00000000000E+00 0.  1.
         21    1    1    2  504  503 -0.30251362302E+02 -0.40313169747E+02 -0.54365965800E+02  0.74134707213E+02  0.00000000000E+00 0.  1.
         21    1    1    2  505  501 -0.42192628761E+02  0.25380219461E+02  0.42060604445E+03  0.42347823803E+03  0.00000000000E+00 0.  1.
         21    1    1    2  506  505  0.20617611339E+03 -0.25719607695E+03  0.15327823358E+04  0.15678265532E+04  0.00000000000E+00 0.  1.
<scales pt_clust_3="14000.00000" pt_clust_4="50.42746" pt_clust_5="49.23793" pt_clust_6="296.17921"></scales>
<clustering>
<clus scale="   49.238">  1  5  2 -1</clus>
<clus scale="   50.427">  2  4  1 -1</clus>
<clus scale="  296.179">  1  6  2 -1</clus>
<clus scale="   49.238">  1  3  2 -1</clus>
</clustering>
</event>
<event>
 6    0  0.9315069E+002  0.1352745E+03  0.7546771E-02  0.1219833E+00
         21   -1    0    0  505  501  0.00000000000E+00  0.00000000000E+00  0.24258807575E+04  0.24258807575E+04  0.00000000000E+00 0. -1.
         21   -1    0    0  503  502 -0.00000000000E+00 -0.00000000000E+00 -0.12890078515E+03  0.12890078515E+03  0.00000000000E+00 0. -1.
         21    1    1    2  503  504  0.14134830209E+03  0.59780839678E+02 -0.46044765387E+02  0.16022862327E+03  0.00000000000E+00 0. -1.
         21    1    1    2  504  501 -0.54437344718E+02 -0.37661542067E+02  0.24313503745E+03  0.25198504457E+03  0.00000000000E+00 0. -1.
         21    1    1    2  505  506 -0.58659283845E+02 -0.38686322068E+02  0.21077223703E+04  0.21088933433E+04  0.00000000000E+00 0. -1.
         21    1    1    2  506  502 -0.28251673524E+02  0.16567024457E+02 -0.78326699924E+01  0.33674531555E+02  0.00000000000E+00 0. -1.
<scales pt_clust_3="14000.00000" pt_clust_4="66.77131" pt_clust_5="135.27453" pt_clust_6="32.75093"></scales>
<clustering>
<clus scale="   32.751">  2  6  1 -1</clus>
<clus scale="   66.771">  1  4  2 -1</clus>
<clus scale="  135.275">  1  5  2 -1</clus>
<clus scale="   66.771">  1  3  2 -1</clus>
</clustering>
</event>
<event>
 6    0  0.9315069E+002  0.1331912E+03  0.7546771E-02  0.1222796E+00
         21   -1    0    0  504  501  0.00000000000E+00  0.00000000000E+00  0.45113782247E+02  0.45113782247E+02  0.00000000000E+00 0. -1.
         21   -1    0    0  505  502 -0.00000000000E+00 -0.00000000000E+00 -0.13451937760E+04  0.13451937760E+04  0.00000000000E+00 0.  1.
         21    1    1    2  503  506 -0.58282780787E+02 -0.63535153552E+02 -0.90628246898E+02  0.12508827846E+03  0.00000000000E+00 0. -1.
         21    1    1    2  504  503 -0.47987561614E+01 -0.55938734829E+02 -0.20832602090E+02  0.59884617597E+02  0.00000000000E+00 0. -1.
         21    1    1    2  505  501  0.33209137329E+02  0.51944893602E+01 -0.47903869060E+02  0.58520169111E+02  0.00000000000E+00 0. -1.
         21    1    1    2  506  502  0.29872399620E+02  0.11427939902E+03 -0.11407152757E+04  0.11468144931E+04  0.00000000000E+00 0.  1.
<scales pt_clust_3="50.62616" pt_clust_4="50.62616" pt_clust_5="33.61294" pt_clust_6="119.17103"></scales>
<clustering>
<clus scale="   33.613">  1  5  2 -1</clus>
<clus scale="   50.626">  3  4 -1 -1</clus>
<clus scale="  119.171">  2  6  1 -1</clus>
<clus scale="   33.613">  1  3  2 -1</clus>
</clustering>
</event>
<event>
 6    0  0.9315069E+002  0.1065943E+03  0.7546771E-02  0.1267010E+00
         21   -1    0    0  503  501  0.00000000000E+00  0.00000000000E+00  0.49883964703E+03  0.49883964703E+03  0.00000000000E+00 0.  1.
         21   -1    0    0  505  502 -0.00000000000E+00 -0.00000000000E+00 -0.74222878045E+02  0.74222878045E+02  0.00000000000E+00 0.  1.
         21    1    1    2  503  504  0.72290239079E+02  0.55586933741E+02  0.24822958455E+02  0.94509074354E+02  0.00000000000E+00 0.  1.
         21    1    1    2  504  502  0.28413624962E+02 -0.15608267193E+02 -0.75115424085E+01  0.33277249850E+02  0.00000000000E+00 0.  1.
         21    1    1    2  505  506 -0.17600982215E+02  0.32079448008E+02  0.18092044866E+02  0.40819206837E+02  0.00000000000E+00 0. -1.
         21    1    1    2  506  501 -0.83102881826E+02 -0.72058114555E+02  0.38921330807E+03  0.40445699403E+03  0.00000000000E+00 0.  1.
<scales pt_clust_3="106.59434" pt_clust_4="32.41839" pt_clust_5="31.03490" pt_clust_6="14000.00000"></scales>
<clustering>
<clus scale="   32.418">  2  4  1 -1</clus>
<clus scale="   31.035">  2  5  1 -1</clus>
<clus scale="  106.594">  2  3  1 -1</clus>
<clus scale="  106.594">  1  3  2 -1</clus>
</clustering>
</event>
<event>
 6    0  0.9315069E+002  0.1695579E+03  0.7546771E-02  0.1178310E+00
         21   -1    0    0  505  501  0.00000000000E+00  0.00000000000E+00  0.26040948261E+03  0.26040948261E+03  0.00000000000E+00 0.  1.
         21   -1    0    0  501  502 -0.00000000000E+00 -0.00000000000E+00 -0.32498800654E+03  0.32498800654E+03  0.00000000000E+00 0. -1.
         21    1    1    2  503  506  0.21425682468E+02  0.41148414980E+02 -0.99882402240E+01  0.47455419789E+02  0.00000000000E+00 0. -1.
         21    1    1    2  504  503  0.14851947959E+03 -0.18060827485E+00 -0.14900694708E+03  0.21038331377E+03  0.00000000000E+00 0. -1.
         21    1    1    2  505  504 -0.15804284816E+03 -0.79434526842E+02  0.16782699303E+03  0.24383044416E+03  0.00000000000E+00 0.  1.
         21    1    1    2  506  502 -0.11902313896E+02  0.38466720137E+02 -0.73410329662E+02  0.83728311432E+02  0.00000000000E+00 0. -1.
<scales pt_clust_3="49.83788" pt_clust_4="14000.00000" pt_clust_5="169.55794" pt_clust_6="40.26604"></scales>
<clustering>
<clus scale="   40.266">  2  6  1 -1</clus>
<clus scale="   49.838">  2  3  1 -1</clus>
<clus scale="  169.558">  1  5  2 -1</clus>
<clus scale="  169.558">  1  3  2 -1</clus>
</clustering>
</event>
<event>
 6    0  0.9315069E+002  0.8013366E+02  0.7546771E-02  0.1328673E+00
         21   -1    0    0  503  501  0.00000000000E+00  0.00000000000E+00  0.43128274242E+02  0.43128274242E+02  0.00000000000E+00 0. -1.
         21   -1    0    0  506  502 -0.00000000000E+00 -0.00000000000E+00 -0.85455616919E+03  0.85455616919E+03  0.00000000000E+00 0. -1.
         21    1    1    2  503  504 -0.33345944018E+02  0.88271680987E+02 -0.18768654248E+03  0.21007160654E+03  0.00000000000E+00 0. -1.
         21    1    1    2  504  502  0.86150843269E+02  0.33449796182E+02 -0.39036833397E+03  0.40115868784E+03  0.00000000000E+00 0. -1.
         21    1    1    2  505  501 -0.10682129586E+02 -0.77246475846E+02 -0.48825220591E+02  0.92005587270E+02  0.00000000000E+00 0. -1.
         21    1    1    2  506  505 -0.42122769665E+02 -0.44475001323E+02 -0.18454779790E+03  0.19444856177E+03  0.00000000000E+00 0. -1.
<scales pt_clust_3="14000.00000" pt_clust_4="61.48228" pt_clust_5="80.13366" pt_clust_6="61.25646"></scales>
<clustering>
<clus scale="   61.256">  2  6  1 -1</clus>
<clus scale="   61.482">  2  4  1 -1</clus>
<clus scale="   80.134">  1  5  2 -1</clus>
<clus scale="   80.134">  1  3  2 -1</clus>
</clustering>
</event>
<event>
 6    0  0.9315069E+002  0.1005063E+03  0.7546771E-02  0.1279235E+00
         21   -1    0    0  504  501  0.00000000000E+00  0.00000000000E+00  0.59866460283E+03  0.59866460283E+03  0.00000000000E+00 0.  1.
         21   -1    0    0  505  502 -0.00000000000E+00 -0.00000000000E+00 -0.14831567407E+03  0.14831567407E+03  0.00000000000E+00 0.  1.
         21    1    1    2  503  501 -0.58010347337E+01  0.72720836305E+02  0.10274520763E+03  0.12601011756E+03  0.00000000000E+00 0.  1.
         21    1    1    2  504  506 -0.85531785942E+01  0.36851057349E+02  0.42970299556E+03  0.43136506777E+03  0.00000000000E+00 0.  1.
         21    1    1    2  505  503  0.44526547323E+02  0.92102317241E+01 -0.38329245884E+02  0.59469091762E+02  0.00000000000E+00 0.  1.
         21    1    1    2  506  502 -0.30172333996E+02 -0.11878212538E+03 -0.43770028541E+02  0.13013599981E+03  0.00000000000E+00 0.  1.
<scales pt_clust_3="14000.00000" pt_clust_4="37.83064" pt_clust_5="45.47404" pt_clust_6="100.50633"></scales>
<clustering>
<clus scale="   37.831">  1  4  2 -1</clus>
<clus scale="   45.474">  2  5  1 -1</clus>
<clus scale="  100.506">  2  6  1 -1</clus>
<clus scale="   37.831">  1  3  2 -1</clus>
</clustering>
</event>
<event>
 6    0  0.9315069E+002  0.1623800E+03  0.7546771E-02  0.1186036E+00
         21   -1    0    0  504  501  0.00000000000E+00  0.00000000000E+00  0.50899873451E+03  0.50899873451E+03  0.00000000000E+00 0.  1.
         21   -1    0    0  506  502 -0.00000000000E+00 -0.00000000000E+00 -0.28113598568E+03  0.28113598568E+03  0.00000000000E+00 0.  1.
         21    1    1    2  503  505  0.83479619481E+02  0.13610586075E+03  0.18310870833E+03  0.24294536683E+03  0.00000000000E+00 0. -1.
         21    1    1    2  504  503 -0.20371287810E+02 -0.37145691175E+02  0.83896191072E+02  0.93985970316E+02  0.00000000000E+00 0. -1.
         21    1    1    2  505  502 -0.18245400283E+03 -0.14128035916E+03  0.11160473878E+03  0.25633029621E+03  0.00000000000E+00 0.  1.
         21    1    1    2  506  501  0.11934567116E+03  0.42320189584E+02 -0.15074688935E+03  0.19687308683E+03  0.00000000000E+00 0.  1.
<scales pt_clust_3="162.37995" pt_clust_4="42.36498" pt_clust_5="14000.00000" pt_clust_6="124.90078"></scales>
<clustering>
<clus scale="   42.365">  1  4  2 -1</clus>
<clus scale="  124.901">  2  6  1 -1</clus>
<clus scale="  162.380">  1  3  2 -1</clus>
<clus scale="   42.365">  1  3  2 -1</clus>
</clustering>
</event>
<event>
 6    0  0.9315069E+002  0.2460413E+03  0.7546771E-02  0.1115832E+00
         21   -1    0    0  506  501  0.00000000000E+00  0.00000000000E+00  0.93510148449E+02  0.93510148449E+02  0.00000000000E+00 0. -1.
         21   -1    0    0  503  502 -0.00000000000E+00 -0.00000000000E+00 -0.22969467951E+04  0.22969467951E+04  0.00000000000E+00 0. -1.
         21    1    1    2  503  505  0.20088051774E+03  0.15931954525E+03 -0.11401216419E+04  0.11685944798E+04  0.00000000000E+00 0. -1.
         21    1    1    2  504  502 -0.32252054000E+02 -0.15286482729E+03 -0.72485244101E+03  0.74149774892E+03  0.00000000000E+00 0. -1.
         21    1    1    2  505  501 -0.12390510314E+03  0.75012723162E+02 -0.17117619319E+02  0.14585059517E+03  0.00000000000E+00 0. -1.
         21    1    1    2  506  504 -0.44723360607E+02 -0.81467441113E+02 -0.32134494443E+03  0.33451411967E+03  0.00000000000E+00 0. -1.
<scales pt_clust_3="241.04061" pt_clust_4="38.06500" pt_clust_5="144.84262" pt_clust_6="38.06500"></scales>
<clustering>
<clus scale="   38.065">  4  6 -1 -1</clus>
<clus scale="  144.843">  1  5  2 -1</clus>
<clus scale="  241.041">  2  3  1 -1</clus>
<clus scale="  144.843">  1  3  2 -1</clus>
</clustering>
</event>
<event>
 6    0  0.9315069E+002  0.6875725E+02  0.7546771E-02  0.1364371E+00
         21   -1    0    0  505  501  0.00000000000E+00  0.00000000000E+00  0.11315191459E+04  0.11315191459E+04  0.00000000000E+00 0. -1.
         21   -1    0    0  504  502 -0.00000000000E+00 -0.00000000000E+00 -0.98852378148E+02  0.98852378148E+02  0.00000000000E+00 0. -1.
         21    1    1    2  503  502  0.53986846324E+02  0.66136460776E+02  0.20307781936E+03  0.22029346730E+03  0.00000000000E+00 0. -1.
         21    1    1    2  504  501 -0.38759411234E+02 -0.55477057960E+02 -0.68031258646E+02  0.95959616881E+02  0.00000000000E+00 0. -1.
         21    1    1    2  505  506 -0.19136621397E+02  0.47183991415E+02  0.79198245602E+03  0.79361750861E+03  0.00000000000E+00 0. -1.
         21    1    1    2  506  503  0.39091863062E+01 -0.57843394231E+02  0.10563775102E+03  0.12050093126E+03  0.00000000000E+00 0. -1.
<scales pt_clust_3="14000.00000" pt_clust_4="68.75725" pt_clust_5="50.91698" pt_clust_6="42.16563"></scales>
<clustering>
<clus scale="   50.917">  1  5  2 -1</clus>
<clus scale="   42.166">  1  6  2 -1</clus>
<clus scale="   68.757">  2  4  1 -1</clus>
<clus scale="   50.917">  1  3  2 -1</clus>
</clustering>
</event>
<event>
 6    0  0.9315069E+002  0.1023749E+03  0.7546771E-02  0.1275380E+00
         21   -1    0    0  504  501  0.00000000000E+00  0.00000000000E+00  0.79559935557E+03  0.79559935557E+03  0.00000000000E+00 0. -1.
         21   -1    0    0  505  502 -0.00000000000E+00 -0.00000000000E+00 -0.12252459085E+03  0.12252459085E+03  0.00000000000E+00 0.  1.
         21    1    1    2  503  502 -0.82579680127E+02  0.71580417607E+02 -0.80812617745E+02  0.13591850110E+03  0.00000000000E+00 0.  1.
         21    1    1    2  504  503  0.48286165963E+02  0.11639605169E+02  0.56043652663E+02  0.74886081722E+02  0.00000000000E+00 0. -1.
         21    1    1    2  505  506  0.38401879657E+02 -0.37486396085E+02  0.19087936953E+03  0.19827977195E+03  0.00000000000E+00 0. -1.
         21    1    1    2  506  501 -0.41083654925E+01 -0.45733626691E+02  0.50696436027E+03  0.50903959165E+03  0.00000000000E+00 0. -1.
<scales pt_clust_3="14000.00000" pt_clust_4="47.36695" pt_clust_5="102.37489" pt_clust_6="45.91779"></scales>
<clustering>
<clus scale="   45.918">  1  6  2 -1</clus>
<clus scale="   47.367">  1  4  2 -1</clus>
<clus scale="  102.375">  1  5  2 -1</clus>
<clus scale="   45.918">  1  3  2 -1</clus>
</clustering>
</event>
<event>
 6    0  0.9315069E+002  0.1220148E+03  0.7546771E-02  0.1239810E+00
         21   -1    0    0  503  501  0.00000000000E+00  0.00000000000E+00  0.66804825504E+02  0.66804825504E+02  0.00000000000E+00 0.  1.
         21   -1    0    0  504  502 -0.00000000000E+00 -0.00000000000E+00 -0.25833320605E+04  0.25833320605E+04  0.00000000000E+00 0. -1.
         21    1    1    2  503  505  0.28052353996E+02  0.53722501323E+02 -0.23606352784E+03  0.24371916397E+03  0.00000000000E+00 0.  1.
         21    1    1    2  504  501  0.97746429459E+02 -0.39903587238E+02  0.99541561631E+01  0.10604596160E+03  0.00000000000E+00 0.  1.
         21    1    1    2  505  506 -0.87266279486E+01  0.45942339281E+02 -0.18375024270E+03  0.18960750055E+03  0.00000000000E+00 0.  1.
         21    1    1    2  506  502 -0.11707215551E+03 -0.59761253366E+02 -0.21066676206E+04  0.21107642599E+04  0.00000000000E+00 0. -1.
<scales pt_clust_3="30.70465" pt_clust_4="105.57775" pt_clust_5="30.70465" pt_clust_6="116.90069"></scales>
<clustering>
<clus scale="   30.705">  3  5 -1 -1</clus>
<clus scale="  105.578">  1  4  2 -1</clus>
<clus scale="  116.901">  2  6  1 -1</clus>
<clus scale="  105.578">  1  3  2 -1</clus>
</clustering>
</event>
<event>
 6    0  0.9315069E+002  0.1065156E+03  0.7546771E-02  0.1267162E+00
         21   -1    0    0  506  501  0.00000000000E+00  0.00000000000E+00  0.11076641173E+04  0.11076641173E+04  0.00000000000E+00 0.  1.
         21   -1    0    0  503  502 -0.00000000000E+00 -0.00000000000E+00 -0.50618419182E+02  0.50618419182E+02  0.00000000000E+00 0. -1.
         21    1    1    2  503  501 -0.40050790855E+02  0.54964784962E+01  0.54285492433E+02  0.67684502012E+02  0.00000000000E+00 0.  1.
         21    1    1    2  504  505 -0.53352410835E+02 -0.57183900790E+02  0.23409447055E+03  0.24681308595E+03  0.00000000000E+00 0.  1.
         21    1    1    2  505  502  0.10875043328E+03  0.88953430094E+02  0.96577131045E+02  0.17048903691E+03  0.00000000000E+00 0. -1.
         21    1    1    2  506  504 -0.15347231592E+02 -0.37266007800E+02  0.67208860410E+03  0.67329591163E+03  0.00000000000E+00 0.  1.
<scales pt_clust_3="42.20342" pt_clust_4="14000.00000" pt_clust_5="106.51561" pt_clust_6="40.30252"></scales>
<clustering>
<clus scale="   40.303">  1  6  2 -1</clus>
<clus scale="   42.203">  2  3  1 -1</clus>
<clus scale="  106.516">  2  5  1 -1</clus>
<clus scale="   40.303">  1  3  2 -1</clus>
</clustering>
</event>
<event>
 6    0  0.9315069E+002  0.9006873E+02  0.7546771E-02  0.1302685E+00
         21   -1    0    0  506  501  0.00000000000E+00  0.00000000000E+00  0.55229171425E+03  0.55229171425E+03  0.00000000000E+00 0.  1.
         21   -1    0    0  503  502 -0.00000000000E+00 -0.00000000000E+00 -0.91333641147E+02  0.91333641147E+02  0.00000000000E+00 0. -1.
         21    1    1    2  503  505  0.56805634445E+01  0.11498412362E+03  0.51714777254E+01  0.11524045152E+03  0.00000000000E+00 0. -1.
         21    1    1    2  504  502  0.36193306120E+02 -0.14449590976E+02 -0.10725565584E+02  0.40420092088E+02  0.00000000000E+00 0.  1.
         21    1    1    2  505  501 -0.17468798263E+01 -0.53150534762E+02  0.36583485214E+03  0.36967982089E+03  0.00000000000E+00 0.  1.
         21    1    1    2  506  504 -0.40126989738E+02 -0.47383997877E+02  0.10067730882E+03  0.11828499090E+03  0.00000000000E+00 0.  1.
<scales pt_clust_3="14000.00000" pt_clust_4="38.97109" pt_clust_5="53.57739" pt_clust_6="90.06873"></scales>
<clustering>
<clus scale="   38.971">  2  4  1 -1</clus>
<clus scale="   53.577">  1  5  2 -1</clus>
<clus scale="   90.069">  1  6  2 -1</clus>
<clus scale="   53.577">  1  3  2 -1</clus>
</clustering>
</event>
<event>
 6    0  0.9315069E+002  0.1260590E+03  0.7546771E-02  0.1233423E+00
         21   -1    0    0  503  501  0.00000000000E+00  0.00000000000E+00  0.16649611693E+04  0.16649611693E+04  0.00000000000E+00 0.  1.
         21   -1    0    0  506  502 -0.00000000000E+00 -0.00000000000E+00 -0.22301232757E+03  0.22301232757E+03  0.00000000000E+00 0. -1.
         21    1    1    2  503  502  0.66715392854E+02  0.39226509584E+02  0.41890576524E+02  0.88002744840E+02  0.00000000000E+00 0.  1.
         21    1    1    2  504  501 -0.60699325118E+02 -0.12047598486E+03  0.13378892702E+04  0.13446734066E+04  0.00000000000E+00 0.  1.
         21    1    1    2  505  504 -0.34093770311E+02  0.67861042463E+02  0.25186617821E+03  0.26306667973E+03  0.00000000000E+00 0.  1.
         21    1    1    2  506  505  0.28077702576E+02  0.13388432808E+02 -0.18969718323E+03  0.19223066572E+03  0.00000000000E+00 0. -1.
<scales pt_clust_3="14000.00000" pt_clust_4="126.05902" pt_clust_5="76.02647" pt_clust_6="31.10639"></scales>
<clustering>
<clus scale="   31.106">  2  6  1 -1</clus>
<clus scale="   76.026">  2  5  1 -1</clus>
<clus scale="  126.059">  1  4  2 -1</clus>
<clus scale="  126.059">  1  3  2 -1</clus>
</clustering>
</event>
<event>
 6    0  0.9315069E+002  0.1025822E+03  0.7546771E-02  0.1274958E+00
         21   -1    0    0  506  501  0.00000000000E+00  0.00000000000E+00  0.15776105290E+04  0.15776105290E+04  0.00000000000E+00 0.  1.
         21   -1    0    0  504  502 -0.00000000000E+00 -0.00000000000E+00 -0.38687282856E+02  0.38687282856E+02  0.00000000000E+00 0. -1.
         21    1    1    2  503  502 -0.98263545289E+02  0.17214226457E+02  0.76863438767E+03  0.77508120596E+03  0.00000000000E+00 0.  1.
         21    1    1    2  504  505  0.97750617004E+02  0.36063389982E+02  0.48658629165E+02  0.11499310159E+03  0.00000000000E+00 0. -1.
         21    1    1    2  505  501 -0.18867464288E+02 -0.23856242326E+02  0.12860735713E+03  0.13215503704E+03  0.00000000000E+00 0. -1.
         21    1    1    2  506  503  0.19380392572E+02 -0.29421374113E+02  0.59302287214E+03  0.59406846722E+03  0.00000000000E+00 0.  1.
<scales pt_clust_3="102.58224" pt_clust_4="14000.00000" pt_clust_5="30.41548" pt_clust_6="40.89756"></scales>
<clustering>
<clus scale="   30.415">  1  5  2 -1</clus>
<clus scale="   40.898">  1  6  2 -1</clus>
<clus scale="  102.582">  1  3  2 -1</clus>
<clus scale="   30.415">  1  3  2 -1</clus>
</clustering>
</event>
<event>
 6    0  0.1588196E+003  0.1596102E+03  0.7546771E-02  0.1189138E+00
         21   -1    0    0  504  501  0.00000000000E+00  0.00000000000E+00  0.97690649989E+03  0.97690649989E+03  0.00000000000E+00 0. -1.
         21   -1    0    0  506  502 -0.00000000000E+00 -0.00000000000E+00 -0.26894450992E+04  0.26894450992E+04  0.00000000000E+00 0.  1.
         21    1    1    2  503  501  0.33591613141E+02 -0.41580830374E+02  0.93619915706E+03  0.93772395917E+03  0.00000000000E+00 0. -1.
         21    1    1    2  504  502  0.98825428311E+02  0.49325269334E+02 -0.76550928068E+02  0.13438560959E+03  0.00000000000E+00 0. -1.
         21    1    1    2  505  503  0.27145113480E+02 -0.58223933996E+02 -0.11798305807E+03  0.13433869758E+03  0.00000000000E+00 0. -1.
         21    1    1    2  506  505 -0.15956215493E+03  0.50479495036E+02 -0.24542037702E+04  0.24599033327E+04  0.00000000000E+00 0.  1.
<scales pt_clust_3="53.45430" pt_clust_4="14000.00000" pt_clust_5="74.90858" pt_clust_6="159.61018"></scales>
<clustering>
<clus scale="   53.454">  1  3  2 -1</clus>
<clus scale="   74.909">  1  5  2 -1</clus>
<clus scale="  159.610">  2  6  1 -1</clus>
<clus scale="   53.454">  1  3  2 -1</clus>
</clustering>
</event>
<event>
 6    0  0.9315069E+002  0.9649786E+02  0.7546771E-02  0.1287838E+00
         21   -1    0    0  504  501  0.00000000000E+00  0.00000000000E+00  0.53957372216E+02  0.53957372216E+02  0.00000000000E+00 0.  1.
         21   -1    0    0  503  502 -0.00000000000E+00 -0.00000000000E+00 -0.13475735507E+04  0.13475735507E+04  0.00000000000E+00 0.  1.
         21    1    1    2  503  506  0.10463945300E+03 -0.44137564629E+02 -0.47496966543E+03  0.48835819110E+03  0.00000000000E+00 0.  1.
         21    1    1    2  504  505  0.31755491312E+02 -0.43727003415E+02 -0.78354038205E+02  0.95183072860E+02  0.00000000000E+00 0.  1.
         21    1    1    2  505  502 -0.32316957030E+02  0.40697179356E+01 -0.66265216423E+03  0.66345221310E+03  0.00000000000E+00 0.  1.
         21    1    1    2  506  501 -0.10407798728E+03  0.83794850109E+02 -0.77640310655E+02  0.15453744588E+03  0.00000000000E+00 0.  1.
<scales pt_clust_3="96.49786" pt_clust_4="51.30522" pt_clust_5="32.57220" pt_clust_6="14000.00000"></scales>
<clustering>
<clus scale="   32.572">  2  5  1 -1</clus>
<clus scale="   51.305">  1  4  2 -1</clus>
<clus scale="   96.498">  2  3  1 -1</clus>
<clus scale="   51.305">  1  3  2 -1</clus>
</clustering>
</event>
<event>
 6    0  0.9315069E+002  0.1989054E+03  0.7546771E-02  0.1150666E+00
         21   -1    0    0  505  501  0.00000000000E+00  0.00000000000E+00  0.99539510529E+03  0.99539510529E+03  0.00000000000E+00 0.  1.
         21   -1    0    0  506  502 -0.00000000000E+00 -0.00000000000E+00 -0.57398632541E+02  0.57398632541E+02  0.00000000000E+00 0. -1.
         21    1    1    2  503  504  0.30067576077E+02 -0.10562177635E+03  0.71973597611E+02  0.13130200883E+03  0.00000000000E+00 0. -1.
         21    1    1    2  504  501  0.28681857956E+02  0.17819111170E+02  0.13960138299E+03  0.14362700244E+03  0.00000000000E+00 0. -1.
         21    1    1    2  505  502 -0.81550065390E+02  0.16626031584E+03  0.59466450924E+03  0.62283126474E+03  0.00000000000E+00 0.  1.
         21    1    1    2  506  503  0.22800631357E+02 -0.78457650660E+02  0.13175698292E+03  0.15503346182E+03  0.00000000000E+00 0. -1.
<scales pt_clust_3="52.99360" pt_clust_4="33.76640" pt_clust_5="189.10790" pt_clust_6="52.99360"></scales>
<clustering>
<clus scale="   33.766">  1  4  2 -1</clus>
<clus scale="   52.994">  3  6 -1 -1</clus>
<clus scale="  189.108">  1  5  2 -1</clus>
<clus scale="   33.766">  1  3  2 -1</clus>
</clustering>
</event>
<event>
 6    0  0.9315069E+002  0.1050412E+03  0.7546771E-02  0.1270038E+00
         21   -1    0    0  503  501  0.00000000000E+00  0.00000000000E+00  0.23691452676E+03  0.23691452676E+03  0.00000000000E+00 0.  1.
         21   -1    0    0  505  502 -0.00000000000E+00 -0.00000000000E+00 -0.22245695021E+04  0.22245695021E+04  0.00000000000E+00 0.  1.
         21    1    1    2  503  504  0.35088060543E+02  0.13385047458E+03  0.93004373688E+02  0.16672412862E+03  0.00000000000E+00 0.  1.
         21    1    1    2  504  502 -0.39412555926E+02 -0.67751781823E+02 -0.87372770039E+02  0.11737825373E+03  0.00000000000E+00 0.  1.
         21    1    1    2  505  506  0.45446138519E+01 -0.34576932763E+02 -0.20824850347E+04  0.20827770254E+04  0.00000000000E+00 0.  1.
         21    1    1    2  506  501 -0.22011846940E+00 -0.31521759993E+02  0.89198455785E+02  0.94604621027E+02  0.00000000000E+00 0.  1.
<scales pt_clust_3="105.04120" pt_clust_4="14000.00000" pt_clust_5="34.90575" pt_clust_6="31.52253"></scales>
<clustering>
<clus scale="   31.523">  1  6  2 -1</clus>
<clus scale="   34.906">  2  5  1 -1</clus>
<clus scale="  105.041">  1  3  2 -1</clus>
<clus scale="   31.523">  1  3  2 -1</clus>
</clustering>
</event>
<event>
 6    0  0.9315069E+002  0.1252638E+03  0.7546771E-02  0.1234658E+00
         21   -1    0    0  504  501  0.00000000000E+00  0.00000000000E+00  0.20761685923E+04  0.20761685923E+04  0.00000000000E+00 0. -1.
         21   -1    0    0  503  502 -0.00000000000E+00 -0.00000000000E+00 -0.50815948643E+03  0.50815948643E+03  0.00000000000E+00 0. -1.
         21    1    1    2  503  505 -0.10614322624E+03  0.37961330517E+02 -0.19732041436E+02  0.11444125371E+03  0.00000000000E+00 0. -1.
         21    1    1    2  504  506  0.14162325792E+03 -0.73756344286E+02  0.19006853848E+04  0.19073809472E+04  0.00000000000E+00 0. -1.
         21    1    1    2  505  501 -0.53758197592E+02 -0.18731048011E+02  0.11626875827E+03  0.12945740658E+03  0.00000000000E+00 0. -1.
         21    1    1    2  506  502  0.18278165905E+02  0.54526061779E+02 -0.42921299577E+03  0.43304847131E+03  0.00000000000E+00 0. -1.
<scales pt_clust_3="125.26384" pt_clust_4="14000.00000" pt_clust_5="56.92799" pt_clust_6="57.47392"></scales>
<clustering>
<clus scale="   56.928">  1  5  2 -1</clus>
<clus scale="   57.474">  2  6  1 -1</clus>
<clus scale="  125.264">  2  3  1 -1</clus>
<clus scale="   56.928">  1  3  2 -1</clus>
</clustering>
</event>
<event>
 6    0  0.9315069E+002  0.2742438E+03  0.7546771E-02  0.1098875E+00
         21   -1    0    0  502  501  0.00000000000E+00  0.00000000000E+00  0.19929498760E+03  0.19929498760E+03  0.00000000000E+00 0.  1.
         21   -1    0    0  504  502 -0.00000000000E+00 -0.00000000000E+00 -0.14495349299E+04  0.14495349299E+04  0.00000000000E+00 0. -1.
         21    1    1    2  503  506  0.11295597315E+03  0.60820753807E+02 -0.13843693369E+03  0.18874056420E+03  0.00000000000E+00 0.  1.
         21    1    1    2  504  505 -0.13216272279E+03 -0.25235535000E+03 -0.91706835970E+03  0.96029400931E+03  0.00000000000E+00 0. -1.
         21    1    1    2  505  503  0.23359505688E+01  0.26916980668E+03 -0.27643052293E+03  0.38583892429E+03  0.00000000000E+00 0.  1.
         21    1    1    2  506  501  0.16870799066E+02 -0.77635210487E+02  0.81695873991E+02  0.11395641972E+03  0.00000000000E+00 0.  1.
<scales pt_clust_3="124.29765" pt_clust_4="274.24377" pt_clust_5="14000.00000" pt_clust_6="79.44715"></scales>
<clustering>
<clus scale="   79.447">  1  6  2 -1</clus>
<clus scale="  124.298">  1  3  2 -1</clus>
<clus scale="  274.244">  2  4  1 -1</clus>
<clus scale="   79.447">  1  3  2 -1</clus>
</clustering>
</event>
<event>
 6    0  0.9315069E+002  0.9930425E+02  0.7546771E-02  0.1281766E+00
         21   -1    0    0  504  501  0.00000000000E+00  0.00000000000E+00  0.16959144867E+03  0.16959144867E+03  0.00000000000E+00 0. -1.
         21   -1    0    0  506  502 -0.00000000000E+00 -0.00000000000E+00 -0.10522038647E+04  0.10522038647E+04  0.00000000000E+00 0.  1.
         21    1    1    2  503  502  0.29668231889E+02  0.24180545629E+02 -0.89749438865E+03  0.89831012486E+03  0.00000000000E+00 0.  1.
         21    1    1    2  504  503  0.28908205705E+02  0.86219253331E+02 -0.77050173017E+02  0.11918965208E+03  0.00000000000E+00 0.  1.
         21    1    1    2  505  501 -0.88207332761E+02 -0.57277311522E+02  0.97239802052E+02  0.14323687748E+03  0.00000000000E+00 0. -1.
         21    1    1    2  506  505  0.29630895167E+02 -0.53122487438E+02 -0.53076564537E+01  0.61058658984E+02  0.00000000000E+00 0. -1.
<scales pt_clust_3="38.27405" pt_clust_4="99.30425" pt_clust_5="14000.00000" pt_clust_6="59.94462"></scales>
<clustering>
<clus scale="   38.274">  2  3  1 -1</clus>
<clus scale="   59.945">  2  6  1 -1</clus>
<clus scale="   99.304">  2  4  1 -1</clus>
<clus scale="   99.304">  1  3  2 -1</clus>
</clustering>
</event>
<event>
 6    0  0.9315069E+002  0.1036844E+03  0.7546771E-02  0.1272734E+00
         21   -1    0    0  502  501  0.00000000000E+00  0.00000000000E+00  0.65445484136E+02  0.65445484136E+02  0.00000000000E+00 0.  1.
         21   -1    0    0  505  502 -0.00000000000E+00 -0.00000000000E+00 -0.53877687361E+03  0.53877687361E+03  0.00000000000E+00 0.  1.
         21    1    1    2  503  504  0.87767106188E+01 -0.45120706833E+02 -0.11858853654E+03  0.12718549380E+03  0.00000000000E+00 0.  1.
         21    1    1    2  504  501  0.50953607614E+02  0.43646080641E+02  0.20139793216E+02  0.70048995389E+02  0.00000000000E+00 0.  1.
         21    1    1    2  505  506 -0.83581109802E+01  0.68004259092E+02 -0.11514622447E+03  0.13398914241E+03  0.00000000000E+00 0.  1.
         21    1    1    2  506  503 -0.51372207253E+02 -0.66529632900E+02 -0.25973642168E+03  0.27299872615E+03  0.00000000000E+00 0.  1.
<scales pt_clust_3="38.69115" pt_clust_4="67.09136" pt_clust_5="89.51528" pt_clust_6="38.69115"></scales>
<clustering>
<clus scale="   38.691">  3  6 -1 -1</clus>
<clus scale="   67.091">  1  4  2 -1</clus>
<clus scale="   89.515">  2  5  1 -1</clus>
<clus scale="   67.091">  1  3  2 -1</clus>
</clustering>
</event>
<event>
 6    0  0.9315069E+002  0.1677225E+03  0.7546771E-02  0.1180244E+00
         21   -1    0    0  503  501  0.00000000000E+00  0.00000000000E+00  0.14572878630E+03  0.14572878630E+03  0.00000000000E+00 0. -1.
         21   -1    0    0  505  502 -0.00000000000E+00 -0.00000000000E+00 -0.81331232964E+03  0.81331232964E+03  0.00000000000E+00 0. -1.
         21    1    1    2  503  504  0.10134948422E+03  0.33290450475E+02 -0.75125980689E+02  0.13047561082E+03  0.00000000000E+00 0. -1.
         21    1    1    2  504  506 -0.11524142449E+03 -0.87171051183E+02 -0.59824799148E+03  0.61545108449E+03  0.00000000000E+00 0. -1.
         21    1    1    2  505  501  0.53144329800E+02  0.58253613281E+02  0.90268939008E+02  0.11985943684E+03  0.00000000000E+00 0. -1.
         21    1    1    2  506  502 -0.39252389522E+02 -0.43730125738E+01 -0.84478510173E+02  0.93254983799E+02  0.00000000000E+00 0. -1.
<scales pt_clust_3="155.66210" pt_clust_4="32.65008" pt_clust_5="78.85305" pt_clust_6="32.65008"></scales>
<clustering>
<clus scale="   32.650">  4  6 -1 -1</clus>
<clus scale="   78.853">  1  5  2 -1</clus>
<clus scale="  155.662">  1  3  2 -1</clus>
<clus scale="   78.853">  1  3  2 -1</clus>
</clustering>
</event>
<event>
 6    0  0.9315069E+002  0.1770650E+03  0.7546771E-02  0.1170674E+00
         21   -1    0    0  504  501  0.00000000000E+00  0.00000000000E+00  0.27906453355E+03  0.27906453355E+03  0.00000000000E+00 0.  1.
         21   -1    0    0  501  502 -0.00000000000E+00 -0.00000000000E+00 -0.21152808551E+03  0.21152808551E+03  0.00000000000E+00 0.  1.
         21    1    1    2  503  502 -0.41451163227E+01 -0.47348239175E+02 -0.58160138058E+02  0.75110847427E+02  0.00000000000E+00 0.  1.
         21    1    1    2  504  505  0.98866993351E+01 -0.42399253157E+02  0.41231527231E+02  0.59962340930E+02  0.00000000000E+00 0.  1.
         21    1    1    2  505  506 -0.70325981831E+02  0.18345314587E+03  0.12708964328E+03  0.23399268767E+03  0.00000000000E+00 0.  1.
         21    1    1    2  506  503  0.64584398819E+02 -0.93705653542E+02 -0.42624584412E+02  0.12152674304E+03  0.00000000000E+00 0.  1.
<scales pt_clust_3="44.87707" pt_clust_4="43.53669" pt_clust_5="162.45722" pt_clust_6="44.87707"></scales>
<clustering>
<clus scale="   43.537">  1  4  2 -1</clus>
<clus scale="   44.877">  3  6 -1 -1</clus>
<clus scale="  162.457">  1  5  2 -1</clus>
<clus scale="   43.537">  1  3  2 -1</clus>
</clustering>
</event>
<event>
 6    0  0.9315069E+002  0.6693877E+02  0.7546771E-02  0.1370824E+00
         21   -1    0    0  506  501  0.00000000000E+00  0.00000000000E+00  0.82798128365E+02  0.82798128365E+02  0.00000000000E+00 0.  1.
         21   -1    0    0  504  502 -0.00000000000E+00 -0.00000000000E+00 -0.13356227353E+04  0.13356227353E+04  0.00000000000E+00 0.  1.
         21    1    1    2  503  501  0.43507245939E+02 -0.54862719144E+02 -0.31264602202E+03  0.32039090730E+03  0.00000000000E+00 0.  1.
         21    1    1    2  504  503 -0.81986674184E+01  0.34769587155E+02 -0.92429398038E+02  0.99092562587E+02  0.00000000000E+00 0. -1.
         21    1    1    2  505  502 -0.72594027790E+02 -0.35436681782E+02 -0.90639146242E+03  0.90998413966E+03  0.00000000000E+00 0.  1.
         21    1    1    2  506  505  0.37285449269E+02  0.55529813771E+02  0.58642275513E+02  0.88953254139E+02  0.00000000000E+00 0.  1.
<scales pt_clust_3="61.88621" pt_clust_4="35.72313" pt_clust_5="66.93877" pt_clust_6="14000.00000"></scales>
<clustering>
<clus scale="   35.723">  2  4  1 -1</clus>
<clus scale="   61.886">  2  3  1 -1</clus>
<clus scale="   66.939">  2  5  1 -1</clus>
<clus scale="   66.939">  1  3  2 -1</clus>
</clustering>
</event>
<event>
 6    0  0.9315069E+002  0.1023858E+03  0.7546771E-02  0.1275357E+00
         21   -1    0    0  504  501  0.00000000000E+00  0.00000000000E+00  0.10656539019E+04  0.10656539019E+04  0.00000000000E+00 0.  1.
         21   -1    0    0  503  502 -0.00000000000E+00 -0.00000000000E+00 -0.17139324772E+03  0.17139324772E+03  0.00000000000E+00 0.  1.
         21    1    1    2  503  501 -0.11892293533E+03 -0.68529576365E+02  0.10836799683E+03  0.17487878694E+03  0.00000000000E+00 0.  1.
         21    1    1    2  504  505  0.47999395005E+02  0.27945860397E+02  0.84703341417E+03  0.84885247114E+03  0.00000000000E+00 0.  1.
         21    1    1    2  505  506  0.11023089222E+03 -0.22315535202E+02  0.68794952357E+01  0.11267723889E+03  0.00000000000E+00 0.  1.
         21    1    1    2  506  502 -0.39307351890E+02  0.62899251170E+02 -0.68020252074E+02  0.10063865263E+03  0.00000000000E+00 0.  1.
<scales pt_clust_3="14000.00000" pt_clust_4="55.54199" pt_clust_5="102.38581" pt_clust_6="74.15777"></scales>
<clustering>
<clus scale="   55.542">  1  4  2 -1</clus>
<clus scale="   74.158">  2  6  1 -1</clus>
<clus scale="  102.386">  2  5  1 -1</clus>
<clus scale="   55.542">  1  3  2 -1</clus>
</clustering>
</event>
<event>
 6    0  0.9315069E+002  0.1163879E+03  0.7546771E-02  0.1249178E+00
         21   -1    0    0  504  501  0.00000000000E+00  0.00000000000E+00  0.32450755340E+03  0.32450755340E+03  0.00000000000E+00 0. -1.
         21   -1    0    0  506  502 -0.00000000000E+00 -0.00000000000E+00 -0.18261999276E+03  0.18261999276E+03  0.00000000000E+00 0.  1.
         21    1    1    2  503  501  0.14903854700E+02 -0.58135703671E+02  0.36908076659E+02  0.70456305956E+02  0.00000000000E+00 0.  1.
         21    1    1    2  504  502  0.72008360760E+02  0.93912143962E+02 -0.10008155650E+03  0.15498713738E+03  0.00000000000E+00 0.  1.
         21    1    1    2  505  503  0.47353714988E+02 -0.30350347993E+02  0.40926479214E+02  0.69559288721E+02  0.00000000000E+00 0. -1.
         21    1    1    2  506  505 -0.13426593045E+03 -0.54260922979E+01  0.16413456126E+03  0.21212481410E+03  0.00000000000E+00 0. -1.
<scales pt_clust_3="116.38792" pt_clust_4="114.97772" pt_clust_5="41.52999" pt_clust_6="14000.00000"></scales>
<clustering>
<clus scale="   41.530">  3  5 -1 -1</clus>
<clus scale="  116.388">  1  3  2 -1</clus>
<clus scale="  114.978">  2  4  1 -1</clus>
<clus scale="  116.388">  1  3  2 -1</clus>
</clustering>
</event>
<event>
 6    0  0.9315069E+002  0.1451938E+03  0.7546771E-02  0.1206506E+00
         21   -1    0    0  503  501  0.00000000000E+00  0.00000000000E+00  0.37373145489E+03  0.37373145489E+03  0.00000000000E+00 0. -1.
         21   -1    0    0  505  502 -0.00000000000E+00 -0.00000000000E+00 -0.44220823580E+03  0.44220823580E+03  0.00000000000E+00 0. -1.
         21    1    1    2  503  506 -0.10987287791E+03  0.34614167739E+02  0.26082119695E+02  0.11811209454E+03  0.00000000000E+00 0. -1.
         21    1    1    2  504  502  0.30918935487E+02 -0.37121956274E+02 -0.33878996760E+03  0.34221727361E+03  0.00000000000E+00 0. -1.
         21    1    1    2  505  501  0.12359794079E+03 -0.32925567191E+02  0.26555602276E+03  0.29475505961E+03  0.00000000000E+00 0. -1.
         21    1    1    2  506  504 -0.44643998368E+02  0.35433355727E+02 -0.21324955759E+02  0.60855262932E+02  0.00000000000E+00 0. -1.
<scales pt_clust_3="39.94299" pt_clust_4="48.31170" pt_clust_5="133.62893" pt_clust_6="39.94299"></scales>
<clustering>
<clus scale="   39.943">  3  6 -1 -1</clus>
<clus scale="   48.312">  2  4  1 -1</clus>
<clus scale="  133.629">  1  5  2 -1</clus>
<clus scale="  133.629">  1  3  2 -1</clus>
</clustering>
</event>
<event>
 6    0  0.9315069E+002  0.1190902E+03  0.7546771E-02  0.1244606E+00
         21   -1    0    0  503  501  0.00000000000E+00  0.00000000000E+00  0.12188562201E+03  0.12188562201E+03  0.00000000000E+00 0. -1.
         21   -1    0    0  504  502 -0.00000000000E+00 -0.00000000000E+00 -0.10513169179E+04  0.10513169179E+04  0.00000000000E+00 0.  1.
         21    1    1    2  503  506  0.10842917336E+02  0.44614643587E+02  0.30647743321E+02  0.55202531187E+02  0.00000000000E+00 0. -1.
         21    1    1    2  504  505  0.46998288405E+02  0.10970317075E+03 -0.92520620025E+03  0.93287198359E+03  0.00000000000E+00 0.  1.
         21    1    1    2  505  501 -0.11689678385E+02 -0.11998932358E+03 -0.58435692065E+01  0.12069893809E+03  0.00000000000E+00 0. -1.
         21    1    1    2  506  502 -0.46151527357E+02 -0.34328490756E+02 -0.29029269735E+02  0.64429087036E+02  0.00000000000E+00 0. -1.
<scales pt_clust_3="45.91335" pt_clust_4="14000.00000" pt_clust_5="119.09018" pt_clust_6="50.03354"></scales>
<clustering>
<clus scale="   45.913">  1  3  2 -1</clus>
<clus scale="   50.034">  1  6  2 -1</clus>
<clus scale="  119.090">  1  5  2 -1</clus>
<clus scale="   45.913">  1  3  2 -1</clus>
</clustering>
</event>
<event>
 6    0  0.9315069E+002  0.1284919E+03  0.7546771E-02  0.1229711E+00
         21   -1    0    0  503  501  0.00000000000E+00  0.00000000000E+00  0.67394934500E+02  0.67394934500E+02  0.00000000000E+00 0.  1.
         21   -1    0    0  506  502 -0.00000000000E+00 -0.00000000000E+00 -0.11473740827E+04  0.11473740827E+04  0.00000000000E+00 0.  1.
         21    1    1    2  503  504 -0.39561688500E+02  0.60180788686E+00 -0.16140221110E+02  0.42731675689E+02  0.00000000000E+00 0.  1.
         21    1    1    2  504  502  0.47029381650E+02 -0.12418735654E+03 -0.52748009380E+02  0.14288672002E+03  0.00000000000E+00 0.  1.
         21    1    1    2  505  501 -0.25790175638E+02  0.15412454872E+03 -0.81220726599E+03  0.82710347152E+03  0.00000000000E+00 0.  1.
         21    1    1    2  506  505  0.18322482488E+02 -0.30539000065E+02 -0.19888365172E+03  0.20204714997E+03  0.00000000000E+00 0.  1.
<scales pt_clust_3="38.99366" pt_clust_4="14000.00000" pt_clust_5="128.49186" pt_clust_6="35.61382"></scales>
<clustering>
<clus scale="   35.614">  2  6  1 -1</clus>
<clus scale="   38.994">  1  3  2 -1</clus>
<clus scale="  128.492">  2  5  1 -1</clus>
<clus scale="   38.994">  1  3  2 -1</clus>
</clustering>
</event>
<event>
 6    0  0.9315069E+002  0.4992990E+03  0.7546771E-02  0.1013962E+00
         21   -1    0    0  504  501  0.00000000000E+00  0.00000000000E+00  0.27495629036E+03  0.27495629036E+03  0.00000000000E+00 0.  1.
         21   -1    0    0  506  502 -0.00000000000E+00 -0.00000000000E+00 -0.11534721456E+04  0.11534721456E+04  0.00000000000E+00 0. -1.
         21    1    1    2  503  501  0.29093964935E+03 -0.31597957748E+03 -0.75112795050E+02  0.43604002675E+03  0.00000000000E+00 0.  1.
         21    1    1    2  504  505 -0.32759649184E+02  0.92192669143E+02 -0.94384343315E+02  0.13594516218E+03  0.00000000000E+00 0. -1.
         21    1    1    2  505  502 -0.26444196962E+03  0.29054567312E+03 -0.67559923343E+03  0.78152457906E+03  0.00000000000E+00 0. -1.
         21    1    1    2  506  503  0.62619694527E+01 -0.66758764788E+02 -0.33419483449E+02  0.74918667976E+02  0.00000000000E+00 0.  1.
<scales pt_clust_3="47.54757" pt_clust_4="59.17047" pt_clust_5="498.87475" pt_clust_6="47.54757"></scales>
<clustering>
<clus scale="   47.548">  3  6 -1 -1</clus>
<clus scale="   59.170">  4  5 -1 -1</clus>
<clus scale="  498.875">  2  4  1 -1</clus>
<clus scale="  499.299">  1  3  2 -1</clus>
</clustering>
</event>
<event>
 6    0  0.9315069E+002  0.1306513E+03  0.7546771E-02  0.1226492E+00
         21   -1    0    0  503  501  0.00000000000E+00  0.00000000000E+00  0.10642291427E+03  0.10642291427E+03  0.00000000000E+00 0.  1.
         21   -1    0    0  501  502 -0.00000000000E+00 -0.00000000000E+00 -0.83272507280E+03  0.83272507280E+03  0.00000000000E+00 0.  1.
         21    1    1    2  503  504  0.30294840738E+02 -0.75321983620E+01  0.55372151135E+02  0.63565607909E+02  0.00000000000E+00 0.  1.
         21    1    1    2  504  505 -0.33504261498E+02  0.38622040739E+02 -0.67568807365E+02  0.84733354107E+02  0.00000000000E+00 0.  1.
         21    1    1    2  505  506  0.39109987219E+02  0.10003082472E+03 -0.60534770069E+02  0.12328915355E+03  0.00000000000E+00 0.  1.
         21    1    1    2  506  502 -0.35900566459E+02 -0.13112066710E+03 -0.65357073224E+03  0.66755987151E+03  0.00000000000E+00 0.  1.
<scales pt_clust_3="31.21716" pt_clust_4="46.57643" pt_clust_5="14000.00000" pt_clust_6="130.65134"></scales>
<clustering>
<clus scale="   31.217">  1  3  2 -1</clus>
<clus scale="   46.576">  1  4  2 -1</clus>
<clus scale="  130.651">  2  6  1 -1</clus>
<clus scale="   31.217">  1  3  2 -1</clus>
</clustering>
</event>
<event>
 6    0  0.9315069E+002  0.6364106E+02  0.7546771E-02  0.1383157E+00
         21   -1    0    0  503  501  0.00000000000E+00  0.00000000000E+00  0.56350959233E+02  0.56350959233E+02  0.00000000000E+00 0.  1.
         21   -1    0    0  506  502 -0.00000000000E+00 -0.00000000000E+00 -0.97352927765E+03  0.97352927765E+03  0.00000000000E+00 0.  1.
         21    1    1    2  503  505 -0.24212002227E+02  0.56917147901E+02  0.21503276986E+02  0.65484148450E+02  0.00000000000E+00 0.  1.
         21    1    1    2  504  501  0.78104485015E+02 -0.84033348239E+02 -0.54396882077E+03  0.55593524099E+03  0.00000000000E+00 0.  1.
         21    1    1    2  505  502 -0.28185189581E+02 -0.28998167851E+02 -0.20531198046E+03  0.20925656016E+03  0.00000000000E+00 0.  1.
         21    1    1    2  506  504 -0.25707293207E+02  0.56114368189E+02 -0.18940079417E+03  0.19920428728E+03  0.00000000000E+00 0.  1.
<scales pt_clust_3="63.64106" pt_clust_4="14000.00000" pt_clust_5="40.43883" pt_clust_6="58.79674"></scales>
<clustering>
<clus scale="   40.439">  2  5  1 -1</clus>
<clus scale="   58.797">  2  6  1 -1</clus>
<clus scale="   63.641">  1  3  2 -1</clus>
<clus scale="   63.641">  1  3  2 -1</clus>
</clustering>
</event>
<event>
 6    0  0.9315069E+002  0.8510115E+02  0.7546771E-02  0.1315168E+00
         21   -1    0    0  506  501  0.00000000000E+00  0.00000000000E+00  0.77130637448E+03  0.77130637448E+03  0.00000000000E+00 0. -1.
         21   -1    0    0  504  502 -0.00000000000E+00 -0.00000000000E+00 -0.21227299222E+03  0.21227299222E+03  0.00000000000E+00 0.  1.
         21    1    1    2  503  502 -0.10016391242E+03  0.24750859597E+02 -0.14749875905E+03  0.18000360642E+03  0.00000000000E+00 0.  1.
         21    1    1    2  504  505  0.22013256757E+02 -0.23876573727E+02 -0.15008014096E+02  0.35775895979E+02  0.00000000000E+00 0.  1.
         21    1    1    2  505  501 -0.37690638860E+02 -0.27131521246E+02  0.58493672691E+03  0.58677736680E+03  0.00000000000E+00 0. -1.
         21    1    1    2  506  503  0.11584129453E+03  0.26257235376E+02  0.13660342849E+03  0.18102249750E+03  0.00000000000E+00 0. -1.
<scales pt_clust_3="14000.00000" pt_clust_4="32.47575" pt_clust_5="46.42131" pt_clust_6="85.10115"></scales>
<clustering>
<clus scale="   32.476">  2  4  1 -1</clus>
<clus scale="   46.421">  1  5  2 -1</clus>
<clus scale="   85.101">  1  6  2 -1</clus>
<clus scale="   46.421">  1  3  2 -1</clus>
</clustering>
</event>
<event>
 6    0  0.9315069E+002  0.2006597E+03  0.7546771E-02  0.1149184E+00
         21   -1    0    0  503  501  0.00000000000E+00  0.00000000000E+00  0.85938470025E+02  0.85938470025E+02  0.00000000000E+00 0. -1.
         21   -1    0    0  506  502 -0.00000000000E+00 -0.00000000000E+00 -0.47091083532E+03  0.47091083532E+03  0.00000000000E+00 0.  1.
         21    1    1    2  503  505 -0.76262256918E+02  0.50201951982E+02 -0.11917404937E+03  0.15012868432E+03  0.00000000000E+00 0.  1.
         21    1    1    2  504  501  0.49509934204E+02 -0.64872698352E+02 -0.87068270223E+02  0.11933391913E+03  0.00000000000E+00 0. -1.
         21    1    1    2  505  502 -0.58997613447E+02  0.90766138756E+02 -0.10664739188E+03  0.15196340524E+03  0.00000000000E+00 0.  1.
         21    1    1    2  506  504  0.85749936162E+02 -0.76095392385E+02 -0.72082653831E+02  0.13542329666E+03  0.00000000000E+00 0. -1.
<scales pt_clust_3="42.05559" pt_clust_4="31.62435" pt_clust_5="42.05559" pt_clust_6="198.92768"></scales>
<clustering>
<clus scale="   31.624">  4  6 -1 -1</clus>
<clus scale="   42.056">  3  5 -1 -1</clus>
<clus scale="  198.928">  1  4  2 -1</clus>
<clus scale="  198.928">  1  3  2 -1</clus>
</clustering>
</event>
<event>
 6    0  0.9315069E+002  0.1206755E+03  0.7546771E-02  0.1241987E+00
         21   -1    0    0  503  501  0.00000000000E+00  0.00000000000E+00  0.10962834509E+04  0.10962834509E+04  0.00000000000E+00 0.  1.
         21   -1    0    0  505  502 -0.00000000000E+00 -0.00000000000E+00 -0.23440994870E+02  0.23440994870E+02  0.00000000000E+00 0.  1.
         21    1    1    2  503  502  0.16686314460E+02  0.10972534912E+03  0.44564754022E+03  0.45926007385E+03  0.00000000000E+00 0.  1.
         21    1    1    2  504  506 -0.12386059943E+02 -0.75477142576E+02  0.40657894003E+03  0.41371082655E+03  0.00000000000E+00 0.  1.
         21    1    1    2  505  504  0.31610098202E+02 -0.36826147951E+01  0.13900331130E+02  0.34727210737E+02  0.00000000000E+00 0.  1.
         21    1    1    2  506  501 -0.35910352719E+02 -0.30565591754E+02  0.20671564462E+03  0.21202633460E+03  0.00000000000E+00 0.  1.
<scales pt_clust_3="112.79824" pt_clust_4="32.13637" pt_clust_5="31.82389" pt_clust_6="32.13637"></scales>
<clustering>
<clus scale="   31.824">  2  5  1 -1</clus>
<clus scale="   32.136">  4  6 -1 -1</clus>
<clus scale="  112.798">  2  3  1 -1</clus>
<clus scale="  120.676">  1  3  2 -1</clus>
</clustering>
</event>
<event>
 6    0  0.9315069E+002  0.1382298E+03  0.7546771E-02  0.1215731E+00
         21   -1    0    0  505  501  0.00000000000E+00  0.00000000000E+00  0.67305522541E+02  0.67305522541E+02  0.00000000000E+00 0.  1.
         21   -1    0    0  506  502 -0.00000000000E+00 -0.00000000000E+00 -0.10546050298E+04  0.10546050298E+04  0.00000000000E+00 0.  1.
         21    1    1    2  503  501 -0.62643509874E+02 -0.72725969447E+02 -0.28520229428E+02  0.10013330838E+03  0.00000000000E+00 0.  1.
         21    1    1    2  504  503  0.10069606544E+02 -0.43772776163E+02  0.22847624766E+01  0.44974137552E+02  0.00000000000E+00 0.  1.
         21    1    1    2  505  502 -0.10382615217E+02  0.10577256797E+03 -0.48739767378E+03  0.49885080660E+03  0.00000000000E+00 0.  1.
         21    1    1    2  506  504  0.62956518547E+02  0.10726177644E+02 -0.47366636648E+03  0.47795229977E+03  0.00000000000E+00 0.  1.
<scales pt_clust_3="43.43623" pt_clust_4="43.43623" pt_clust_5="122.78265" pt_clust_6="63.86372"></scales>
<clustering>
<clus scale="   43.436">  3  4 -1 -1</clus>
<clus scale="   63.864">  2  6  1 -1</clus>
<clus scale="  122.783">  2  5  1 -1</clus>
<clus scale="  138.230">  1  3  2 -1</clus>
</clustering>
</event>
<event>
 6    0  0.9315069E+002  0.9411302E+02  0.7546771E-02  0.1293186E+00
         21   -1    0    0  504  501  0.00000000000E+00  0.00000000000E+00  0.18245823583E+04  0.18245823583E+04  0.00000000000E+00 0.  1.
         21   -1    0    0  506  502 -0.00000000000E+00 -0.00000000000E+00 -0.10726527993E+03  0.10726527993E+03  0.00000000000E+00 0. -1.
         21    1    1    2  503  505  0.84095522075E+02  0.12152824850E+03  0.42032036077E+03  0.44554503442E+03  0.00000000000E+00 0. -1.
         21    1    1    2  504  503 -0.26872223069E+02 -0.67089350776E+02  0.12935196781E+04  0.12955370527E+04  0.00000000000E+00 0.  1.
         21    1    1    2  505  502 -0.89864477546E+02 -0.44540523801E+02  0.65634800193E+02  0.11986412967E+03  0.00000000000E+00 0. -1.
         21    1    1    2  506  501  0.32641178540E+02 -0.98983739227E+01 -0.62157760697E+02  0.70901421408E+02  0.00000000000E+00 0. -1.
<scales pt_clust_3="94.11302" pt_clust_4="72.20290" pt_clust_5="14000.00000" pt_clust_6="34.10901"></scales>
<clustering>
<clus scale="   34.109">  2  6  1 -1</clus>
<clus scale="   72.203">  1  4  2 -1</clus>
<clus scale="   94.113">  1  3  2 -1</clus>
<clus scale="   72.203">  1  3  2 -1</clus>
</clustering>
</event>
<event>
 6    0  0.9315069E+002  0.1567328E+03  0.7546771E-02  0.1192436E+00
         21   -1    0    0  504  501  0.00000000000E+00  0.00000000000E+00  0.17262419762E+03  0.17262419762E+03  0.00000000000E+00 0.  1.
         21   -1    0    0  506  502 -0.00000000000E+00 -0.00000000000E+00 -0.19784015314E+04  0.19784015314E+04  0.00000000000E+00 0.  1.
         21    1    1    2  503  501 -0.57312239777E+02  0.29394141627E+02  0.51113506604E+02  0.82227118079E+02  0.00000000000E+00 0. -1.
         21    1    1    2  504  505  0.10004010251E+03 -0.98621089602E+02  0.38722172454E+02  0.14571735677E+03  0.00000000000E+00 0.  1.
         21    1    1    2  505  502 -0.11470388760E+03  0.10772631200E+03 -0.17423112101E+04  0.17494028390E+04  0.00000000000E+00 0.  1.
         21    1    1    2  506  503  0.71976024867E+02 -0.38499364026E+02 -0.15330180279E+03  0.17367841526E+03  0.00000000000E+00 0.  1.
<scales pt_clust_3="64.41047" pt_clust_4="156.73276" pt_clust_5="14000.00000" pt_clust_6="75.43309"></scales>
<clustering>
<clus scale="   64.410">  1  3  2 -1</clus>
<clus scale="   75.433">  1  6  2 -1</clus>
<clus scale="  156.733">  1  4  2 -1</clus>
<clus scale="   64.410">  1  3  2 -1</clus>
</clustering>
</event>
<event>
 6    0  0.9315069E+002  0.2863400E+03  0.7546771E-02  0.1092276E+00
         21   -1    0    0  506  501  0.00000000000E+00  0.00000000000E+00  0.14013896585E+04  0.14013896585E+04  0.00000000000E+00 0.  1.
         21   -1    0    0  504  502 -0.00000000000E+00 -0.00000000000E+00 -0.54814116250E+03  0.54814116250E+03  0.00000000000E+00 0.  1.
         21    1    1    2  503  505  0.11490746011E+03 -0.25799352547E+03 -0.40435902380E+03  0.49322469900E+03  0.00000000000E+00 0.  1.
         21    1    1    2  504  503  0.41744698813E+02  0.12659673219E+02 -0.61677273701E+02  0.75544512019E+02  0.00000000000E+00 0. -1.
         21    1    1    2  505  501 -0.40636402308E+02  0.24353808026E+02  0.83135568961E+03  0.83270445406E+03  0.00000000000E+00 0.  1.
         21    1    1    2  506  502 -0.11601575661E+03  0.22098004422E+03  0.48792910387E+03  0.54805715589E+03  0.00000000000E+00 0.  1.
<scales pt_clust_3="14000.00000" pt_clust_4="43.62210" pt_clust_5="47.33418" pt_clust_6="286.33996"></scales>
<clustering>
<clus scale="   43.622">  2  4  1 -1</clus>
<clus scale="   47.334">  1  5  2 -1</clus>
<clus scale="  286.340">  1  6  2 -1</clus>
<clus scale="   47.334">  1  3  2 -1</clus>
</clustering>
</event>
<event>
 6    0  0.9315069E+002  0.1273945E+03  0.7546771E-02  0.1231374E+00
         21   -1    0    0  505  501  0.00000000000E+00  0.00000000000E+00  0.26999085873E+03  0.26999085873E+03  0.00000000000E+00 0. -1.
         21   -1    0    0  504  502 -0.00000000000E+00 -0.00000000000E+00 -0.25096294803E+03  0.25096294803E+03  0.00000000000E+00 0. -1.
         21    1    1    2  503  501 -0.12861518233E+03 -0.10249680783E+03 -0.13735504573E+03  0.21427521865E+03  0.00000000000E+00 0. -1.
         21    1    1    2  504  503  0.23485870022E+02 -0.22016090096E+02 -0.18287432612E+02  0.37023296792E+02  0.00000000000E+00 0.  1.
         21    1    1    2  505  506  0.47844851313E+02  0.60898374369E+02  0.16653774212E+03  0.18366426257E+03  0.00000000000E+00 0. -1.
         21    1    1    2  506  502  0.57284460997E+02  0.63614523552E+02  0.81326469251E+01  0.85991028744E+02  0.00000000000E+00 0. -1.
<scales pt_clust_3="127.39447" pt_clust_4="32.19153" pt_clust_5="77.34738" pt_clust_6="14000.00000"></scales>
<clustering>
<clus scale="   32.192">  2  4  1 -1</clus>
<clus scale="   77.347">  1  5  2 -1</clus>
<clus scale="  127.394">  2  3  1 -1</clus>
<clus scale="   77.347">  1  3  2 -1</clus>
</clustering>
</event>
<event>
 6    0  0.9315069E+002  0.1987426E+03  0.7546771E-02  0.1150804E+00
         21   -1    0    0  505  501  0.00000000000E+00  0.00000000000E+00  0.22120022284E+03  0.22120022284E+03  0.00000000000E+00 0.  1.
         21   -1    0    0  506  502 -0.00000000000E+00 -0.00000000000E+00 -0.75626127117E+03  0.75626127117E+03  0.00000000000E+00 0.  1.
         21    1    1    2  503  501 -0.75033814051E+01  0.29161275263E+02  0.16324041975E+02  0.34251351125E+02  0.00000000000E+00 0. -1.
         21    1    1    2  504  502  0.18324116763E+03 -0.71917897436E+02 -0.63760599748E+03  0.66730121947E+03  0.00000000000E+00 0.  1.
         21    1    1    2  505  504  0.36096904291E+02 -0.84282996594E+01  0.37235708803E+02  0.52540658015E+02  0.00000000000E+00 0.  1.
         21    1    1    2  506  503 -0.21183469052E+03  0.51184921832E+02  0.48985198365E+02  0.22336826540E+03  0.00000000000E+00 0.  1.
<scales pt_clust_3="30.11114" pt_clust_4="14000.00000" pt_clust_5="34.42205" pt_clust_6="198.74256"></scales>
<clustering>
<clus scale="   30.111">  1  3  2 -1</clus>
<clus scale="   34.422">  1  5  2 -1</clus>
<clus scale="  198.743">  1  6  2 -1</clus>
<clus scale="   30.111">  1  3  2 -1</clus>
</clustering>
</event>
<event>
 6    0  0.9315069E+002  0.6783465E+02  0.7546771E-02  0.1367615E+00
         21   -1    0    0  506  501  0.00000000000E+00  0.00000000000E+00  0.20920288111E+03  0.20920288111E+03  0.00000000000E+00 0.  1.
         21   -1    0    0  505  502 -0.00000000000E+00 -0.00000000000E+00 -0.25055457162E+03  0.25055457162E+03  0.00000000000E+00 0. -1.
         21    1    1    2  503  501 -0.32099909476E+02  0.34996191000E+02  0.72264703491E+02  0.86471526779E+02  0.00000000000E+00 0.  1.
         21    1    1    2  504  503 -0.51048212588E+02 -0.25026056856E+02  0.46775184849E+02  0.73621609925E+02  0.00000000000E+00 0.  1.
         21    1    1    2  505  504  0.83546642236E+02 -0.57329381053E+02  0.28233141609E+02  0.10518464549E+03  0.00000000000E+00 0.  1.
         21    1    1    2  506  502 -0.39852017100E+00  0.47359246910E+02 -0.18862472046E+03  0.19447967055E+03  0.00000000000E+00 0. -1.
<scales pt_clust_3="51.86331" pt_clust_4="14000.00000" pt_clust_5="67.83465" pt_clust_6="47.36092"></scales>
<clustering>
<clus scale="   47.361">  2  6  1 -1</clus>
<clus scale="   51.863">  1  3  2 -1</clus>
<clus scale="   67.835">  2  5  1 -1</clus>
<clus scale="   51.863">  1  3  2 -1</clus>
</clustering>
</event>
<event>
 6    0  0.9315069E+002  0.6183100E+02  0.7546771E-02  0.1390305E+00
         21   -1    0    0  503  501  0.00000000000E+00  0.00000000000E+00  0.20167307428E+03  0.20167307428E+03  0.00000000000E+00 0.  1.
         21   -1    0    0  505  502 -0.00000000000E+00 -0.00000000000E+00 -0.23434165711E+03  0.23434165711E+03  0.00000000000E+00 0. -1.
         21    1    1    2  503  502  0.17558300874E+02 -0.47012185218E+02 -0.11373883507E+03  0.12431798780E+03  0.00000000000E+00 0. -1.
         21    1    1    2  504  506 -0.54883218870E+01 -0.55251537391E+02 -0.15455056250E+02  0.57634302502E+02  0.00000000000E+00 0. -1.
         21    1    1    2  505  504 -0.58864393747E+02  0.56823422195E+02 -0.48452600404E+02  0.95087184452E+02  0.00000000000E+00 0. -1.
         21    1    1    2  506  501  0.46794414760E+02  0.45440300414E+02  0.14497790889E+03  0.15897525663E+03  0.00000000000E+00 0.  1.
<scales pt_clust_3="50.18406" pt_clust_4="61.83100" pt_clust_5="55.29585" pt_clust_6="14000.00000"></scales>
<clustering>
<clus scale="   50.184">  2  3  1 -1</clus>
<clus scale="   55.296">  2  5  1 -1</clus>
<clus scale="   61.831">  2  4  1 -1</clus>
<clus scale="   61.831">  1  3  2 -1</clus>
</clustering>
</event>
<event>
 6    0  0.9315069E+002  0.1022789E+03  0.7546771E-02  0.1275575E+00
         21   -1    0    0  503  501  0.00000000000E+00  0.00000000000E+00  0.92527907908E+02  0.92527907908E+02  0.00000000000E+00 0.  1.
         21   -1    0    0  504  502 -0.00000000000E+00 -0.00000000000E+00 -0.32981871594E+03  0.32981871594E+03  0.00000000000E+00 0.  1.
         21    1    1    2  503  502 -0.31212943164E+02  0.17227189274E+01 -0.44254372332E+02  0.54181777859E+02  0.00000000000E+00 0. -1.
         21    1    1    2  504  505  0.56615119521E+02  0.42033031452E+01 -0.12297254935E+03  0.13544440708E+03  0.00000000000E+00 0.  1.
         21    1    1    2  505  506  0.59941956639E+02 -0.70960769560E+02 -0.83095373974E+02  0.12463270100E+03  0.00000000000E+00 0.  1.
         21    1    1    2  506  501 -0.85344132996E+02  0.65034747488E+02  0.13031487621E+02  0.10808773791E+03  0.00000000000E+00 0.  1.
<scales pt_clust_3="31.26045" pt_clust_4="42.53694" pt_clust_5="102.27894" pt_clust_6="14000.00000"></scales>
<clustering>
<clus scale="   31.260">  2  3  1 -1</clus>
<clus scale="   42.537">  2  4  1 -1</clus>
<clus scale="  102.279">  2  5  1 -1</clus>
<clus scale="  102.279">  1  3  2 -1</clus>
</clustering>
</event>
