<event>
 5    0  0.5568866E-005  0.3281544E+03  0.7546771E-02  0.1071956E+00
         21   -1    0    0  502  501  0.00000000000E+00  0.00000000000E+00  0.28691108517E+03  0.28691108517E+03  0.00000000000E+00 0. -1.
         21   -1    0    0  501  502 -0.00000000000E+00 -0.00000000000E+00 -0.37532646701E+03  0.37532646701E+03  0.00000000000E+00 0. -1.
         25    1    1    2    0    0 -0.32452628898E+02  0.48200696392E+02  0.75949207544E+02  0.15738412366E+03  0.12500000000E+03 0.  0.
         25    1    1    2    0    0  0.17209160400E+03 -0.11928853257E+03  0.27556200474E+01  0.24388084716E+03  0.12500000000E+03 0.  0.
         25    1    1    2    0    0 -0.13963897511E+03  0.71087836174E+02 -0.16712020943E+03  0.26097258136E+03  0.12500000000E+03 0.  0.
</event>
<event>
 5    0  0.5568866E-005  0.3129770E+03  0.7546771E-02  0.1078928E+00
         21   -1    0    0  502  501  0.00000000000E+00  0.00000000000E+00  0.29331685186E+03  0.29331685186E+03  0.00000000000E+00 0.  1.
         21   -1    0    0  501  502 -0.00000000000E+00 -0.00000000000E+00 -0.33395489353E+03  0.33395489353E+03  0.00000000000E+00 0.  1.
         25    1    1    2    0    0 -0.84108767340E+02  0.57912165425E+02  0.50311100357E+02  0.16906895181E+03  0.12500000000E+03 0.  0.
         25    1    1    2    0    0 -0.10318506341E+03  0.55796146784E+02  0.36974096877E+02  0.17536376806E+03  0.12500000000E+03 0.  0.
         25    1    1    2    0    0  0.18729383075E+03 -0.11370831221E+03 -0.12792323890E+03  0.28283902552E+03  0.12500000000E+03 0.  0.
</event>
<event>
 5    0  0.5568866E-005  0.2997434E+03  0.7546771E-02  0.1085369E+00
         21   -1    0    0  502  501  0.00000000000E+00  0.00000000000E+00  0.46009646833E+03  0.46009646833E+03  0.00000000000E+00 0.  1.
         21   -1    0    0  501  502 -0.00000000000E+00 -0.00000000000E+00 -0.19527666052E+03  0.19527666052E+03  0.00000000000E+00 0.  1.
         25    1    1    2    0    0  0.20168206460E+03  0.19511156898E+02  0.13888184187E+02  0.23848316939E+03  0.12500000000E+03 0.  0.
         25    1    1    2    0    0 -0.55604062665E+02 -0.18401207114E+02  0.79498797733E+02  0.15929681431E+03  0.12500000000E+03 0.  0.
         25    1    1    2    0    0 -0.14607800193E+03 -0.11099497836E+01  0.17143282588E+03  0.25759314515E+03  0.12500000000E+03 0.  0.
</event>
<event>
 5    0  0.5568866E-005  0.2625774E+03  0.7546771E-02  0.1105604E+00
         21   -1    0    0  502  501  0.00000000000E+00  0.00000000000E+00  0.26305172878E+03  0.26305172878E+03  0.00000000000E+00 0.  1.
         21   -1    0    0  501  502 -0.00000000000E+00 -0.00000000000E+00 -0.26210396947E+03  0.26210396947E+03  0.00000000000E+00 0.  1.
         25    1    1    2    0    0 -0.11890910362E+03  0.59225955617E+02  0.51123476713E+02  0.18943520954E+03  0.12500000000E+03 0.  0.
         25    1    1    2    0    0  0.49052823352E+02 -0.92760898918E+01 -0.10885323894E+03  0.17310763401E+03  0.12500000000E+03 0.  0.
         25    1    1    2    0    0  0.69856280271E+02 -0.49949865725E+02  0.58677521536E+02  0.16261285470E+03  0.12500000000E+03 0.  0.
</event>
<event>
 5    0  0.5568866E-005  0.3295968E+03  0.7546771E-02  0.1071315E+00
         21   -1    0    0  502  501  0.00000000000E+00  0.00000000000E+00  0.10758296614E+03  0.10758296614E+03  0.00000000000E+00 0.  1.
         21   -1    0    0  501  502 -0.00000000000E+00 -0.00000000000E+00 -0.10097697683E+04  0.10097697683E+04  0.00000000000E+00 0.  1.
         25    1    1    2    0    0  0.20037083786E+03  0.62889741003E+02 -0.18253199988E+03  0.30503528184E+03  0.12500000000E+03 0.  0.
         25    1    1    2    0    0 -0.83114515735E+02 -0.11847801849E+03 -0.43847362536E+03  0.47836093457E+03  0.12500000000E+03 0.  0.
         25    1    1    2    0    0 -0.11725632213E+03  0.55588277490E+02 -0.28118117691E+03  0.33395651801E+03  0.12500000000E+03 0.  0.
</event>
<event>
 5    0  0.5568866E-005  0.2656830E+03  0.7546771E-02  0.1103776E+00
         21   -1    0    0  502  501  0.00000000000E+00  0.00000000000E+00  0.26653774278E+04  0.26653774278E+04  0.00000000000E+00 0.  1.
         21   -1    0    0  501  502 -0.00000000000E+00 -0.00000000000E+00 -0.26483094587E+02  0.26483094587E+02  0.00000000000E+00 0.  1.
         25    1    1    2    0    0  0.79308447790E+02  0.96979382316E+02  0.12313606287E+04  0.12440131946E+04  0.12500000000E+03 0.  0.
         25    1    1    2    0    0 -0.57805328619E+02 -0.88690691698E+02  0.11393713304E+04  0.11510862363E+04  0.12500000000E+03 0.  0.
         25    1    1    2    0    0 -0.21503119171E+02 -0.82886906183E+01  0.26816237405E+03  0.29676109142E+03  0.12500000000E+03 0.  0.
</event>
<event>
 5    0  0.5568866E-005  0.5523707E+03  0.7546771E-02  0.1000947E+00
         21   -1    0    0  502  501  0.00000000000E+00  0.00000000000E+00  0.12648068747E+04  0.12648068747E+04  0.00000000000E+00 0.  1.
         21   -1    0    0  501  502 -0.00000000000E+00 -0.00000000000E+00 -0.24123321108E+03  0.24123321108E+03  0.00000000000E+00 0.  1.
         25    1    1    2    0    0 -0.35192607093E+03 -0.48531817116E+01  0.29929562394E+03  0.47862133601E+03  0.12500000000E+03 0.  0.
         25    1    1    2    0    0 -0.15226945295E+02 -0.17164878798E+03  0.50532400595E+03  0.54833613529E+03  0.12500000000E+03 0.  0.
         25    1    1    2    0    0  0.36715301623E+03  0.17650196969E+03  0.21895403374E+03  0.47908261450E+03  0.12500000000E+03 0.  0.
</event>
<event>
 5    0  0.5568866E-005  0.2451942E+03  0.7546771E-02  0.1116380E+00
         21   -1    0    0  502  501  0.00000000000E+00  0.00000000000E+00  0.62531209493E+02  0.62531209493E+02  0.00000000000E+00 0. -1.
         21   -1    0    0  501  502 -0.00000000000E+00 -0.00000000000E+00 -0.96144317125E+03  0.96144317125E+03  0.00000000000E+00 0. -1.
         25    1    1    2    0    0  0.25368856552E+02 -0.11675956967E+03 -0.36055664002E+03  0.39987806474E+03  0.12500000000E+03 0.  0.
         25    1    1    2    0    0 -0.77136009309E+02  0.97672053005E+02 -0.26256816408E+03  0.31631761674E+03  0.12500000000E+03 0.  0.
         25    1    1    2    0    0  0.51767152757E+02  0.19087516664E+02 -0.27578715765E+03  0.30777869927E+03  0.12500000000E+03 0.  0.
</event>
<event>
 5    0  0.5568866E-005  0.3408193E+03  0.7546771E-02  0.1066448E+00
         21   -1    0    0  502  501  0.00000000000E+00  0.00000000000E+00  0.13260042171E+03  0.13260042171E+03  0.00000000000E+00 0. -1.
         21   -1    0    0  501  502 -0.00000000000E+00 -0.00000000000E+00 -0.87599845383E+03  0.87599845383E+03  0.00000000000E+00 0. -1.
         25    1    1    2    0    0 -0.42626668413E+02 -0.13843003392E+03 -0.12909793568E+02  0.19175914560E+03  0.12500000000E+03 0.  0.
         25    1    1    2    0    0  0.10321118982E+03  0.14741351572E+03 -0.52236635853E+03  0.56645821280E+03  0.12500000000E+03 0.  0.
         25    1    1    2    0    0 -0.60584521403E+02 -0.89834817992E+01 -0.20812188003E+03  0.25038151714E+03  0.12500000000E+03 0.  0.
</event>
<event>
 5    0  0.5568866E-005  0.3428263E+03  0.7546771E-02  0.1065599E+00
         21   -1    0    0  502  501  0.00000000000E+00  0.00000000000E+00  0.52597787857E+02  0.52597787857E+02  0.00000000000E+00 0.  1.
         21   -1    0    0  501  502 -0.00000000000E+00 -0.00000000000E+00 -0.22345018036E+04  0.22345018036E+04  0.00000000000E+00 0.  1.
         25    1    1    2    0    0  0.39400655207E+02  0.12648770329E+03 -0.42818348506E+03  0.46531456843E+03  0.12500000000E+03 0.  0.
         25    1    1    2    0    0  0.16754184972E+03 -0.18994784682E+01 -0.96825888797E+03  0.99056759161E+03  0.12500000000E+03 0.  0.
         25    1    1    2    0    0 -0.20694250493E+03 -0.12458822482E+03 -0.78546164268E+03  0.83121743138E+03  0.12500000000E+03 0.  0.
</event>
<event>
 5    0  0.5568866E-005  0.2463868E+03  0.7546771E-02  0.1115610E+00
         21   -1    0    0  502  501  0.00000000000E+00  0.00000000000E+00  0.15685356984E+03  0.15685356984E+03  0.00000000000E+00 0. -1.
         21   -1    0    0  501  502 -0.00000000000E+00 -0.00000000000E+00 -0.38702628548E+03  0.38702628548E+03  0.00000000000E+00 0. -1.
         25    1    1    2    0    0  0.74248275983E+02  0.10403712361E+03 -0.55683311200E+02  0.18724892716E+03  0.12500000000E+03 0.  0.
         25    1    1    2    0    0  0.24580507696E+02 -0.28812526525E+02 -0.10353278945E+03  0.16666853793E+03  0.12500000000E+03 0.  0.
         25    1    1    2    0    0 -0.98828783679E+02 -0.75224597084E+02 -0.70956614986E+02  0.18996239023E+03  0.12500000000E+03 0.  0.
</event>
<event>
 5    0  0.5568866E-005  0.2405253E+03  0.7546771E-02  0.1119443E+00
         21   -1    0    0  502  501  0.00000000000E+00  0.00000000000E+00  0.47063008542E+02  0.47063008542E+02  0.00000000000E+00 0.  1.
         21   -1    0    0  501  502 -0.00000000000E+00 -0.00000000000E+00 -0.12292543547E+04  0.12292543547E+04  0.00000000000E+00 0.  1.
         25    1    1    2    0    0  0.49409736963E+02  0.34942808748E+02 -0.59117316767E+03  0.60726685746E+03  0.12500000000E+03 0.  0.
         25    1    1    2    0    0 -0.29786241263E+02  0.20151872790E+02 -0.46260103335E+03  0.48053931598E+03  0.12500000000E+03 0.  0.
         25    1    1    2    0    0 -0.19623495700E+02 -0.55094681538E+02 -0.12841714514E+03  0.18851118981E+03  0.12500000000E+03 0.  0.
</event>
<event>
 5    0  0.5568866E-005  0.5073200E+03  0.7546771E-02  0.1011886E+00
         21   -1    0    0  502  501  0.00000000000E+00  0.00000000000E+00  0.27086898990E+03  0.27086898990E+03  0.00000000000E+00 0. -1.
         21   -1    0    0  501  502 -0.00000000000E+00 -0.00000000000E+00 -0.95017735616E+03  0.95017735616E+03  0.00000000000E+00 0. -1.
         25    1    1    2    0    0 -0.31673129721E+02  0.25235092894E+03  0.87514162287E+02  0.29659384196E+03  0.12500000000E+03 0.  0.
         25    1    1    2    0    0  0.42307746778E+02 -0.31544512876E+03 -0.67501284883E+03  0.75667887560E+03  0.12500000000E+03 0.  0.
         25    1    1    2    0    0 -0.10634617056E+02  0.63094199816E+02 -0.91809679721E+02  0.16777362850E+03  0.12500000000E+03 0.  0.
</event>
<event>
 5    0  0.5568866E-005  0.3247440E+03  0.7546771E-02  0.1073486E+00
         21   -1    0    0  502  501  0.00000000000E+00  0.00000000000E+00  0.58342485194E+03  0.58342485194E+03  0.00000000000E+00 0.  1.
         21   -1    0    0  501  502 -0.00000000000E+00 -0.00000000000E+00 -0.18075791632E+03  0.18075791632E+03  0.00000000000E+00 0.  1.
         25    1    1    2    0    0  0.21936429406E+03  0.11064603387E+03  0.23589320915E+03  0.36281378756E+03  0.12500000000E+03 0.  0.
         25    1    1    2    0    0 -0.13942806869E+03 -0.13873202666E+02  0.79752748177E+02  0.20400527673E+03  0.12500000000E+03 0.  0.
         25    1    1    2    0    0 -0.79936225367E+02 -0.96772831203E+02  0.87020978286E+02  0.19736370398E+03  0.12500000000E+03 0.  0.
</event>
<event>
 5    0  0.5568866E-005  0.2566957E+03  0.7546771E-02  0.1109145E+00
         21   -1    0    0  502  501  0.00000000000E+00  0.00000000000E+00  0.12390548262E+04  0.12390548262E+04  0.00000000000E+00 0.  1.
         21   -1    0    0  501  502 -0.00000000000E+00 -0.00000000000E+00 -0.53179786677E+02  0.53179786677E+02  0.00000000000E+00 0.  1.
         25    1    1    2    0    0  0.37978942449E+02 -0.12141193375E+03  0.51266124380E+03  0.54279812879E+03  0.12500000000E+03 0.  0.
         25    1    1    2    0    0 -0.62910302943E+02 -0.16230018418E+02  0.31526486553E+03  0.34530863753E+03  0.12500000000E+03 0.  0.
         25    1    1    2    0    0  0.24931360494E+02  0.13764195217E+03  0.35794893018E+03  0.40412784654E+03  0.12500000000E+03 0.  0.
</event>
<event>
 5    0  0.5568866E-005  0.3229944E+03  0.7546771E-02  0.1074279E+00
         21   -1    0    0  502  501  0.00000000000E+00  0.00000000000E+00  0.20042033065E+03  0.20042033065E+03  0.00000000000E+00 0. -1.
         21   -1    0    0  501  502 -0.00000000000E+00 -0.00000000000E+00 -0.52053281922E+03  0.52053281922E+03  0.00000000000E+00 0. -1.
         25    1    1    2    0    0  0.88875245325E+02 -0.14472996647E+03 -0.71272257452E+02  0.22259898272E+03  0.12500000000E+03 0.  0.
         25    1    1    2    0    0 -0.36565062175E+02 -0.41784912276E+02  0.26418041744E+02  0.13930504512E+03  0.12500000000E+03 0.  0.
         25    1    1    2    0    0 -0.52310183151E+02  0.18651487875E+03 -0.27525827285E+03  0.35904912203E+03  0.12500000000E+03 0.  0.
</event>
<event>
 5    0  0.5568866E-005  0.2399395E+03  0.7546771E-02  0.1119833E+00
         21   -1    0    0  502  501  0.00000000000E+00  0.00000000000E+00  0.31198159453E+03  0.31198159453E+03  0.00000000000E+00 0.  1.
         21   -1    0    0  501  502 -0.00000000000E+00 -0.00000000000E+00 -0.18453325691E+03  0.18453325691E+03  0.00000000000E+00 0.  1.
         25    1    1    2    0    0 -0.42475563586E+02  0.62777740267E+02 -0.41539928202E+01  0.14624456855E+03  0.12500000000E+03 0.  0.
         25    1    1    2    0    0  0.72493856036E+02 -0.71968865415E+02 -0.62530259749E+01  0.16155177834E+03  0.12500000000E+03 0.  0.
         25    1    1    2    0    0 -0.30018292450E+02  0.91911251476E+01  0.13785535641E+03  0.18871850454E+03  0.12500000000E+03 0.  0.
</event>
<event>
 5    0  0.5568866E-005  0.4754400E+03  0.7546771E-02  0.1020396E+00
         21   -1    0    0  502  501  0.00000000000E+00  0.00000000000E+00  0.12391995880E+03  0.12391995880E+03  0.00000000000E+00 0.  1.
         21   -1    0    0  501  502 -0.00000000000E+00 -0.00000000000E+00 -0.18241066325E+04  0.18241066325E+04  0.00000000000E+00 0.  1.
         25    1    1    2    0    0 -0.22818264665E+03 -0.16806360597E+03 -0.62117625292E+03  0.69411644057E+03  0.12500000000E+03 0.  0.
         25    1    1    2    0    0  0.26002017672E+03 -0.38285079534E+02 -0.91571367782E+03  0.96085002959E+03  0.12500000000E+03 0.  0.
         25    1    1    2    0    0 -0.31837530070E+02  0.20634868550E+03 -0.16329674294E+03  0.29306012111E+03  0.12500000000E+03 0.  0.
</event>
<event>
 5    0  0.5568866E-005  0.2276856E+03  0.7546771E-02  0.1128279E+00
         21   -1    0    0  502  501  0.00000000000E+00  0.00000000000E+00  0.27831110786E+03  0.27831110786E+03  0.00000000000E+00 0.  1.
         21   -1    0    0  501  502 -0.00000000000E+00 -0.00000000000E+00 -0.18626892658E+03  0.18626892658E+03  0.00000000000E+00 0.  1.
         25    1    1    2    0    0  0.63520976996E+02 -0.13282110708E+02 -0.60770038277E+02  0.15339271996E+03  0.12500000000E+03 0.  0.
         25    1    1    2    0    0 -0.56076572672E+02 -0.20651388619E+02  0.56589257112E+02  0.14966096978E+03  0.12500000000E+03 0.  0.
         25    1    1    2    0    0 -0.74444043237E+01  0.33933499327E+02  0.96222962448E+02  0.16152634471E+03  0.12500000000E+03 0.  0.
</event>
<event>
 5    0  0.5568866E-005  0.3371506E+03  0.7546771E-02  0.1068016E+00
         21   -1    0    0  502  501  0.00000000000E+00  0.00000000000E+00  0.30163987175E+03  0.30163987175E+03  0.00000000000E+00 0.  1.
         21   -1    0    0  501  502 -0.00000000000E+00 -0.00000000000E+00 -0.37684191893E+03  0.37684191893E+03  0.00000000000E+00 0.  1.
         25    1    1    2    0    0  0.81388123500E+02  0.78654397476E+02 -0.10784209742E+03  0.20016358027E+03  0.12500000000E+03 0.  0.
         25    1    1    2    0    0  0.50691502983E+02  0.13573614348E+03  0.46213948470E+02  0.19686202822E+03  0.12500000000E+03 0.  0.
         25    1    1    2    0    0 -0.13207962648E+03 -0.21439054096E+03 -0.13573898226E+02  0.28145618220E+03  0.12500000000E+03 0.  0.
</event>
<event>
 5    0  0.5568866E-005  0.2553900E+03  0.7546771E-02  0.1109945E+00
         21   -1    0    0  502  501  0.00000000000E+00  0.00000000000E+00  0.14875925000E+03  0.14875925000E+03  0.00000000000E+00 0. -1.
         21   -1    0    0  501  502 -0.00000000000E+00 -0.00000000000E+00 -0.43845390091E+03  0.43845390091E+03  0.00000000000E+00 0. -1.
         25    1    1    2    0    0  0.15121380345E+02  0.87799804914E+02 -0.49965928848E+02  0.16142817577E+03  0.12500000000E+03 0.  0.
         25    1    1    2    0    0 -0.49871586359E+02  0.36733521021E+02 -0.18566953538E+02  0.14073470949E+03  0.12500000000E+03 0.  0.
         25    1    1    2    0    0  0.34750206014E+02 -0.12453332594E+03 -0.22116176853E+03  0.28505026565E+03  0.12500000000E+03 0.  0.
</event>
<event>
 5    0  0.5568866E-005  0.2394859E+03  0.7546771E-02  0.1120136E+00
         21   -1    0    0  502  501  0.00000000000E+00  0.00000000000E+00  0.14311419657E+04  0.14311419657E+04  0.00000000000E+00 0.  1.
         21   -1    0    0  501  502 -0.00000000000E+00 -0.00000000000E+00 -0.40075337420E+02  0.40075337420E+02  0.00000000000E+00 0.  1.
         25    1    1    2    0    0  0.71770284123E+02  0.19972145359E+02  0.39149853731E+03  0.41766728983E+03  0.12500000000E+03 0.  0.
         25    1    1    2    0    0  0.32204185438E+02 -0.80348641660E+02  0.57881525810E+03  0.59845226776E+03  0.12500000000E+03 0.  0.
         25    1    1    2    0    0 -0.10397446956E+03  0.60376496301E+02  0.42075283290E+03  0.45509774556E+03  0.12500000000E+03 0.  0.
</event>
<event>
 5    0  0.5568866E-005  0.3784640E+03  0.7546771E-02  0.1051503E+00
         21   -1    0    0  502  501  0.00000000000E+00  0.00000000000E+00  0.13819409486E+03  0.13819409486E+03  0.00000000000E+00 0.  1.
         21   -1    0    0  501  502 -0.00000000000E+00 -0.00000000000E+00 -0.10364769885E+04  0.10364769885E+04  0.00000000000E+00 0.  1.
         25    1    1    2    0    0 -0.18351940484E+03  0.11814315220E+03 -0.12370161982E+03  0.28029318064E+03  0.12500000000E+03 0.  0.
         25    1    1    2    0    0 -0.34559863298E+02 -0.38898145743E+01 -0.94887742621E+02  0.16074264683E+03  0.12500000000E+03 0.  0.
         25    1    1    2    0    0  0.21807926814E+03 -0.11425333763E+03 -0.67969353123E+03  0.73363525593E+03  0.12500000000E+03 0.  0.
</event>
<event>
 5    0  0.5568866E-005  0.2801817E+03  0.7546771E-02  0.1095590E+00
         21   -1    0    0  502  501  0.00000000000E+00  0.00000000000E+00  0.44429644613E+03  0.44429644613E+03  0.00000000000E+00 0. -1.
         21   -1    0    0  501  502 -0.00000000000E+00 -0.00000000000E+00 -0.17668790241E+03  0.17668790241E+03  0.00000000000E+00 0. -1.
         25    1    1    2    0    0 -0.35997349450E+02  0.14709282848E+03  0.21390657263E+03  0.29036723502E+03  0.12500000000E+03 0.  0.
         25    1    1    2    0    0  0.10513693888E+02  0.90147252781E+00 -0.80493788285E+01  0.12570259708E+03  0.12500000000E+03 0.  0.
         25    1    1    2    0    0  0.25483655562E+02 -0.14799430101E+03  0.61751349926E+02  0.20491451644E+03  0.12500000000E+03 0.  0.
</event>
<event>
 5    0  0.5568866E-005  0.2555801E+03  0.7546771E-02  0.1109828E+00
         21   -1    0    0  502  501  0.00000000000E+00  0.00000000000E+00  0.23939065367E+03  0.23939065367E+03  0.00000000000E+00 0. -1.
         21   -1    0    0  501  502 -0.00000000000E+00 -0.00000000000E+00 -0.27286434802E+03  0.27286434802E+03  0.00000000000E+00 0. -1.
         25    1    1    2    0    0 -0.23450810229E+02  0.90489611668E+01 -0.76486871175E+02  0.14868444996E+03  0.12500000000E+03 0.  0.
         25    1    1    2    0    0  0.12678887558E+03 -0.16363911619E+02 -0.36984924427E+02  0.18258171105E+03  0.12500000000E+03 0.  0.
         25    1    1    2    0    0 -0.10333806535E+03  0.73149504523E+01  0.79998101248E+02  0.18098884069E+03  0.12500000000E+03 0.  0.
</event>
<event>
 5    0  0.5568866E-005  0.2344357E+03  0.7546771E-02  0.1123556E+00
         21   -1    0    0  502  501  0.00000000000E+00  0.00000000000E+00  0.45778707579E+02  0.45778707579E+02  0.00000000000E+00 0. -1.
         21   -1    0    0  501  502 -0.00000000000E+00 -0.00000000000E+00 -0.12005603495E+04  0.12005603495E+04  0.00000000000E+00 0. -1.
         25    1    1    2    0    0  0.24076788157E+02 -0.12906989422E+03 -0.41754187183E+03  0.45519769777E+03  0.12500000000E+03 0.  0.
         25    1    1    2    0    0  0.53584159729E+01  0.81681053686E+02 -0.41269062691E+03  0.43890666513E+03  0.12500000000E+03 0.  0.
         25    1    1    2    0    0 -0.29435204130E+02  0.47388840532E+02 -0.32454914320E+03  0.35223469420E+03  0.12500000000E+03 0.  0.
</event>
<event>
 5    0  0.5568866E-005  0.2866784E+03  0.7546771E-02  0.1092096E+00
         21   -1    0    0  502  501  0.00000000000E+00  0.00000000000E+00  0.40789713173E+03  0.40789713173E+03  0.00000000000E+00 0. -1.
         21   -1    0    0  501  502 -0.00000000000E+00 -0.00000000000E+00 -0.20148345951E+03  0.20148345951E+03  0.00000000000E+00 0. -1.
         25    1    1    2    0    0 -0.10039205817E+03 -0.48001451838E+02  0.20432611147E+03  0.26411524861E+03  0.12500000000E+03 0.  0.
         25    1    1    2    0    0  0.71708453299E+02 -0.79331431504E+02  0.33913842441E+01  0.16453595287E+03  0.12500000000E+03 0.  0.
         25    1    1    2    0    0  0.28683604873E+02  0.12733288334E+03 -0.13038234941E+01  0.18072938976E+03  0.12500000000E+03 0.  0.
</event>
<event>
 5    0  0.5568866E-005  0.2753487E+03  0.7546771E-02  0.1098257E+00
         21   -1    0    0  502  501  0.00000000000E+00  0.00000000000E+00  0.49558884702E+03  0.49558884702E+03  0.00000000000E+00 0. -1.
         21   -1    0    0  501  502 -0.00000000000E+00 -0.00000000000E+00 -0.15298344180E+03  0.15298344180E+03  0.00000000000E+00 0. -1.
         25    1    1    2    0    0 -0.27420498224E+02 -0.78142834672E+02  0.19069154517E+03  0.24258287601E+03  0.12500000000E+03 0.  0.
         25    1    1    2    0    0 -0.10010792951E+02  0.57558689291E+02 -0.64605347887E+02  0.15235507758E+03  0.12500000000E+03 0.  0.
         25    1    1    2    0    0  0.37431291176E+02  0.20584145381E+02  0.21651920794E+03  0.25363433523E+03  0.12500000000E+03 0.  0.
</event>
<event>
 5    0  0.5568866E-005  0.3808266E+03  0.7546771E-02  0.1050629E+00
         21   -1    0    0  502  501  0.00000000000E+00  0.00000000000E+00  0.56693454875E+03  0.56693454875E+03  0.00000000000E+00 0.  1.
         21   -1    0    0  501  502 -0.00000000000E+00 -0.00000000000E+00 -0.25581235614E+03  0.25581235614E+03  0.00000000000E+00 0.  1.
         25    1    1    2    0    0  0.27866463523E+03 -0.80476784372E+02  0.38136479626E+01  0.31586395119E+03  0.12500000000E+03 0.  0.
         25    1    1    2    0    0 -0.18881272633E+03  0.38312717566E+02  0.11461912416E+03  0.25667226881E+03  0.12500000000E+03 0.  0.
         25    1    1    2    0    0 -0.89851908901E+02  0.42164066806E+02  0.19268942049E+03  0.25021068489E+03  0.12500000000E+03 0.  0.
</event>
<event>
 5    0  0.5568866E-005  0.3936247E+03  0.7546771E-02  0.1046010E+00
         21   -1    0    0  502  501  0.00000000000E+00  0.00000000000E+00  0.22983254642E+03  0.22983254642E+03  0.00000000000E+00 0.  1.
         21   -1    0    0  501  502 -0.00000000000E+00 -0.00000000000E+00 -0.67414484768E+03  0.67414484768E+03  0.00000000000E+00 0.  1.
         25    1    1    2    0    0 -0.15110845249E+03 -0.22161375888E+03 -0.35929249454E+02  0.29809785894E+03  0.12500000000E+03 0.  0.
         25    1    1    2    0    0  0.55990980003E+01  0.12792069023E+03 -0.33560368374E+03  0.38032865449E+03  0.12500000000E+03 0.  0.
         25    1    1    2    0    0  0.14550935449E+03  0.93693068650E+02 -0.72779368070E+02  0.22555088068E+03  0.12500000000E+03 0.  0.
</event>
<event>
 5    0  0.5568866E-005  0.2181455E+03  0.7546771E-02  0.1135273E+00
         21   -1    0    0  502  501  0.00000000000E+00  0.00000000000E+00  0.32623422583E+03  0.32623422583E+03  0.00000000000E+00 0.  1.
         21   -1    0    0  501  502 -0.00000000000E+00 -0.00000000000E+00 -0.14586899345E+03  0.14586899345E+03  0.00000000000E+00 0.  1.
         25    1    1    2    0    0 -0.68532676371E+02  0.39866458504E+02  0.56586512244E+02  0.15847111917E+03  0.12500000000E+03 0.  0.
         25    1    1    2    0    0 -0.71157757751E+01 -0.41503875958E+02  0.10015353058E+03  0.16561683390E+03  0.12500000000E+03 0.  0.
         25    1    1    2    0    0  0.75648452146E+02  0.16374174533E+01  0.23625189555E+02  0.14801526620E+03  0.12500000000E+03 0.  0.
</event>
<event>
 5    0  0.5568866E-005  0.2984136E+03  0.7546771E-02  0.1086036E+00
         21   -1    0    0  502  501  0.00000000000E+00  0.00000000000E+00  0.39251901302E+03  0.39251901302E+03  0.00000000000E+00 0. -1.
         21   -1    0    0  501  502 -0.00000000000E+00 -0.00000000000E+00 -0.22686975645E+03  0.22686975645E+03  0.00000000000E+00 0. -1.
         25    1    1    2    0    0  0.45920819634E+02  0.11256250804E+03  0.10529522256E+03  0.20369370089E+03  0.12500000000E+03 0.  0.
         25    1    1    2    0    0 -0.26770029292E-01 -0.17080675815E+03  0.13625996861E+03  0.25172748835E+03  0.12500000000E+03 0.  0.
         25    1    1    2    0    0 -0.45894049604E+02  0.58244250110E+02 -0.75905934595E+02  0.16396758023E+03  0.12500000000E+03 0.  0.
</event>
<event>
 5    0  0.5568866E-005  0.3046353E+03  0.7546771E-02  0.1082946E+00
         21   -1    0    0  502  501  0.00000000000E+00  0.00000000000E+00  0.15708202766E+03  0.15708202766E+03  0.00000000000E+00 0.  1.
         21   -1    0    0  501  502 -0.00000000000E+00 -0.00000000000E+00 -0.59079125256E+03  0.59079125256E+03  0.00000000000E+00 0.  1.
         25    1    1    2    0    0  0.20413719536E+02 -0.91791532836E+02 -0.54522268852E+02  0.16565048520E+03  0.12500000000E+03 0.  0.
         25    1    1    2    0    0  0.97612331102E+02 -0.56425249409E+02 -0.38235121380E+02  0.17262358026E+03  0.12500000000E+03 0.  0.
         25    1    1    2    0    0 -0.11802605064E+03  0.14821678225E+03 -0.34095183467E+03  0.40959921476E+03  0.12500000000E+03 0.  0.
</event>
<event>
 5    0  0.6567843E-005  0.3264619E+03  0.7546771E-02  0.1072713E+00
         21   -1    0    0  502  501  0.00000000000E+00  0.00000000000E+00  0.17364018742E+03  0.17364018742E+03  0.00000000000E+00 0. -1.
         21   -1    0    0  501  502 -0.00000000000E+00 -0.00000000000E+00 -0.61378303479E+03  0.61378303479E+03  0.00000000000E+00 0. -1.
         25    1    1    2    0    0  0.49817588260E+02 -0.68398023700E+02 -0.48214633915E+02  0.15846050823E+03  0.12500000000E+03 0.  0.
         25    1    1    2    0    0  0.44352653780E+02 -0.87434162777E+02 -0.37523547531E+03  0.40747828488E+03  0.12500000000E+03 0.  0.
         25    1    1    2    0    0 -0.94170242040E+02  0.15583218648E+03 -0.16692738149E+02  0.22148442910E+03  0.12500000000E+03 0.  0.
</event>
<event>
 5    0  0.5568866E-005  0.2707253E+03  0.7546771E-02  0.1100865E+00
         21   -1    0    0  502  501  0.00000000000E+00  0.00000000000E+00  0.10544165652E+03  0.10544165652E+03  0.00000000000E+00 0. -1.
         21   -1    0    0  501  502 -0.00000000000E+00 -0.00000000000E+00 -0.69509733927E+03  0.69509733927E+03  0.00000000000E+00 0. -1.
         25    1    1    2    0    0  0.10399016304E+01  0.30158745721E+02 -0.15973077473E+02  0.12957920567E+03  0.12500000000E+03 0.  0.
         25    1    1    2    0    0  0.31893684529E+02  0.50358666505E+02 -0.46144451188E+03  0.48177716836E+03  0.12500000000E+03 0.  0.
         25    1    1    2    0    0 -0.32933586159E+02 -0.80517412226E+02 -0.11223809339E+03  0.18918262176E+03  0.12500000000E+03 0.  0.
</event>
<event>
 5    0  0.5568866E-005  0.2344916E+03  0.7546771E-02  0.1123518E+00
         21   -1    0    0  502  501  0.00000000000E+00  0.00000000000E+00  0.25259501126E+04  0.25259501126E+04  0.00000000000E+00 0.  1.
         21   -1    0    0  501  502 -0.00000000000E+00 -0.00000000000E+00 -0.21768568946E+02  0.21768568946E+02  0.00000000000E+00 0.  1.
         25    1    1    2    0    0  0.71456095393E+02  0.49864415056E+02  0.10562090555E+04  0.10671433842E+04  0.12500000000E+03 0.  0.
         25    1    1    2    0    0 -0.98680522773E+02 -0.11130216992E+02  0.54972848506E+03  0.57244050746E+03  0.12500000000E+03 0.  0.
         25    1    1    2    0    0  0.27224427381E+02 -0.38734198065E+02  0.89824400310E+03  0.90813478992E+03  0.12500000000E+03 0.  0.
</event>
<event>
 5    0  0.5568866E-005  0.3571783E+03  0.7546771E-02  0.1059707E+00
         21   -1    0    0  502  501  0.00000000000E+00  0.00000000000E+00  0.27109913433E+04  0.27109913433E+04  0.00000000000E+00 0. -1.
         21   -1    0    0  501  502 -0.00000000000E+00 -0.00000000000E+00 -0.47058936740E+02  0.47058936740E+02  0.00000000000E+00 0. -1.
         25    1    1    2    0    0 -0.39413608736E+02  0.90754178791E+02  0.86968507173E+03  0.88417581821E+03  0.12500000000E+03 0.  0.
         25    1    1    2    0    0  0.83390611701E+02 -0.27503175128E+03  0.10553614757E+04  0.11009129406E+04  0.12500000000E+03 0.  0.
         25    1    1    2    0    0 -0.43977002965E+02  0.18427757249E+03  0.73888585916E+03  0.77296152128E+03  0.12500000000E+03 0.  0.
</event>
<event>
 5    0  0.5568866E-005  0.2533602E+03  0.7546771E-02  0.1111199E+00
         21   -1    0    0  502  501  0.00000000000E+00  0.00000000000E+00  0.81105289086E+02  0.81105289086E+02  0.00000000000E+00 0. -1.
         21   -1    0    0  501  502 -0.00000000000E+00 -0.00000000000E+00 -0.79145745554E+03  0.79145745554E+03  0.00000000000E+00 0. -1.
         25    1    1    2    0    0  0.14236269462E+02 -0.73529838308E+02 -0.46678376722E+02  0.15301365737E+03  0.12500000000E+03 0.  0.
         25    1    1    2    0    0 -0.22259830758E+02  0.83474820172E+02 -0.38254440705E+03  0.41161726037E+03  0.12500000000E+03 0.  0.
         25    1    1    2    0    0  0.80235612962E+01 -0.99449818639E+01 -0.28112938267E+03  0.30793182688E+03  0.12500000000E+03 0.  0.
</event>
<event>
 5    0  0.5568866E-005  0.2630041E+03  0.7546771E-02  0.1105352E+00
         21   -1    0    0  502  501  0.00000000000E+00  0.00000000000E+00  0.17881531260E+04  0.17881531260E+04  0.00000000000E+00 0. -1.
         21   -1    0    0  501  502 -0.00000000000E+00 -0.00000000000E+00 -0.38683011376E+02  0.38683011376E+02  0.00000000000E+00 0. -1.
         25    1    1    2    0    0  0.25351117750E+02  0.34337162175E+02  0.89839831475E+03  0.90805630432E+03  0.12500000000E+03 0.  0.
         25    1    1    2    0    0 -0.14635458459E+02  0.72020423659E+02  0.19863424464E+03  0.24593027713E+03  0.12500000000E+03 0.  0.
         25    1    1    2    0    0 -0.10715659291E+02 -0.10635758583E+03  0.65243755528E+03  0.67284955596E+03  0.12500000000E+03 0.  0.
</event>
<event>
 5    0  0.5568866E-005  0.4271808E+03  0.7546771E-02  0.1034754E+00
         21   -1    0    0  502  501  0.00000000000E+00  0.00000000000E+00  0.31174053039E+03  0.31174053039E+03  0.00000000000E+00 0.  1.
         21   -1    0    0  501  502 -0.00000000000E+00 -0.00000000000E+00 -0.58536970438E+03  0.58536970438E+03  0.00000000000E+00 0.  1.
         25    1    1    2    0    0 -0.21809306605E+02 -0.32781927987E+03 -0.22072331230E+03  0.41507217048E+03  0.12500000000E+03 0.  0.
         25    1    1    2    0    0  0.18865904405E+02  0.29136681805E+03  0.42710308358E+02  0.32046796322E+03  0.12500000000E+03 0.  0.
         25    1    1    2    0    0  0.29434022003E+01  0.36452461823E+02 -0.95616170047E+02  0.16157010108E+03  0.12500000000E+03 0.  0.
</event>
<event>
 5    0  0.5568866E-005  0.2737221E+03  0.7546771E-02  0.1099168E+00
         21   -1    0    0  502  501  0.00000000000E+00  0.00000000000E+00  0.11568528586E+04  0.11568528586E+04  0.00000000000E+00 0.  1.
         21   -1    0    0  501  502 -0.00000000000E+00 -0.00000000000E+00 -0.64765194822E+02  0.64765194822E+02  0.00000000000E+00 0.  1.
         25    1    1    2    0    0  0.74744303965E+02 -0.84023620005E+02  0.79507072218E+03  0.81265560539E+03  0.12500000000E+03 0.  0.
         25    1    1    2    0    0 -0.73159327135E+01  0.50305500777E+02  0.15056692019E+03  0.20218695244E+03  0.12500000000E+03 0.  0.
         25    1    1    2    0    0 -0.67428371252E+02  0.33718119227E+02  0.14645002143E+03  0.20677549562E+03  0.12500000000E+03 0.  0.
</event>
<event>
 5    0  0.5568866E-005  0.2494096E+03  0.7546771E-02  0.1113679E+00
         21   -1    0    0  502  501  0.00000000000E+00  0.00000000000E+00  0.12316609679E+03  0.12316609679E+03  0.00000000000E+00 0. -1.
         21   -1    0    0  501  502 -0.00000000000E+00 -0.00000000000E+00 -0.50505071962E+03  0.50505071962E+03  0.00000000000E+00 0. -1.
         25    1    1    2    0    0 -0.54160616790E+01  0.52462797503E+02  0.44626925554E+01  0.13574459279E+03  0.12500000000E+03 0.  0.
         25    1    1    2    0    0 -0.40771260950E+02 -0.60914301969E+02 -0.98652121481E+02  0.17529999708E+03  0.12500000000E+03 0.  0.
         25    1    1    2    0    0  0.46187322629E+02  0.84515044661E+01 -0.28769519391E+03  0.31717222655E+03  0.12500000000E+03 0.  0.
</event>
<event>
 5    0  0.5568866E-005  0.4616245E+03  0.7546771E-02  0.1024311E+00
         21   -1    0    0  502  501  0.00000000000E+00  0.00000000000E+00  0.65116749980E+03  0.65116749980E+03  0.00000000000E+00 0.  1.
         21   -1    0    0  501  502 -0.00000000000E+00 -0.00000000000E+00 -0.32725399517E+03  0.32725399517E+03  0.00000000000E+00 0.  1.
         25    1    1    2    0    0  0.40197460128E+02  0.35715661777E+03  0.25443915305E+03  0.45775645055E+03  0.12500000000E+03 0.  0.
         25    1    1    2    0    0 -0.36856532064E+02  0.69628548587E+01  0.75516257934E+01  0.13072456676E+03  0.12500000000E+03 0.  0.
         25    1    1    2    0    0 -0.33409280643E+01 -0.36411947263E+03  0.61922725782E+02  0.38994047765E+03  0.12500000000E+03 0.  0.
</event>
<event>
 5    0  0.5568866E-005  0.2519935E+03  0.7546771E-02  0.1112051E+00
         21   -1    0    0  502  501  0.00000000000E+00  0.00000000000E+00  0.53447745214E+03  0.53447745214E+03  0.00000000000E+00 0.  1.
         21   -1    0    0  501  502 -0.00000000000E+00 -0.00000000000E+00 -0.11880901853E+03  0.11880901853E+03  0.00000000000E+00 0.  1.
         25    1    1    2    0    0 -0.25082210810E+01 -0.95588128319E+00  0.28573672443E+03  0.31189370075E+03  0.12500000000E+03 0.  0.
         25    1    1    2    0    0 -0.14652732769E+02  0.43880246302E+02  0.15642691774E+03  0.20551048437E+03  0.12500000000E+03 0.  0.
         25    1    1    2    0    0  0.17160953850E+02 -0.42924365019E+02 -0.26495208554E+02  0.13588228555E+03  0.12500000000E+03 0.  0.
</event>
<event>
 5    0  0.5568866E-005  0.2844017E+03  0.7546771E-02  0.1093309E+00
         21   -1    0    0  502  501  0.00000000000E+00  0.00000000000E+00  0.20988049795E+03  0.20988049795E+03  0.00000000000E+00 0.  1.
         21   -1    0    0  501  502 -0.00000000000E+00 -0.00000000000E+00 -0.38538289806E+03  0.38538289806E+03  0.00000000000E+00 0.  1.
         25    1    1    2    0    0 -0.56243863396E+02  0.21154093848E+02  0.14337445790E+00  0.13869350530E+03  0.12500000000E+03 0.  0.
         25    1    1    2    0    0 -0.12486796394E+03  0.57259970523E+02 -0.10044287149E+03  0.21115038024E+03  0.12500000000E+03 0.  0.
         25    1    1    2    0    0  0.18111182733E+03 -0.78414064371E+02 -0.75202903082E+02  0.24541951048E+03  0.12500000000E+03 0.  0.
</event>
<event>
 5    0  0.5568866E-005  0.4310762E+03  0.7546771E-02  0.1033521E+00
         21   -1    0    0  502  501  0.00000000000E+00  0.00000000000E+00  0.84912875960E+03  0.84912875960E+03  0.00000000000E+00 0.  1.
         21   -1    0    0  501  502 -0.00000000000E+00 -0.00000000000E+00 -0.21884394112E+03  0.21884394112E+03  0.00000000000E+00 0.  1.
         25    1    1    2    0    0 -0.37758209807E+02 -0.10772533259E+03  0.17153637092E+03  0.24099824945E+03  0.12500000000E+03 0.  0.
         25    1    1    2    0    0 -0.27233125156E+03  0.16285159569E+03  0.29364458705E+03  0.45004121622E+03  0.12500000000E+03 0.  0.
         25    1    1    2    0    0  0.31008946137E+03 -0.55126263098E+02  0.16510386050E+03  0.37693323505E+03  0.12500000000E+03 0.  0.
</event>
<event>
 5    0  0.5568866E-005  0.3207220E+03  0.7546771E-02  0.1075318E+00
         21   -1    0    0  502  501  0.00000000000E+00  0.00000000000E+00  0.19942862133E+04  0.19942862133E+04  0.00000000000E+00 0.  1.
         21   -1    0    0  501  502 -0.00000000000E+00 -0.00000000000E+00 -0.51578640724E+02  0.51578640724E+02  0.00000000000E+00 0.  1.
         25    1    1    2    0    0 -0.28091300123E+02  0.15964557405E+02  0.12620184602E+04  0.12686053690E+04  0.12500000000E+03 0.  0.
         25    1    1    2    0    0  0.99753701961E+02 -0.11680753596E+03  0.32790235231E+03  0.38306625297E+03  0.12500000000E+03 0.  0.
         25    1    1    2    0    0 -0.71662401838E+02  0.10084297856E+03  0.35278676006E+03  0.39419323210E+03  0.12500000000E+03 0.  0.
</event>
<event>
 5    0  0.5568866E-005  0.3349707E+03  0.7546771E-02  0.1068958E+00
         21   -1    0    0  502  501  0.00000000000E+00  0.00000000000E+00  0.15939742389E+03  0.15939742389E+03  0.00000000000E+00 0.  1.
         21   -1    0    0  501  502 -0.00000000000E+00 -0.00000000000E+00 -0.70393471299E+03  0.70393471299E+03  0.00000000000E+00 0.  1.
         25    1    1    2    0    0  0.19219129719E+03  0.17925867000E+03 -0.17517807207E+03  0.33968150144E+03  0.12500000000E+03 0.  0.
         25    1    1    2    0    0 -0.92896735775E+02 -0.10217912791E+03 -0.13618696126E+03  0.23074285713E+03  0.12500000000E+03 0.  0.
         25    1    1    2    0    0 -0.99294561415E+02 -0.77079542087E+02 -0.23317225577E+03  0.29290777831E+03  0.12500000000E+03 0.  0.
</event>
<event>
 5    0  0.7262008E-005  0.3127033E+03  0.7546771E-02  0.1079057E+00
         21   -1    0    0  502  501  0.00000000000E+00  0.00000000000E+00  0.33423954170E+03  0.33423954170E+03  0.00000000000E+00 0.  1.
         21   -1    0    0  501  502 -0.00000000000E+00 -0.00000000000E+00 -0.29255480164E+03  0.29255480164E+03  0.00000000000E+00 0.  1.
         25    1    1    2    0    0 -0.76657740359E+02 -0.43163845730E+02  0.17967070098E+03  0.23589422953E+03  0.12500000000E+03 0.  0.
         25    1    1    2    0    0  0.14579537983E+03  0.20777009780E+02 -0.31430345707E+01  0.19319124095E+03  0.12500000000E+03 0.  0.
         25    1    1    2    0    0 -0.69137639471E+02  0.22386835951E+02 -0.13484292636E+03  0.19770887285E+03  0.12500000000E+03 0.  0.
</event>
<event>
 5    0  0.5568866E-005  0.3151422E+03  0.7546771E-02  0.1077907E+00
         21   -1    0    0  502  501  0.00000000000E+00  0.00000000000E+00  0.66016032041E+03  0.66016032041E+03  0.00000000000E+00 0.  1.
         21   -1    0    0  501  502 -0.00000000000E+00 -0.00000000000E+00 -0.15044009523E+03  0.15044009523E+03  0.00000000000E+00 0.  1.
         25    1    1    2    0    0  0.12804917262E+02  0.11337919740E+03  0.15854422794E+03  0.23190532664E+03  0.12500000000E+03 0.  0.
         25    1    1    2    0    0  0.10916810982E+03  0.91603351170E+02  0.16493820674E+03  0.25127367986E+03  0.12500000000E+03 0.  0.
         25    1    1    2    0    0 -0.12197302708E+03 -0.20498254857E+03  0.18623779050E+03  0.32742140914E+03  0.12500000000E+03 0.  0.
</event>
<event>
 5    0  0.5568866E-005  0.3244213E+03  0.7546771E-02  0.1073632E+00
         21   -1    0    0  502  501  0.00000000000E+00  0.00000000000E+00  0.13296904335E+04  0.13296904335E+04  0.00000000000E+00 0. -1.
         21   -1    0    0  501  502 -0.00000000000E+00 -0.00000000000E+00 -0.79153136430E+02  0.79153136430E+02  0.00000000000E+00 0. -1.
         25    1    1    2    0    0  0.33054227651E+02 -0.13637447578E+03  0.15368965476E+03  0.24276756289E+03  0.12500000000E+03 0.  0.
         25    1    1    2    0    0 -0.11195736731E+03 -0.18025639812E+02  0.63695678403E+03  0.65893726599E+03  0.12500000000E+03 0.  0.
         25    1    1    2    0    0  0.78903139662E+02  0.15440011560E+03  0.45989085825E+03  0.50713874102E+03  0.12500000000E+03 0.  0.
</event>
<event>
 5    0  0.5568866E-005  0.3298984E+03  0.7546771E-02  0.1071182E+00
         21   -1    0    0  502  501  0.00000000000E+00  0.00000000000E+00  0.11654813463E+03  0.11654813463E+03  0.00000000000E+00 0.  1.
         21   -1    0    0  501  502 -0.00000000000E+00 -0.00000000000E+00 -0.93380288646E+03  0.93380288646E+03  0.00000000000E+00 0.  1.
         25    1    1    2    0    0  0.33142828083E+02 -0.13335204112E+02 -0.78472329393E+02  0.15185249818E+03  0.12500000000E+03 0.  0.
         25    1    1    2    0    0 -0.99344669427E+02 -0.17806638729E+03 -0.20863743402E+03  0.31738238845E+03  0.12500000000E+03 0.  0.
         25    1    1    2    0    0  0.66201841344E+02  0.19140159140E+03 -0.53014498842E+03  0.58111613446E+03  0.12500000000E+03 0.  0.
</event>
<event>
 5    0  0.5568866E-005  0.5743364E+03  0.7546771E-02  0.9960128E-01
         21   -1    0    0  502  501  0.00000000000E+00  0.00000000000E+00  0.57353290282E+03  0.57353290282E+03  0.00000000000E+00 0. -1.
         21   -1    0    0  501  502 -0.00000000000E+00 -0.00000000000E+00 -0.57514097729E+03  0.57514097729E+03  0.00000000000E+00 0. -1.
         25    1    1    2    0    0 -0.10215939323E+03  0.89808518108E+02 -0.46262121600E+03  0.49814204906E+03  0.12500000000E+03 0.  0.
         25    1    1    2    0    0  0.21276161475E+03 -0.59262432856E+01  0.15332530075E+03  0.29057920250E+03  0.12500000000E+03 0.  0.
         25    1    1    2    0    0 -0.11060222152E+03 -0.83882274823E+02  0.30768784079E+03  0.35995262855E+03  0.12500000000E+03 0.  0.
</event>
<event>
 5    0  0.5568866E-005  0.3967840E+03  0.7546771E-02  0.1044899E+00
         21   -1    0    0  502  501  0.00000000000E+00  0.00000000000E+00  0.18990655765E+04  0.18990655765E+04  0.00000000000E+00 0.  1.
         21   -1    0    0  501  502 -0.00000000000E+00 -0.00000000000E+00 -0.82902655832E+02  0.82902655832E+02  0.00000000000E+00 0.  1.
         25    1    1    2    0    0 -0.45689954855E+02 -0.10071602195E+03  0.11114606765E+04  0.11239222057E+04  0.12500000000E+03 0.  0.
         25    1    1    2    0    0  0.10375191779E+03  0.19154696669E+03  0.18273020656E+03  0.31059624802E+03  0.12500000000E+03 0.  0.
         25    1    1    2    0    0 -0.58061962934E+02 -0.90830944744E+02  0.52197203755E+03  0.54744977856E+03  0.12500000000E+03 0.  0.
</event>
<event>
 5    0  0.5568866E-005  0.2913805E+03  0.7546771E-02  0.1089631E+00
         21   -1    0    0  502  501  0.00000000000E+00  0.00000000000E+00  0.81811943018E+03  0.81811943018E+03  0.00000000000E+00 0.  1.
         21   -1    0    0  501  502 -0.00000000000E+00 -0.00000000000E+00 -0.10377777859E+03  0.10377777859E+03  0.00000000000E+00 0.  1.
         25    1    1    2    0    0  0.79200424206E+02  0.11921074089E+03  0.91730589698E+02  0.21100570851E+03  0.12500000000E+03 0.  0.
         25    1    1    2    0    0 -0.10504492719E+03 -0.12339356300E+03  0.46490633172E+03  0.50795994467E+03  0.12500000000E+03 0.  0.
         25    1    1    2    0    0  0.25844502983E+02  0.41828221071E+01  0.15770473017E+03  0.20293155559E+03  0.12500000000E+03 0.  0.
</event>
<event>
 5    0  0.5568866E-005  0.3368365E+03  0.7546771E-02  0.1068151E+00
         21   -1    0    0  502  501  0.00000000000E+00  0.00000000000E+00  0.94597599816E+02  0.94597599816E+02  0.00000000000E+00 0.  1.
         21   -1    0    0  501  502 -0.00000000000E+00 -0.00000000000E+00 -0.11993837097E+04  0.11993837097E+04  0.00000000000E+00 0.  1.
         25    1    1    2    0    0 -0.70925244983E+01  0.14840096790E+03 -0.31534961933E+03  0.37032895322E+03  0.12500000000E+03 0.  0.
         25    1    1    2    0    0  0.30381197238E+02  0.10055877474E+03 -0.47817777007E+03  0.50528612104E+03  0.12500000000E+03 0.  0.
         25    1    1    2    0    0 -0.23288672740E+02 -0.24895974264E+03 -0.31125872048E+03  0.41836623526E+03  0.12500000000E+03 0.  0.
</event>
<event>
 5    0  0.5568866E-005  0.3657677E+03  0.7546771E-02  0.1056323E+00
         21   -1    0    0  502  501  0.00000000000E+00  0.00000000000E+00  0.16521175375E+03  0.16521175375E+03  0.00000000000E+00 0. -1.
         21   -1    0    0  501  502 -0.00000000000E+00 -0.00000000000E+00 -0.80978500073E+03  0.80978500073E+03  0.00000000000E+00 0. -1.
         25    1    1    2    0    0  0.86236605760E+01  0.16873693723E+02 -0.10101591278E+02  0.12683111293E+03  0.12500000000E+03 0.  0.
         25    1    1    2    0    0 -0.10129370324E+03  0.21426718265E+03 -0.41266098143E+03  0.49202126526E+03  0.12500000000E+03 0.  0.
         25    1    1    2    0    0  0.92670042663E+02 -0.23114087637E+03 -0.22181067427E+03  0.35614437628E+03  0.12500000000E+03 0.  0.
</event>
<event>
 5    0  0.5568866E-005  0.2406045E+03  0.7546771E-02  0.1119391E+00
         21   -1    0    0  502  501  0.00000000000E+00  0.00000000000E+00  0.95250090024E+02  0.95250090024E+02  0.00000000000E+00 0. -1.
         21   -1    0    0  501  502 -0.00000000000E+00 -0.00000000000E+00 -0.60777397434E+03  0.60777397434E+03  0.00000000000E+00 0. -1.
         25    1    1    2    0    0  0.70417700039E+02 -0.43426826260E+02 -0.16792049245E+03  0.22509294414E+03  0.12500000000E+03 0.  0.
         25    1    1    2    0    0 -0.88309938134E+01  0.91210081737E+02 -0.78414806091E+02  0.17369843775E+03  0.12500000000E+03 0.  0.
         25    1    1    2    0    0 -0.61586706225E+02 -0.47783255477E+02 -0.26618858578E+03  0.30423268248E+03  0.12500000000E+03 0.  0.
</event>
<event>
 5    0  0.5835637E-005  0.3546084E+03  0.7546771E-02  0.1060739E+00
         21   -1    0    0  502  501  0.00000000000E+00  0.00000000000E+00  0.93768648059E+02  0.93768648059E+02  0.00000000000E+00 0. -1.
         21   -1    0    0  501  502 -0.00000000000E+00 -0.00000000000E+00 -0.13410360202E+04  0.13410360202E+04  0.00000000000E+00 0. -1.
         25    1    1    2    0    0 -0.37010656262E+02 -0.18730528724E+03 -0.24557502039E+03  0.33523894455E+03  0.12500000000E+03 0.  0.
         25    1    1    2    0    0  0.15821111844E+03  0.20353109664E+02 -0.34694981853E+03  0.40180117428E+03  0.12500000000E+03 0.  0.
         25    1    1    2    0    0 -0.12120046218E+03  0.16695217758E+03 -0.65474253322E+03  0.69776454943E+03  0.12500000000E+03 0.  0.
</event>
<event>
 5    0  0.5568866E-005  0.2405119E+03  0.7546771E-02  0.1119452E+00
         21   -1    0    0  502  501  0.00000000000E+00  0.00000000000E+00  0.32538294505E+03  0.32538294505E+03  0.00000000000E+00 0.  1.
         21   -1    0    0  501  502 -0.00000000000E+00 -0.00000000000E+00 -0.17777818692E+03  0.17777818692E+03  0.00000000000E+00 0.  1.
         25    1    1    2    0    0 -0.18054209783E+02  0.17083346277E+02  0.10821354622E+03  0.16719140767E+03  0.12500000000E+03 0.  0.
         25    1    1    2    0    0 -0.70518445722E+02 -0.14459474787E+02 -0.56833095770E+02  0.15503847385E+03  0.12500000000E+03 0.  0.
         25    1    1    2    0    0  0.88572655505E+02 -0.26238714900E+01  0.96224307670E+02  0.18093125046E+03  0.12500000000E+03 0.  0.
</event>
<event>
 5    0  0.5568866E-005  0.3653372E+03  0.7546771E-02  0.1056490E+00
         21   -1    0    0  502  501  0.00000000000E+00  0.00000000000E+00  0.36889555448E+03  0.36889555448E+03  0.00000000000E+00 0.  1.
         21   -1    0    0  501  502 -0.00000000000E+00 -0.00000000000E+00 -0.36181323083E+03  0.36181323083E+03  0.00000000000E+00 0.  1.
         25    1    1    2    0    0 -0.13589099431E+03  0.45194200444E+02  0.26411022920E+03  0.32540450405E+03  0.12500000000E+03 0.  0.
         25    1    1    2    0    0  0.12978264497E+03 -0.37954855750E+02 -0.12109963988E+03  0.22039561881E+03  0.12500000000E+03 0.  0.
         25    1    1    2    0    0  0.61083493436E+01 -0.72393446938E+01 -0.13592826567E+03  0.18490866245E+03  0.12500000000E+03 0.  0.
</event>
<event>
 5    0  0.5568866E-005  0.4316006E+03  0.7546771E-02  0.1033356E+00
         21   -1    0    0  502  501  0.00000000000E+00  0.00000000000E+00  0.24425193672E+03  0.24425193672E+03  0.00000000000E+00 0.  1.
         21   -1    0    0  501  502 -0.00000000000E+00 -0.00000000000E+00 -0.76265137932E+03  0.76265137932E+03  0.00000000000E+00 0.  1.
         25    1    1    2    0    0  0.50410176467E+02  0.11679846303E+03 -0.29834363703E+03  0.34758738846E+03  0.12500000000E+03 0.  0.
         25    1    1    2    0    0 -0.24292432853E+03 -0.11416691669E+03  0.54893603145E+02  0.30113887482E+03  0.12500000000E+03 0.  0.
         25    1    1    2    0    0  0.19251415207E+03 -0.26315463369E+01 -0.27494940871E+03  0.35817705277E+03  0.12500000000E+03 0.  0.
</event>
<event>
 5    0  0.5568866E-005  0.4426505E+03  0.7546771E-02  0.1029937E+00
         21   -1    0    0  502  501  0.00000000000E+00  0.00000000000E+00  0.44809550114E+03  0.44809550114E+03  0.00000000000E+00 0. -1.
         21   -1    0    0  501  502 -0.00000000000E+00 -0.00000000000E+00 -0.43727174600E+03  0.43727174600E+03  0.00000000000E+00 0. -1.
         25    1    1    2    0    0 -0.79729541800E+02 -0.68681917785E+02 -0.20018201323E+03  0.25840248468E+03  0.12500000000E+03 0.  0.
         25    1    1    2    0    0 -0.12618539608E+03 -0.64421805606E+02 -0.98270135944E+02  0.21296699941E+03  0.12500000000E+03 0.  0.
         25    1    1    2    0    0  0.20591493788E+03  0.13310372339E+03  0.30927590432E+03  0.41399776305E+03  0.12500000000E+03 0.  0.
</event>
<event>
 5    0  0.5568866E-005  0.3573774E+03  0.7546771E-02  0.1059627E+00
         21   -1    0    0  502  501  0.00000000000E+00  0.00000000000E+00  0.10342852978E+03  0.10342852978E+03  0.00000000000E+00 0.  1.
         21   -1    0    0  501  502 -0.00000000000E+00 -0.00000000000E+00 -0.12348487982E+04  0.12348487982E+04  0.00000000000E+00 0.  1.
         25    1    1    2    0    0 -0.30697179335E+02  0.86261642157E+02 -0.64348052185E+03  0.66187277458E+03  0.12500000000E+03 0.  0.
         25    1    1    2    0    0 -0.16876414881E+03 -0.60701212701E+02 -0.15554814874E+03  0.26830244450E+03  0.12500000000E+03 0.  0.
         25    1    1    2    0    0  0.19946132815E+03 -0.25560429456E+02 -0.33239159784E+03  0.40810210891E+03  0.12500000000E+03 0.  0.
</event>
<event>
 5    0  0.5568866E-005  0.2858309E+03  0.7546771E-02  0.1092546E+00
         21   -1    0    0  502  501  0.00000000000E+00  0.00000000000E+00  0.78386396564E+03  0.78386396564E+03  0.00000000000E+00 0. -1.
         21   -1    0    0  501  502 -0.00000000000E+00 -0.00000000000E+00 -0.10422636706E+03  0.10422636706E+03  0.00000000000E+00 0. -1.
         25    1    1    2    0    0 -0.11477302845E+03 -0.19574709542E+02  0.34217432173E+02  0.17421782337E+03  0.12500000000E+03 0.  0.
         25    1    1    2    0    0  0.22691157436E+02  0.47647445385E+02  0.20307372144E+03  0.24423166056E+03  0.12500000000E+03 0.  0.
         25    1    1    2    0    0  0.92081871016E+02 -0.28072735843E+02  0.44234644497E+03  0.46964084878E+03  0.12500000000E+03 0.  0.
</event>
<event>
 5    0  0.5568866E-005  0.3663777E+03  0.7546771E-02  0.1056087E+00
         21   -1    0    0  502  501  0.00000000000E+00  0.00000000000E+00  0.32206964920E+03  0.32206964920E+03  0.00000000000E+00 0.  1.
         21   -1    0    0  501  502 -0.00000000000E+00 -0.00000000000E+00 -0.41678136381E+03  0.41678136381E+03  0.00000000000E+00 0.  1.
         25    1    1    2    0    0  0.10622477521E+03  0.47110338319E+02  0.77404052321E+02  0.18740190544E+03  0.12500000000E+03 0.  0.
         25    1    1    2    0    0 -0.22768398539E+03  0.11636705727E+03 -0.83889346148E+02  0.29672160625E+03  0.12500000000E+03 0.  0.
         25    1    1    2    0    0  0.12145921018E+03 -0.16347739559E+03 -0.88226420785E+02  0.25472750132E+03  0.12500000000E+03 0.  0.
</event>
<event>
 5    0  0.5568866E-005  0.3022884E+03  0.7546771E-02  0.1084102E+00
         21   -1    0    0  502  501  0.00000000000E+00  0.00000000000E+00  0.30654370053E+03  0.30654370053E+03  0.00000000000E+00 0.  1.
         21   -1    0    0  501  502 -0.00000000000E+00 -0.00000000000E+00 -0.29809223535E+03  0.29809223535E+03  0.00000000000E+00 0.  1.
         25    1    1    2    0    0 -0.90155696288E+02  0.32131568660E+02 -0.12909327053E+03  0.20359410545E+03  0.12500000000E+03 0.  0.
         25    1    1    2    0    0  0.10854487346E+03  0.68172710688E+02 -0.14158405656E+02  0.17959668284E+03  0.12500000000E+03 0.  0.
         25    1    1    2    0    0 -0.18389177171E+02 -0.10030427935E+03  0.15170314136E+03  0.22144514759E+03  0.12500000000E+03 0.  0.
</event>
<event>
 5    0  0.5568866E-005  0.2689717E+03  0.7546771E-02  0.1101870E+00
         21   -1    0    0  502  501  0.00000000000E+00  0.00000000000E+00  0.40099173842E+02  0.40099173842E+02  0.00000000000E+00 0.  1.
         21   -1    0    0  501  502 -0.00000000000E+00 -0.00000000000E+00 -0.18041706615E+04  0.18041706615E+04  0.00000000000E+00 0.  1.
         25    1    1    2    0    0 -0.68484419890E+02 -0.12261942468E+03 -0.10507940026E+04  0.10674824003E+04  0.12500000000E+03 0.  0.
         25    1    1    2    0    0  0.67424699789E+02  0.58380238037E+02 -0.25725897137E+03  0.29960227083E+03  0.12500000000E+03 0.  0.
         25    1    1    2    0    0  0.10597201011E+01  0.64239186646E+02 -0.45601851368E+03  0.47718516419E+03  0.12500000000E+03 0.  0.
</event>
<event>
 5    0  0.5568866E-005  0.2700457E+03  0.7546771E-02  0.1101253E+00
         21   -1    0    0  502  501  0.00000000000E+00  0.00000000000E+00  0.37524749141E+03  0.37524749141E+03  0.00000000000E+00 0. -1.
         21   -1    0    0  501  502 -0.00000000000E+00 -0.00000000000E+00 -0.19433749496E+03  0.19433749496E+03  0.00000000000E+00 0. -1.
         25    1    1    2    0    0  0.12574419842E+03 -0.10333576153E+03  0.75722044871E+02  0.21874348248E+03  0.12500000000E+03 0.  0.
         25    1    1    2    0    0 -0.44236458781E+02  0.12177137387E+03  0.85155146688E+02  0.19915202933E+03  0.12500000000E+03 0.  0.
         25    1    1    2    0    0 -0.81507739637E+02 -0.18435612340E+02  0.20032804890E+02  0.15168947457E+03  0.12500000000E+03 0.  0.
</event>
<event>
 5    0  0.5568866E-005  0.2331006E+03  0.7546771E-02  0.1124476E+00
         21   -1    0    0  502  501  0.00000000000E+00  0.00000000000E+00  0.74826380523E+02  0.74826380523E+02  0.00000000000E+00 0.  1.
         21   -1    0    0  501  502 -0.00000000000E+00 -0.00000000000E+00 -0.72615977505E+03  0.72615977505E+03  0.00000000000E+00 0.  1.
         25    1    1    2    0    0 -0.72307956769E+02 -0.35365217691E+02 -0.85707866094E+02  0.17160995759E+03  0.12500000000E+03 0.  0.
         25    1    1    2    0    0  0.55454482347E+02 -0.19846615968E+02 -0.27315725962E+03  0.30611921903E+03  0.12500000000E+03 0.  0.
         25    1    1    2    0    0  0.16853474422E+02  0.55211833659E+02 -0.29246826882E+03  0.32325697895E+03  0.12500000000E+03 0.  0.
</event>
<event>
 5    0  0.5568866E-005  0.4273165E+03  0.7546771E-02  0.1034711E+00
         21   -1    0    0  502  501  0.00000000000E+00  0.00000000000E+00  0.58585023426E+03  0.58585023426E+03  0.00000000000E+00 0. -1.
         21   -1    0    0  501  502 -0.00000000000E+00 -0.00000000000E+00 -0.31168270797E+03  0.31168270797E+03  0.00000000000E+00 0. -1.
         25    1    1    2    0    0  0.17778600028E+03 -0.13717188237E+03 -0.27533105178E+02  0.25847061552E+03  0.12500000000E+03 0.  0.
         25    1    1    2    0    0 -0.13056217549E+03 -0.98548352547E+02 -0.32925840034E+02  0.20848829800E+03  0.12500000000E+03 0.  0.
         25    1    1    2    0    0 -0.47223824790E+02  0.23572023491E+03  0.33462647150E+03  0.43057402872E+03  0.12500000000E+03 0.  0.
</event>
<event>
 5    0  0.5568866E-005  0.2237027E+03  0.7546771E-02  0.1131152E+00
         21   -1    0    0  502  501  0.00000000000E+00  0.00000000000E+00  0.86700641993E+03  0.86700641993E+03  0.00000000000E+00 0.  1.
         21   -1    0    0  501  502 -0.00000000000E+00 -0.00000000000E+00 -0.57719168501E+02  0.57719168501E+02  0.00000000000E+00 0.  1.
         25    1    1    2    0    0  0.81133304959E+02 -0.15332028109E+01  0.33465743077E+03  0.36634077012E+03  0.12500000000E+03 0.  0.
         25    1    1    2    0    0 -0.29868620800E+02 -0.50997134215E+02  0.15677426368E+03  0.20903591069E+03  0.12500000000E+03 0.  0.
         25    1    1    2    0    0 -0.51264684159E+02  0.52530337026E+02  0.31785555698E+03  0.34934890762E+03  0.12500000000E+03 0.  0.
</event>
<event>
 5    0  0.5568866E-005  0.3241423E+03  0.7546771E-02  0.1073759E+00
         21   -1    0    0  502  501  0.00000000000E+00  0.00000000000E+00  0.13113896350E+04  0.13113896350E+04  0.00000000000E+00 0. -1.
         21   -1    0    0  501  502 -0.00000000000E+00 -0.00000000000E+00 -0.80119766036E+02  0.80119766036E+02  0.00000000000E+00 0. -1.
         25    1    1    2    0    0 -0.23633335397E+02  0.10973221563E+03  0.81242995736E+02  0.18661489235E+03  0.12500000000E+03 0.  0.
         25    1    1    2    0    0  0.12256292342E+03 -0.28174064847E+02  0.49356595307E+03  0.52444999586E+03  0.12500000000E+03 0.  0.
         25    1    1    2    0    0 -0.98929588021E+02 -0.81558150788E+02  0.65646092017E+03  0.68044451284E+03  0.12500000000E+03 0.  0.
</event>
<event>
 5    0  0.5568866E-005  0.2668869E+03  0.7546771E-02  0.1103075E+00
         21   -1    0    0  502  501  0.00000000000E+00  0.00000000000E+00  0.45498387932E+03  0.45498387932E+03  0.00000000000E+00 0.  1.
         21   -1    0    0  501  502 -0.00000000000E+00 -0.00000000000E+00 -0.15655190567E+03  0.15655190567E+03  0.00000000000E+00 0.  1.
         25    1    1    2    0    0 -0.86748384061E+02  0.71534063231E+02  0.11893235657E+03  0.20594249143E+03  0.12500000000E+03 0.  0.
         25    1    1    2    0    0  0.14099147133E+02 -0.80329625201E+02  0.20993588472E+03  0.25758437516E+03  0.12500000000E+03 0.  0.
         25    1    1    2    0    0  0.72649236928E+02  0.87955619699E+01 -0.30436267641E+02  0.14800891840E+03  0.12500000000E+03 0.  0.
</event>
<event>
 5    0  0.5568866E-005  0.3489530E+03  0.7546771E-02  0.1063046E+00
         21   -1    0    0  502  501  0.00000000000E+00  0.00000000000E+00  0.48986264087E+03  0.48986264087E+03  0.00000000000E+00 0. -1.
         21   -1    0    0  501  502 -0.00000000000E+00 -0.00000000000E+00 -0.24857624273E+03  0.24857624273E+03  0.00000000000E+00 0. -1.
         25    1    1    2    0    0  0.96852539286E+02  0.93925362266E+02  0.13567425082E+03  0.22854953594E+03  0.12500000000E+03 0.  0.
         25    1    1    2    0    0  0.12622894647E+03  0.26885210315E+02  0.13614850753E+03  0.22542843113E+03  0.12500000000E+03 0.  0.
         25    1    1    2    0    0 -0.22308148576E+03 -0.12081057258E+03 -0.30536360203E+02  0.28446091652E+03  0.12500000000E+03 0.  0.
</event>
<event>
 5    0  0.5568866E-005  0.3342432E+03  0.7546771E-02  0.1069275E+00
         21   -1    0    0  502  501  0.00000000000E+00  0.00000000000E+00  0.39671108830E+03  0.39671108830E+03  0.00000000000E+00 0. -1.
         21   -1    0    0  501  502 -0.00000000000E+00 -0.00000000000E+00 -0.28161171938E+03  0.28161171938E+03  0.00000000000E+00 0. -1.
         25    1    1    2    0    0  0.29940893952E+02  0.38731215572E+02  0.17555186163E+02  0.13538740248E+03  0.12500000000E+03 0.  0.
         25    1    1    2    0    0 -0.23728305358E+03  0.75009584219E+01 -0.21601477292E+02  0.26916748636E+03  0.12500000000E+03 0.  0.
         25    1    1    2    0    0  0.20734215963E+03 -0.46232173994E+02  0.11914566004E+03  0.27376791883E+03  0.12500000000E+03 0.  0.
</event>
<event>
 5    0  0.5568866E-005  0.2559046E+03  0.7546771E-02  0.1109629E+00
         21   -1    0    0  502  501  0.00000000000E+00  0.00000000000E+00  0.14956847979E+03  0.14956847979E+03  0.00000000000E+00 0. -1.
         21   -1    0    0  501  502 -0.00000000000E+00 -0.00000000000E+00 -0.43784075529E+03  0.43784075529E+03  0.00000000000E+00 0. -1.
         25    1    1    2    0    0  0.96269880568E+02 -0.54578777549E+02 -0.21101055363E+03  0.26906725294E+03  0.12500000000E+03 0.  0.
         25    1    1    2    0    0 -0.19824441042E+02  0.82559608547E+02 -0.76047536580E+02  0.16916656066E+03  0.12500000000E+03 0.  0.
         25    1    1    2    0    0 -0.76445439526E+02 -0.27980830998E+02 -0.12141852961E+01  0.14917542148E+03  0.12500000000E+03 0.  0.
</event>
<event>
 5    0  0.5568866E-005  0.3425014E+03  0.7546771E-02  0.1065736E+00
         21   -1    0    0  502  501  0.00000000000E+00  0.00000000000E+00  0.12123954751E+03  0.12123954751E+03  0.00000000000E+00 0.  1.
         21   -1    0    0  501  502 -0.00000000000E+00 -0.00000000000E+00 -0.96756559638E+03  0.96756559638E+03  0.00000000000E+00 0.  1.
         25    1    1    2    0    0  0.65703344081E+02  0.60895951429E+02 -0.71021197691E+03  0.72667138272E+03  0.12500000000E+03 0.  0.
         25    1    1    2    0    0 -0.63954144317E+02 -0.89177529226E+02 -0.16108606775E+03  0.23155233861E+03  0.12500000000E+03 0.  0.
         25    1    1    2    0    0 -0.17491997635E+01  0.28281577797E+02  0.24971995785E+02  0.13058142255E+03  0.12500000000E+03 0.  0.
</event>
<event>
 5    0  0.5568866E-005  0.2522530E+03  0.7546771E-02  0.1111889E+00
         21   -1    0    0  502  501  0.00000000000E+00  0.00000000000E+00  0.88781141213E+02  0.88781141213E+02  0.00000000000E+00 0.  1.
         21   -1    0    0  501  502 -0.00000000000E+00 -0.00000000000E+00 -0.71672427032E+03  0.71672427032E+03  0.00000000000E+00 0.  1.
         25    1    1    2    0    0  0.21224593263E+02  0.12120580337E+03 -0.22320743663E+03  0.28388006252E+03  0.12500000000E+03 0.  0.
         25    1    1    2    0    0 -0.80152997970E+02 -0.69492882748E+02 -0.12795047756E+03  0.20796655631E+03  0.12500000000E+03 0.  0.
         25    1    1    2    0    0  0.58928404707E+02 -0.51712920626E+02 -0.27678521493E+03  0.31365879271E+03  0.12500000000E+03 0.  0.
</event>
<event>
 5    0  0.5568866E-005  0.3217168E+03  0.7546771E-02  0.1074862E+00
         21   -1    0    0  502  501  0.00000000000E+00  0.00000000000E+00  0.46640837265E+03  0.46640837265E+03  0.00000000000E+00 0. -1.
         21   -1    0    0  501  502 -0.00000000000E+00 -0.00000000000E+00 -0.22191214886E+03  0.22191214886E+03  0.00000000000E+00 0. -1.
         25    1    1    2    0    0  0.72756787024E+02 -0.73928855816E+02  0.17289821203E+02  0.16334920783E+03  0.12500000000E+03 0.  0.
         25    1    1    2    0    0 -0.34404478805E+02  0.73272648866E+02 -0.95411503332E+02  0.17686408398E+03  0.12500000000E+03 0.  0.
         25    1    1    2    0    0 -0.38352308219E+02  0.65620694924E+00  0.32261790592E+03  0.34810722971E+03  0.12500000000E+03 0.  0.
</event>
<event>
 5    0  0.5568866E-005  0.3382027E+03  0.7546771E-02  0.1067564E+00
         21   -1    0    0  502  501  0.00000000000E+00  0.00000000000E+00  0.47514608093E+03  0.47514608093E+03  0.00000000000E+00 0.  1.
         21   -1    0    0  501  502 -0.00000000000E+00 -0.00000000000E+00 -0.24072827910E+03  0.24072827910E+03  0.00000000000E+00 0.  1.
         25    1    1    2    0    0 -0.66616974714E+02  0.12140292528E+02  0.27814147350E+02  0.14485798154E+03  0.12500000000E+03 0.  0.
         25    1    1    2    0    0  0.18684195704E+03  0.32904239669E+02  0.29407829321E+03  0.37161761050E+03  0.12500000000E+03 0.  0.
         25    1    1    2    0    0 -0.12022498232E+03 -0.45044532197E+02 -0.87474638736E+02  0.19939876799E+03  0.12500000000E+03 0.  0.
</event>
<event>
 5    0  0.5568866E-005  0.2727158E+03  0.7546771E-02  0.1099735E+00
         21   -1    0    0  502  501  0.00000000000E+00  0.00000000000E+00  0.11210750096E+04  0.11210750096E+04  0.00000000000E+00 0. -1.
         21   -1    0    0  501  502 -0.00000000000E+00 -0.00000000000E+00 -0.66341583453E+02  0.66341583453E+02  0.00000000000E+00 0. -1.
         25    1    1    2    0    0 -0.73690688690E+02 -0.62565563024E+02  0.36180504097E+03  0.39480711106E+03  0.12500000000E+03 0.  0.
         25    1    1    2    0    0 -0.18251541336E+01 -0.66080964850E+02  0.11335053606E+03  0.18122739618E+03  0.12500000000E+03 0.  0.
         25    1    1    2    0    0  0.75515842824E+02  0.12864652787E+03  0.57957784913E+03  0.61138208581E+03  0.12500000000E+03 0.  0.
</event>
<event>
 5    0  0.5568866E-005  0.5998785E+03  0.7546771E-02  0.9905658E-01
         21   -1    0    0  502  501  0.00000000000E+00  0.00000000000E+00  0.12157360056E+04  0.12157360056E+04  0.00000000000E+00 0. -1.
         21   -1    0    0  501  502 -0.00000000000E+00 -0.00000000000E+00 -0.29599698973E+03  0.29599698973E+03  0.00000000000E+00 0. -1.
         25    1    1    2    0    0  0.37976841704E+03 -0.40413683226E+03  0.52193712544E+03  0.77174736325E+03  0.12500000000E+03 0.  0.
         25    1    1    2    0    0 -0.23183103005E+03  0.16011401247E+03  0.24066951782E+03  0.39106129991E+03  0.12500000000E+03 0.  0.
         25    1    1    2    0    0 -0.14793738700E+03  0.24402281979E+03  0.15713237258E+03  0.34892433214E+03  0.12500000000E+03 0.  0.
</event>
<event>
 5    0  0.5568866E-005  0.4894362E+03  0.7546771E-02  0.1016574E+00
         21   -1    0    0  502  501  0.00000000000E+00  0.00000000000E+00  0.24294040102E+03  0.24294040102E+03  0.00000000000E+00 0.  1.
         21   -1    0    0  501  502 -0.00000000000E+00 -0.00000000000E+00 -0.98603507197E+03  0.98603507197E+03  0.00000000000E+00 0.  1.
         25    1    1    2    0    0  0.14477718435E+03  0.16084430982E+03 -0.38282368816E+03  0.45717644442E+03  0.12500000000E+03 0.  0.
         25    1    1    2    0    0  0.16939176418E+03 -0.12083617839E+03 -0.35650630418E+03  0.43129652990E+03  0.12500000000E+03 0.  0.
         25    1    1    2    0    0 -0.31416894853E+03 -0.40008131436E+02 -0.37646786073E+01  0.34050249868E+03  0.12500000000E+03 0.  0.
</event>
<event>
 5    0  0.5568866E-005  0.3114072E+03  0.7546771E-02  0.1079673E+00
         21   -1    0    0  502  501  0.00000000000E+00  0.00000000000E+00  0.23244080216E+03  0.23244080216E+03  0.00000000000E+00 0. -1.
         21   -1    0    0  501  502 -0.00000000000E+00 -0.00000000000E+00 -0.41720067836E+03  0.41720067836E+03  0.00000000000E+00 0. -1.
         25    1    1    2    0    0  0.11248874376E+03 -0.83461548467E+02  0.24902725677E+02  0.18937975946E+03  0.12500000000E+03 0.  0.
         25    1    1    2    0    0  0.56701747983E+02  0.13413575076E+03 -0.11784720609E+03  0.22521201531E+03  0.12500000000E+03 0.  0.
         25    1    1    2    0    0 -0.16919049174E+03 -0.50674202294E+02 -0.91815395786E+02  0.23504970576E+03  0.12500000000E+03 0.  0.
</event>
<event>
 5    0  0.5568866E-005  0.2764383E+03  0.7546771E-02  0.1097650E+00
         21   -1    0    0  502  501  0.00000000000E+00  0.00000000000E+00  0.66787661899E+03  0.66787661899E+03  0.00000000000E+00 0.  1.
         21   -1    0    0  501  502 -0.00000000000E+00 -0.00000000000E+00 -0.11441952857E+03  0.11441952857E+03  0.00000000000E+00 0.  1.
         25    1    1    2    0    0 -0.91324486090E+02  0.10252964583E+03  0.14881821268E+03  0.23795871587E+03  0.12500000000E+03 0.  0.
         25    1    1    2    0    0  0.15097109559E+03 -0.10638674149E+02  0.19357560234E+03  0.27568454239E+03  0.12500000000E+03 0.  0.
         25    1    1    2    0    0 -0.59646609502E+02 -0.91890971685E+02  0.21106327541E+03  0.26865288930E+03  0.12500000000E+03 0.  0.
</event>
<event>
 5    0  0.5568866E-005  0.3277185E+03  0.7546771E-02  0.1072151E+00
         21   -1    0    0  502  501  0.00000000000E+00  0.00000000000E+00  0.94842314259E+03  0.94842314259E+03  0.00000000000E+00 0. -1.
         21   -1    0    0  501  502 -0.00000000000E+00 -0.00000000000E+00 -0.11323995319E+03  0.11323995319E+03  0.00000000000E+00 0. -1.
         25    1    1    2    0    0 -0.18210997161E+01 -0.27243675731E+01  0.48392191202E+03  0.49981612170E+03  0.12500000000E+03 0.  0.
         25    1    1    2    0    0 -0.33751426565E+02 -0.79567458758E+02  0.37645453410E+03  0.40597186545E+03  0.12500000000E+03 0.  0.
         25    1    1    2    0    0  0.35572526281E+02  0.82291826331E+02 -0.25193256725E+02  0.15587510863E+03  0.12500000000E+03 0.  0.
</event>
<event>
 5    0  0.5568866E-005  0.2525509E+03  0.7546771E-02  0.1111703E+00
         21   -1    0    0  502  501  0.00000000000E+00  0.00000000000E+00  0.64790529412E+03  0.64790529412E+03  0.00000000000E+00 0.  1.
         21   -1    0    0  501  502 -0.00000000000E+00 -0.00000000000E+00 -0.98443335459E+02  0.98443335459E+02  0.00000000000E+00 0.  1.
         25    1    1    2    0    0  0.22229223147E+02 -0.10574442482E+03  0.17873077916E+03  0.24340442305E+03  0.12500000000E+03 0.  0.
         25    1    1    2    0    0 -0.28129144684E+02  0.13927452490E+03  0.30171582638E+03  0.35615457593E+03  0.12500000000E+03 0.  0.
         25    1    1    2    0    0  0.58999215373E+01 -0.33530100076E+02  0.69015353126E+02  0.14678963060E+03  0.12500000000E+03 0.  0.
</event>
<event>
 5    0  0.5568866E-005  0.3095133E+03  0.7546771E-02  0.1080579E+00
         21   -1    0    0  502  501  0.00000000000E+00  0.00000000000E+00  0.35466566707E+03  0.35466566707E+03  0.00000000000E+00 0.  1.
         21   -1    0    0  501  502 -0.00000000000E+00 -0.00000000000E+00 -0.27010919919E+03  0.27010919919E+03  0.00000000000E+00 0.  1.
         25    1    1    2    0    0  0.68491426022E+02  0.11403941170E+03  0.86953020804E+02  0.20219270681E+03  0.12500000000E+03 0.  0.
         25    1    1    2    0    0 -0.11501818910E+03 -0.18955707898E+03 -0.55238163584E+02  0.26045599385E+03  0.12500000000E+03 0.  0.
         25    1    1    2    0    0  0.46526763075E+02  0.75517667286E+02  0.52841610666E+02  0.16212616560E+03  0.12500000000E+03 0.  0.
</event>
<event>
 5    0  0.5568866E-005  0.2794182E+03  0.7546771E-02  0.1096007E+00
         21   -1    0    0  502  501  0.00000000000E+00  0.00000000000E+00  0.13307535487E+03  0.13307535487E+03  0.00000000000E+00 0.  1.
         21   -1    0    0  501  502 -0.00000000000E+00 -0.00000000000E+00 -0.58669429824E+03  0.58669429824E+03  0.00000000000E+00 0.  1.
         25    1    1    2    0    0 -0.90420686920E+01  0.95306068428E+01 -0.37445571608E+03  0.39498692988E+03  0.12500000000E+03 0.  0.
         25    1    1    2    0    0  0.89889728592E+02  0.35325976692E+02 -0.55949622804E+02  0.16758116907E+03  0.12500000000E+03 0.  0.
         25    1    1    2    0    0 -0.80847659900E+02 -0.44856583535E+02 -0.23213604483E+02  0.15720155416E+03  0.12500000000E+03 0.  0.
</event>
<event>
 5    0  0.5783262E-005  0.2954152E+03  0.7546771E-02  0.1087555E+00
         21   -1    0    0  502  501  0.00000000000E+00  0.00000000000E+00  0.67684443941E+03  0.67684443941E+03  0.00000000000E+00 0. -1.
         21   -1    0    0  501  502 -0.00000000000E+00 -0.00000000000E+00 -0.12893676157E+03  0.12893676157E+03  0.00000000000E+00 0. -1.
         25    1    1    2    0    0 -0.16317346966E+03 -0.34895035926E+01  0.15297633526E+03  0.25625088680E+03  0.12500000000E+03 0.  0.
         25    1    1    2    0    0  0.13329975727E+03 -0.78029463368E+02  0.32750659054E+03  0.38307047562E+03  0.12500000000E+03 0.  0.
         25    1    1    2    0    0  0.29873712389E+02  0.81518966960E+02  0.67424752042E+02  0.16645983856E+03  0.12500000000E+03 0.  0.
</event>
<event>
 5    0  0.5568866E-005  0.2959042E+03  0.7546771E-02  0.1087306E+00
         21   -1    0    0  502  501  0.00000000000E+00  0.00000000000E+00  0.72019724792E+03  0.72019724792E+03  0.00000000000E+00 0. -1.
         21   -1    0    0  501  502 -0.00000000000E+00 -0.00000000000E+00 -0.12157686649E+03  0.12157686649E+03  0.00000000000E+00 0. -1.
         25    1    1    2    0    0  0.20778608870E+00  0.13010758264E+02  0.69159238088E+02  0.14344798088E+03  0.12500000000E+03 0.  0.
         25    1    1    2    0    0  0.49170644464E+02 -0.11242098299E+03  0.38031731431E+02  0.17924185418E+03  0.12500000000E+03 0.  0.
         25    1    1    2    0    0 -0.49378430552E+02  0.99410224728E+02  0.49142941191E+03  0.51908427936E+03  0.12500000000E+03 0.  0.
</event>
<event>
 5    0  0.5568866E-005  0.4262303E+03  0.7546771E-02  0.1035057E+00
         21   -1    0    0  502  501  0.00000000000E+00  0.00000000000E+00  0.11033964999E+04  0.11033964999E+04  0.00000000000E+00 0. -1.
         21   -1    0    0  501  502 -0.00000000000E+00 -0.00000000000E+00 -0.16464822192E+03  0.16464822192E+03  0.00000000000E+00 0. -1.
         25    1    1    2    0    0 -0.29860490576E+02  0.73983126389E+02  0.78242094928E+02  0.16766626765E+03  0.12500000000E+03 0.  0.
         25    1    1    2    0    0  0.14379177832E+03 -0.30692841083E+03  0.65038424840E+03  0.74397970096E+03  0.12500000000E+03 0.  0.
         25    1    1    2    0    0 -0.11393128775E+03  0.23294528444E+03  0.21012193467E+03  0.35639875322E+03  0.12500000000E+03 0.  0.
</event>
<event>
 5    0  0.5568866E-005  0.2621896E+03  0.7546771E-02  0.1105835E+00
         21   -1    0    0  502  501  0.00000000000E+00  0.00000000000E+00  0.46712927715E+04  0.46712927715E+04  0.00000000000E+00 0. -1.
         21   -1    0    0  501  502 -0.00000000000E+00 -0.00000000000E+00 -0.14716142778E+02  0.14716142778E+02  0.00000000000E+00 0. -1.
         25    1    1    2    0    0 -0.12388276550E+03  0.46280123447E+02  0.22650674762E+04  0.22723653890E+04  0.12500000000E+03 0.  0.
         25    1    1    2    0    0  0.98426369110E+02 -0.54367161543E+02  0.82679048244E+03  0.84371265266E+03  0.12500000000E+03 0.  0.
         25    1    1    2    0    0  0.25456396393E+02  0.80870380963E+01  0.15647186700E+04  0.15699308726E+04  0.12500000000E+03 0.  0.
</event>
<event>
 5    0  0.5568866E-005  0.3468785E+03  0.7546771E-02  0.1063904E+00
         21   -1    0    0  502  501  0.00000000000E+00  0.00000000000E+00  0.86222360121E+03  0.86222360121E+03  0.00000000000E+00 0. -1.
         21   -1    0    0  501  502 -0.00000000000E+00 -0.00000000000E+00 -0.13955160989E+03  0.13955160989E+03  0.00000000000E+00 0. -1.
         25    1    1    2    0    0 -0.17285559219E+03 -0.15281177755E+03  0.33200428173E+03  0.42318121201E+03  0.12500000000E+03 0.  0.
         25    1    1    2    0    0  0.21119401863E+03  0.15319924526E+03  0.31429011717E+03  0.42717233057E+03  0.12500000000E+03 0.  0.
         25    1    1    2    0    0 -0.38338426446E+02 -0.38746770310E+00  0.76377592417E+02  0.15142166852E+03  0.12500000000E+03 0.  0.
</event>
<event>
 5    0  0.5568866E-005  0.2218170E+03  0.7546771E-02  0.1132536E+00
         21   -1    0    0  502  501  0.00000000000E+00  0.00000000000E+00  0.13749691002E+03  0.13749691002E+03  0.00000000000E+00 0.  1.
         21   -1    0    0  501  502 -0.00000000000E+00 -0.00000000000E+00 -0.35784629415E+03  0.35784629415E+03  0.00000000000E+00 0.  1.
         25    1    1    2    0    0  0.86251732828E+01 -0.46743396422E+02 -0.14292242190E+03  0.19573236167E+03  0.12500000000E+03 0.  0.
         25    1    1    2    0    0 -0.47236721427E+02 -0.10270519500E+02 -0.81472526885E+02  0.15684248168E+03  0.12500000000E+03 0.  0.
         25    1    1    2    0    0  0.38611548144E+02  0.57013915922E+02  0.40455646548E+01  0.14276836082E+03  0.12500000000E+03 0.  0.
</event>
<event>
 5    0  0.5568866E-005  0.2470945E+03  0.7546771E-02  0.1115155E+00
         21   -1    0    0  502  501  0.00000000000E+00  0.00000000000E+00  0.45433434963E+03  0.45433434963E+03  0.00000000000E+00 0. -1.
         21   -1    0    0  501  502 -0.00000000000E+00 -0.00000000000E+00 -0.13438491429E+03  0.13438491429E+03  0.00000000000E+00 0. -1.
         25    1    1    2    0    0 -0.10369844322E+03 -0.85237839459E+02  0.16281969344E+03  0.24526334617E+03  0.12500000000E+03 0.  0.
         25    1    1    2    0    0  0.10122075376E+03  0.77299456603E+02  0.10985433641E+03  0.20955625071E+03  0.12500000000E+03 0.  0.
         25    1    1    2    0    0  0.24776894606E+01  0.79383828560E+01  0.47275405485E+02  0.13389966703E+03  0.12500000000E+03 0.  0.
</event>
<event>
 5    0  0.5568866E-005  0.2070171E+03  0.7546771E-02  0.1143950E+00
         21   -1    0    0  502  501  0.00000000000E+00  0.00000000000E+00  0.46363250841E+03  0.46363250841E+03  0.00000000000E+00 0.  1.
         21   -1    0    0  501  502 -0.00000000000E+00 -0.00000000000E+00 -0.92435478494E+02  0.92435478494E+02  0.00000000000E+00 0.  1.
         25    1    1    2    0    0  0.71737690546E+01  0.13456394663E+02  0.13694696846E+03  0.18604303183E+03  0.12500000000E+03 0.  0.
         25    1    1    2    0    0 -0.33380040469E+02 -0.42091885981E+02  0.52021118599E+02  0.14566108179E+03  0.12500000000E+03 0.  0.
         25    1    1    2    0    0  0.26206271414E+02  0.28635491318E+02  0.18222894285E+03  0.22436387329E+03  0.12500000000E+03 0.  0.
</event>
<event>
 5    0  0.5568866E-005  0.2576319E+03  0.7546771E-02  0.1108574E+00
         21   -1    0    0  502  501  0.00000000000E+00  0.00000000000E+00  0.13419602987E+04  0.13419602987E+04  0.00000000000E+00 0. -1.
         21   -1    0    0  501  502 -0.00000000000E+00 -0.00000000000E+00 -0.49460630314E+02  0.49460630314E+02  0.00000000000E+00 0. -1.
         25    1    1    2    0    0 -0.47849760192E+02 -0.10812970021E+02  0.16387450434E+03  0.21186404377E+03  0.12500000000E+03 0.  0.
         25    1    1    2    0    0  0.72663852937E+02 -0.74670960310E+02  0.35035282172E+03  0.38630025566E+03  0.12500000000E+03 0.  0.
         25    1    1    2    0    0 -0.24814092745E+02  0.85483930332E+02  0.77827234235E+03  0.79325662960E+03  0.12500000000E+03 0.  0.
</event>
<event>
 5    0  0.5568866E-005  0.2601352E+03  0.7546771E-02  0.1107062E+00
         21   -1    0    0  502  501  0.00000000000E+00  0.00000000000E+00  0.57658254302E+03  0.57658254302E+03  0.00000000000E+00 0. -1.
         21   -1    0    0  501  502 -0.00000000000E+00 -0.00000000000E+00 -0.11736450818E+03  0.11736450818E+03  0.00000000000E+00 0. -1.
         25    1    1    2    0    0  0.62686090647E+01 -0.13114354708E+03  0.29583604355E+03  0.34696093449E+03  0.12500000000E+03 0.  0.
         25    1    1    2    0    0 -0.25480635696E+02  0.74144587919E+01  0.52269875516E+02  0.13806294536E+03  0.12500000000E+03 0.  0.
         25    1    1    2    0    0  0.19212026631E+02  0.12372908829E+03  0.11111211576E+03  0.20892317134E+03  0.12500000000E+03 0.  0.
</event>
<event>
 5    0  0.5568866E-005  0.5366696E+03  0.7546771E-02  0.1004627E+00
         21   -1    0    0  502  501  0.00000000000E+00  0.00000000000E+00  0.22661023360E+03  0.22661023360E+03  0.00000000000E+00 0. -1.
         21   -1    0    0  501  502 -0.00000000000E+00 -0.00000000000E+00 -0.12709675679E+04  0.12709675679E+04  0.00000000000E+00 0. -1.
         25    1    1    2    0    0 -0.17218936845E+01 -0.25149070441E+03 -0.47258877365E+03  0.54974147406E+03  0.12500000000E+03 0.  0.
         25    1    1    2    0    0  0.11541902558E+03  0.14968110179E+03  0.10000671445E+03  0.24769401817E+03  0.12500000000E+03 0.  0.
         25    1    1    2    0    0 -0.11369713190E+03  0.10180960262E+03 -0.67177527513E+03  0.70014230930E+03  0.12500000000E+03 0.  0.
</event>
<event>
 5    0  0.6577978E-005  0.2754131E+03  0.7546771E-02  0.1098221E+00
         21   -1    0    0  502  501  0.00000000000E+00  0.00000000000E+00  0.12159726755E+03  0.12159726755E+03  0.00000000000E+00 0.  1.
         21   -1    0    0  501  502 -0.00000000000E+00 -0.00000000000E+00 -0.62380014491E+03  0.62380014491E+03  0.00000000000E+00 0.  1.
         25    1    1    2    0    0  0.11082842734E+03  0.23596326666E+02 -0.18270661956E+03  0.24868943639E+03  0.12500000000E+03 0.  0.
         25    1    1    2    0    0  0.51510180603E+02  0.43016175802E+02 -0.47269209762E+02  0.14954286435E+03  0.12500000000E+03 0.  0.
         25    1    1    2    0    0 -0.16233860795E+03 -0.66612502468E+02 -0.27222704803E+03  0.34716511172E+03  0.12500000000E+03 0.  0.
</event>
<event>
 5    0  0.5568866E-005  0.3473903E+03  0.7546771E-02  0.1063691E+00
         21   -1    0    0  502  501  0.00000000000E+00  0.00000000000E+00  0.25441918854E+03  0.25441918854E+03  0.00000000000E+00 0.  1.
         21   -1    0    0  501  502 -0.00000000000E+00 -0.00000000000E+00 -0.47433542772E+03  0.47433542772E+03  0.00000000000E+00 0.  1.
         25    1    1    2    0    0  0.58613072054E+02  0.47953595148E+02 -0.31756003080E+03  0.34957747734E+03  0.12500000000E+03 0.  0.
         25    1    1    2    0    0 -0.23064157297E+01 -0.59398120499E+02  0.17360203450E+03  0.22202730160E+03  0.12500000000E+03 0.  0.
         25    1    1    2    0    0 -0.56306656325E+02  0.11444525350E+02 -0.75958242885E+02  0.15714983732E+03  0.12500000000E+03 0.  0.
</event>
<event>
 5    0  0.5568866E-005  0.2693897E+03  0.7546771E-02  0.1101629E+00
         21   -1    0    0  502  501  0.00000000000E+00  0.00000000000E+00  0.36210467585E+03  0.36210467585E+03  0.00000000000E+00 0. -1.
         21   -1    0    0  501  502 -0.00000000000E+00 -0.00000000000E+00 -0.20041385263E+03  0.20041385263E+03  0.00000000000E+00 0. -1.
         25    1    1    2    0    0 -0.17819942408E+03  0.10412068814E+01  0.10282387382E+03  0.24073609593E+03  0.12500000000E+03 0.  0.
         25    1    1    2    0    0  0.45316954148E+02  0.11288012377E+02  0.21716259705E+02  0.13519482790E+03  0.12500000000E+03 0.  0.
         25    1    1    2    0    0  0.13288246993E+03 -0.12329219258E+02  0.37150689688E+02  0.18658760464E+03  0.12500000000E+03 0.  0.
</event>
<event>
 5    0  0.5568866E-005  0.2415089E+03  0.7546771E-02  0.1118792E+00
         21   -1    0    0  502  501  0.00000000000E+00  0.00000000000E+00  0.80709943333E+02  0.80709943333E+02  0.00000000000E+00 0. -1.
         21   -1    0    0  501  502 -0.00000000000E+00 -0.00000000000E+00 -0.72266862586E+03  0.72266862586E+03  0.00000000000E+00 0. -1.
         25    1    1    2    0    0 -0.48241715557E+02 -0.80165718718E+01 -0.27345220865E+03  0.30461884209E+03  0.12500000000E+03 0.  0.
         25    1    1    2    0    0 -0.39987948620E+02  0.62953356582E+02 -0.76219976974E+02  0.16430656113E+03  0.12500000000E+03 0.  0.
         25    1    1    2    0    0  0.88229664177E+02 -0.54936784711E+02 -0.29228649690E+03  0.33445316597E+03  0.12500000000E+03 0.  0.
</event>
<event>
 5    0  0.5568866E-005  0.2557414E+03  0.7546771E-02  0.1109729E+00
         21   -1    0    0  502  501  0.00000000000E+00  0.00000000000E+00  0.15481230938E+04  0.15481230938E+04  0.00000000000E+00 0. -1.
         21   -1    0    0  501  502 -0.00000000000E+00 -0.00000000000E+00 -0.42247075121E+02  0.42247075121E+02  0.00000000000E+00 0. -1.
         25    1    1    2    0    0  0.49756297504E+02 -0.73298136101E+02  0.32706799703E+03  0.36117416931E+03  0.12500000000E+03 0.  0.
         25    1    1    2    0    0 -0.96877630758E+02  0.31752302256E+02  0.92884745961E+03  0.94274921759E+03  0.12500000000E+03 0.  0.
         25    1    1    2    0    0  0.47121333254E+02  0.41545833845E+02  0.24996056208E+03  0.28644678206E+03  0.12500000000E+03 0.  0.
</event>
<event>
 5    0  0.5568866E-005  0.2404905E+03  0.7546771E-02  0.1119466E+00
         21   -1    0    0  502  501  0.00000000000E+00  0.00000000000E+00  0.52809235406E+03  0.52809235406E+03  0.00000000000E+00 0.  1.
         21   -1    0    0  501  502 -0.00000000000E+00 -0.00000000000E+00 -0.10951813020E+03  0.10951813020E+03  0.00000000000E+00 0.  1.
         25    1    1    2    0    0  0.40558910196E+02  0.28596116879E+02  0.28679159205E+03  0.31676044635E+03  0.12500000000E+03 0.  0.
         25    1    1    2    0    0 -0.50059684582E+02  0.30593713557E+02  0.13729079643E+02  0.13876395410E+03  0.12500000000E+03 0.  0.
         25    1    1    2    0    0  0.95007743861E+01 -0.59189830436E+02  0.11805355216E+03  0.18208608381E+03  0.12500000000E+03 0.  0.
</event>
<event>
 5    0  0.5568866E-005  0.3446344E+03  0.7546771E-02  0.1064839E+00
         21   -1    0    0  502  501  0.00000000000E+00  0.00000000000E+00  0.15751452999E+03  0.15751452999E+03  0.00000000000E+00 0.  1.
         21   -1    0    0  501  502 -0.00000000000E+00 -0.00000000000E+00 -0.75404390625E+03  0.75404390625E+03  0.00000000000E+00 0.  1.
         25    1    1    2    0    0  0.16023427436E+02  0.85092346980E+02 -0.22411126090E+03  0.27082894049E+03  0.12500000000E+03 0.  0.
         25    1    1    2    0    0  0.22094098561E+02 -0.14176054052E+03 -0.44272222647E+03  0.48188397966E+03  0.12500000000E+03 0.  0.
         25    1    1    2    0    0 -0.38117525998E+02  0.56668193542E+02  0.70304111111E+02  0.15884551610E+03  0.12500000000E+03 0.  0.
</event>
<event>
 5    0  0.5568866E-005  0.2398721E+03  0.7546771E-02  0.1119878E+00
         21   -1    0    0  502  501  0.00000000000E+00  0.00000000000E+00  0.60854817462E+02  0.60854817462E+02  0.00000000000E+00 0. -1.
         21   -1    0    0  501  502 -0.00000000000E+00 -0.00000000000E+00 -0.94550673539E+03  0.94550673539E+03  0.00000000000E+00 0. -1.
         25    1    1    2    0    0  0.58445489233E+02 -0.42711442310E+02 -0.11973002611E+03  0.18761775414E+03  0.12500000000E+03 0.  0.
         25    1    1    2    0    0 -0.79198477268E+02 -0.28413849133E+01 -0.29702292163E+03  0.33185552315E+03  0.12500000000E+03 0.  0.
         25    1    1    2    0    0  0.20752988035E+02  0.45552827223E+02 -0.46789897019E+03  0.48688827557E+03  0.12500000000E+03 0.  0.
</event>
<event>
 5    0  0.5568866E-005  0.3448469E+03  0.7546771E-02  0.1064750E+00
         21   -1    0    0  502  501  0.00000000000E+00  0.00000000000E+00  0.48854777768E+03  0.48854777768E+03  0.00000000000E+00 0. -1.
         21   -1    0    0  501  502 -0.00000000000E+00 -0.00000000000E+00 -0.24341401041E+03  0.24341401041E+03  0.00000000000E+00 0. -1.
         25    1    1    2    0    0  0.40835243975E+02  0.74746003485E+02 -0.76718202721E+02  0.16960296229E+03  0.12500000000E+03 0.  0.
         25    1    1    2    0    0  0.73306781394E+02 -0.12189597042E+03 -0.70159346487E+01  0.18949072574E+03  0.12500000000E+03 0.  0.
         25    1    1    2    0    0 -0.11414202537E+03  0.47149966935E+02  0.32886790464E+03  0.37286810006E+03  0.12500000000E+03 0.  0.
</event>
<event>
 5    0  0.5568866E-005  0.2186807E+03  0.7546771E-02  0.1134870E+00
         21   -1    0    0  502  501  0.00000000000E+00  0.00000000000E+00  0.38809867104E+02  0.38809867104E+02  0.00000000000E+00 0.  1.
         21   -1    0    0  501  502 -0.00000000000E+00 -0.00000000000E+00 -0.12321929774E+04  0.12321929774E+04  0.00000000000E+00 0.  1.
         25    1    1    2    0    0  0.42119931772E+02  0.23401380787E+02 -0.25458367397E+03  0.28767961403E+03  0.12500000000E+03 0.  0.
         25    1    1    2    0    0 -0.25172671874E+02  0.49446291962E+01 -0.70222768462E+03  0.71372742263E+03  0.12500000000E+03 0.  0.
         25    1    1    2    0    0 -0.16947259898E+02 -0.28346009984E+02 -0.23657175167E+03  0.26959580781E+03  0.12500000000E+03 0.  0.
</event>
<event>
 5    0  0.5568866E-005  0.2479068E+03  0.7546771E-02  0.1114635E+00
         21   -1    0    0  502  501  0.00000000000E+00  0.00000000000E+00  0.59656990224E+02  0.59656990224E+02  0.00000000000E+00 0.  1.
         21   -1    0    0  501  502 -0.00000000000E+00 -0.00000000000E+00 -0.10301854909E+04  0.10301854909E+04  0.00000000000E+00 0.  1.
         25    1    1    2    0    0 -0.29161310612E+02  0.47230836314E+02 -0.19511821981E+03  0.23827978017E+03  0.12500000000E+03 0.  0.
         25    1    1    2    0    0 -0.12255997851E+01  0.81125047348E+02 -0.49891219373E+03  0.52069295411E+03  0.12500000000E+03 0.  0.
         25    1    1    2    0    0  0.30386910397E+02 -0.12835588366E+03 -0.27649808717E+03  0.33086974688E+03  0.12500000000E+03 0.  0.
</event>
<event>
 5    0  0.5568866E-005  0.4669670E+03  0.7546771E-02  0.1022780E+00
         21   -1    0    0  502  501  0.00000000000E+00  0.00000000000E+00  0.63721454881E+03  0.63721454881E+03  0.00000000000E+00 0. -1.
         21   -1    0    0  501  502 -0.00000000000E+00 -0.00000000000E+00 -0.34220525284E+03  0.34220525284E+03  0.00000000000E+00 0. -1.
         25    1    1    2    0    0  0.35953953808E+02 -0.20962008523E+03 -0.13012271330E+03  0.27890892321E+03  0.12500000000E+03 0.  0.
         25    1    1    2    0    0  0.29011771481E+02  0.21137343360E+03  0.48735394242E+03  0.54649727951E+03  0.12500000000E+03 0.  0.
         25    1    1    2    0    0 -0.64965725289E+02 -0.17533483697E+01 -0.62221933146E+02  0.15401359894E+03  0.12500000000E+03 0.  0.
</event>
<event>
 5    0  0.5568866E-005  0.2246637E+03  0.7546771E-02  0.1130453E+00
         21   -1    0    0  502  501  0.00000000000E+00  0.00000000000E+00  0.25579543411E+03  0.25579543411E+03  0.00000000000E+00 0.  1.
         21   -1    0    0  501  502 -0.00000000000E+00 -0.00000000000E+00 -0.19732084153E+03  0.19732084153E+03  0.00000000000E+00 0.  1.
         25    1    1    2    0    0 -0.57221668426E+01 -0.27489441892E+02  0.61371169031E+02  0.14205573905E+03  0.12500000000E+03 0.  0.
         25    1    1    2    0    0 -0.61506954357E+00  0.24333192831E+01 -0.92142721307E+02  0.15531123734E+03  0.12500000000E+03 0.  0.
         25    1    1    2    0    0  0.63372363862E+01  0.25056122609E+02  0.89246144860E+02  0.15574929925E+03  0.12500000000E+03 0.  0.
</event>
<event>
 5    0  0.5568866E-005  0.3208679E+03  0.7546771E-02  0.1075251E+00
         21   -1    0    0  502  501  0.00000000000E+00  0.00000000000E+00  0.79474049390E+02  0.79474049390E+02  0.00000000000E+00 0.  1.
         21   -1    0    0  501  502 -0.00000000000E+00 -0.00000000000E+00 -0.12954692804E+04  0.12954692804E+04  0.00000000000E+00 0.  1.
         25    1    1    2    0    0  0.82369637531E+02  0.58912500457E+02 -0.11358511690E+03  0.19693150758E+03  0.12500000000E+03 0.  0.
         25    1    1    2    0    0 -0.17280305079E+03  0.35911302927E+02 -0.76611284175E+03  0.79605552717E+03  0.12500000000E+03 0.  0.
         25    1    1    2    0    0  0.90433413262E+02 -0.94823803383E+02 -0.33629727233E+03  0.38195629501E+03  0.12500000000E+03 0.  0.
</event>
<event>
 5    0  0.5568866E-005  0.3559848E+03  0.7546771E-02  0.1060185E+00
         21   -1    0    0  502  501  0.00000000000E+00  0.00000000000E+00  0.50305472367E+03  0.50305472367E+03  0.00000000000E+00 0.  1.
         21   -1    0    0  501  502 -0.00000000000E+00 -0.00000000000E+00 -0.25191131019E+03  0.25191131019E+03  0.00000000000E+00 0.  1.
         25    1    1    2    0    0 -0.10365828034E+02  0.82617947678E+02 -0.18185133713E+03  0.23585606731E+03  0.12500000000E+03 0.  0.
         25    1    1    2    0    0 -0.15446225800E+02 -0.51661417112E+01  0.12863063331E+03  0.18010029078E+03  0.12500000000E+03 0.  0.
         25    1    1    2    0    0  0.25812053834E+02 -0.77451805967E+02  0.30436411730E+03  0.33900967578E+03  0.12500000000E+03 0.  0.
</event>
<event>
 5    0  0.5568866E-005  0.4448823E+03  0.7546771E-02  0.1029259E+00
         21   -1    0    0  502  501  0.00000000000E+00  0.00000000000E+00  0.72154697952E+03  0.72154697952E+03  0.00000000000E+00 0.  1.
         21   -1    0    0  501  502 -0.00000000000E+00 -0.00000000000E+00 -0.27429985911E+03  0.27429985911E+03  0.00000000000E+00 0.  1.
         25    1    1    2    0    0  0.45680356694E+02 -0.13090286722E+03  0.38067099461E+01  0.18671300618E+03  0.12500000000E+03 0.  0.
         25    1    1    2    0    0  0.31606458763E+02 -0.19821059256E+03  0.37337598330E+03  0.44195139115E+03  0.12500000000E+03 0.  0.
         25    1    1    2    0    0 -0.77286815457E+02  0.32911345978E+03  0.70064427167E+02  0.36718244131E+03  0.12500000000E+03 0.  0.
</event>
<event>
 5    0  0.5568866E-005  0.3443745E+03  0.7546771E-02  0.1064948E+00
         21   -1    0    0  502  501  0.00000000000E+00  0.00000000000E+00  0.24235999409E+03  0.24235999409E+03  0.00000000000E+00 0. -1.
         21   -1    0    0  501  502 -0.00000000000E+00 -0.00000000000E+00 -0.48932918609E+03  0.48932918609E+03  0.00000000000E+00 0. -1.
         25    1    1    2    0    0 -0.11921970158E+03 -0.13159078026E+02 -0.22052809993E+02  0.17463626487E+03  0.12500000000E+03 0.  0.
         25    1    1    2    0    0  0.25871756642E+03 -0.25743776670E+02 -0.40463853049E+02  0.29130713108E+03  0.12500000000E+03 0.  0.
         25    1    1    2    0    0 -0.13949786484E+03  0.38902854697E+02 -0.18445252896E+03  0.26574578423E+03  0.12500000000E+03 0.  0.
</event>
<event>
 5    0  0.5568866E-005  0.4261956E+03  0.7546771E-02  0.1035069E+00
         21   -1    0    0  502  501  0.00000000000E+00  0.00000000000E+00  0.85720027146E+02  0.85720027146E+02  0.00000000000E+00 0.  1.
         21   -1    0    0  501  502 -0.00000000000E+00 -0.00000000000E+00 -0.21190223261E+04  0.21190223261E+04  0.00000000000E+00 0.  1.
         25    1    1    2    0    0 -0.98845935765E+01  0.18744497607E+03 -0.10162441852E+04  0.10409661706E+04  0.12500000000E+03 0.  0.
         25    1    1    2    0    0  0.12467636414E+03 -0.23334791162E+02 -0.76113120324E+02  0.19366702182E+03  0.12500000000E+03 0.  0.
         25    1    1    2    0    0 -0.11479177057E+03 -0.16411018491E+03 -0.94094499335E+03  0.97010916081E+03  0.12500000000E+03 0.  0.
</event>
<event>
 5    0  0.5568866E-005  0.3047975E+03  0.7546771E-02  0.1082867E+00
         21   -1    0    0  502  501  0.00000000000E+00  0.00000000000E+00  0.13932479154E+03  0.13932479154E+03  0.00000000000E+00 0.  1.
         21   -1    0    0  501  502 -0.00000000000E+00 -0.00000000000E+00 -0.66679826900E+03  0.66679826900E+03  0.00000000000E+00 0.  1.
         25    1    1    2    0    0 -0.44460290407E+02  0.58164882560E+02 -0.46929514441E+03  0.49114438158E+03  0.12500000000E+03 0.  0.
         25    1    1    2    0    0  0.62748282406E+01  0.13419860553E+02 -0.99367338498E+02  0.16036936767E+03  0.12500000000E+03 0.  0.
         25    1    1    2    0    0  0.38185462166E+02 -0.71584743113E+02  0.41189005449E+02  0.15460931129E+03  0.12500000000E+03 0.  0.
</event>
<event>
 5    0  0.5568866E-005  0.3068260E+03  0.7546771E-02  0.1081877E+00
         21   -1    0    0  502  501  0.00000000000E+00  0.00000000000E+00  0.26232032226E+03  0.26232032226E+03  0.00000000000E+00 0.  1.
         21   -1    0    0  501  502 -0.00000000000E+00 -0.00000000000E+00 -0.35888264090E+03  0.35888264090E+03  0.00000000000E+00 0.  1.
         25    1    1    2    0    0  0.18954269986E+03 -0.23848157612E+02 -0.69281051605E+01  0.22840352084E+03  0.12500000000E+03 0.  0.
         25    1    1    2    0    0 -0.14607028433E+03  0.78801252930E+02  0.25019775890E+02  0.20927769736E+03  0.12500000000E+03 0.  0.
         25    1    1    2    0    0 -0.43472415528E+02 -0.54953095317E+02 -0.11465398936E+03  0.18352174496E+03  0.12500000000E+03 0.  0.
</event>
<event>
 5    0  0.5568866E-005  0.6843155E+03  0.7546771E-02  0.9744437E-01
         21   -1    0    0  502  501  0.00000000000E+00  0.00000000000E+00  0.33281771262E+04  0.33281771262E+04  0.00000000000E+00 0. -1.
         21   -1    0    0  501  502 -0.00000000000E+00 -0.00000000000E+00 -0.14070394098E+03  0.14070394098E+03  0.00000000000E+00 0. -1.
         25    1    1    2    0    0  0.16471202401E+03 -0.20301896754E+03  0.22849626069E+04  0.23032641765E+04  0.12500000000E+03 0.  0.
         25    1    1    2    0    0  0.98243086234E+02  0.29039927169E+03  0.76183135954E+03  0.83065965436E+03  0.12500000000E+03 0.  0.
         25    1    1    2    0    0 -0.26295511024E+03 -0.87380304155E+02  0.14067921883E+03  0.33495723633E+03  0.12500000000E+03 0.  0.
</event>
<event>
 5    0  0.5568866E-005  0.3592177E+03  0.7546771E-02  0.1058894E+00
         21   -1    0    0  502  501  0.00000000000E+00  0.00000000000E+00  0.88901369593E+03  0.88901369593E+03  0.00000000000E+00 0. -1.
         21   -1    0    0  501  502 -0.00000000000E+00 -0.00000000000E+00 -0.14514661338E+03  0.14514661338E+03  0.00000000000E+00 0. -1.
         25    1    1    2    0    0 -0.97900200551E+02 -0.17071343169E+03  0.43644477742E+02  0.23718635177E+03  0.12500000000E+03 0.  0.
         25    1    1    2    0    0  0.45303394823E+02  0.18573259675E+02  0.47326248753E+03  0.49193469654E+03  0.12500000000E+03 0.  0.
         25    1    1    2    0    0  0.52596805728E+02  0.15214017202E+03  0.22696011729E+03  0.30503926100E+03  0.12500000000E+03 0.  0.
</event>
<event>
 5    0  0.5568866E-005  0.3083120E+03  0.7546771E-02  0.1081158E+00
         21   -1    0    0  502  501  0.00000000000E+00  0.00000000000E+00  0.81824480510E+03  0.81824480510E+03  0.00000000000E+00 0.  1.
         21   -1    0    0  501  502 -0.00000000000E+00 -0.00000000000E+00 -0.11617094922E+03  0.11617094922E+03  0.00000000000E+00 0.  1.
         25    1    1    2    0    0  0.43595336730E+02 -0.86454013890E+01  0.16980475670E+03  0.21548538639E+03  0.12500000000E+03 0.  0.
         25    1    1    2    0    0 -0.10216116189E+03  0.19258334020E+03  0.31046038774E+03  0.39941945156E+03  0.12500000000E+03 0.  0.
         25    1    1    2    0    0  0.58565825164E+02 -0.18393793881E+03  0.22180871145E+03  0.31951091638E+03  0.12500000000E+03 0.  0.
</event>
<event>
 5    0  0.5568866E-005  0.2383922E+03  0.7546771E-02  0.1120869E+00
         21   -1    0    0  502  501  0.00000000000E+00  0.00000000000E+00  0.20364393285E+03  0.20364393285E+03  0.00000000000E+00 0. -1.
         21   -1    0    0  501  502 -0.00000000000E+00 -0.00000000000E+00 -0.27906972177E+03  0.27906972177E+03  0.00000000000E+00 0. -1.
         25    1    1    2    0    0  0.82045292958E+02  0.23910918669E+02 -0.73742750702E+02  0.16842255018E+03  0.12500000000E+03 0.  0.
         25    1    1    2    0    0 -0.87732392237E+02 -0.84838735640E+02 -0.89437099421E+01  0.17492733823E+03  0.12500000000E+03 0.  0.
         25    1    1    2    0    0  0.56870992795E+01  0.60927816971E+02  0.72606717231E+01  0.13936376621E+03  0.12500000000E+03 0.  0.
</event>
<event>
 5    0  0.5568866E-005  0.2551453E+03  0.7546771E-02  0.1110096E+00
         21   -1    0    0  502  501  0.00000000000E+00  0.00000000000E+00  0.39251843813E+03  0.39251843813E+03  0.00000000000E+00 0. -1.
         21   -1    0    0  501  502 -0.00000000000E+00 -0.00000000000E+00 -0.16584990038E+03  0.16584990038E+03  0.00000000000E+00 0. -1.
         25    1    1    2    0    0  0.63282787049E+02  0.10347622089E+02  0.47823237092E+02  0.14840433425E+03  0.12500000000E+03 0.  0.
         25    1    1    2    0    0  0.61405483714E+02 -0.19808511696E+02  0.18576802982E+03  0.23301882213E+03  0.12500000000E+03 0.  0.
         25    1    1    2    0    0 -0.12468827076E+03  0.94608896070E+01 -0.69227291657E+01  0.17694518212E+03  0.12500000000E+03 0.  0.
</event>
<event>
 5    0  0.5568866E-005  0.2420528E+03  0.7546771E-02  0.1118433E+00
         21   -1    0    0  502  501  0.00000000000E+00  0.00000000000E+00  0.10932061876E+03  0.10932061876E+03  0.00000000000E+00 0.  1.
         21   -1    0    0  501  502 -0.00000000000E+00 -0.00000000000E+00 -0.53594228815E+03  0.53594228815E+03  0.00000000000E+00 0.  1.
         25    1    1    2    0    0 -0.35249882212E+02 -0.58107085030E+02 -0.88298267330E+02  0.16745319209E+03  0.12500000000E+03 0.  0.
         25    1    1    2    0    0  0.47526533211E+02  0.11648500597E+03 -0.27084104625E+03  0.32373971074E+03  0.12500000000E+03 0.  0.
         25    1    1    2    0    0 -0.12276650999E+02 -0.58377920938E+02 -0.67482355805E+02  0.15407000408E+03  0.12500000000E+03 0.  0.
</event>
<event>
 5    0  0.5568866E-005  0.3073608E+03  0.7546771E-02  0.1081618E+00
         21   -1    0    0  502  501  0.00000000000E+00  0.00000000000E+00  0.10952431847E+03  0.10952431847E+03  0.00000000000E+00 0. -1.
         21   -1    0    0  501  502 -0.00000000000E+00 -0.00000000000E+00 -0.86255393918E+03  0.86255393918E+03  0.00000000000E+00 0. -1.
         25    1    1    2    0    0  0.55640239604E+02  0.64288724789E+02 -0.53240851408E+02  0.16027621363E+03  0.12500000000E+03 0.  0.
         25    1    1    2    0    0  0.36427606803E+02  0.67121939863E+02 -0.97166450908E+02  0.17578010277E+03  0.12500000000E+03 0.  0.
         25    1    1    2    0    0 -0.92067846407E+02 -0.13141066465E+03 -0.60262231839E+03  0.63602194125E+03  0.12500000000E+03 0.  0.
</event>
<event>
 5    0  0.5568866E-005  0.2696072E+03  0.7546771E-02  0.1101505E+00
         21   -1    0    0  502  501  0.00000000000E+00  0.00000000000E+00  0.11689823392E+04  0.11689823392E+04  0.00000000000E+00 0.  1.
         21   -1    0    0  501  502 -0.00000000000E+00 -0.00000000000E+00 -0.62180596562E+02  0.62180596562E+02  0.00000000000E+00 0.  1.
         25    1    1    2    0    0 -0.50808189330E+02 -0.15305125946E+02  0.18367050035E+03  0.22841972700E+03  0.12500000000E+03 0.  0.
         25    1    1    2    0    0 -0.11430248200E+02  0.71800366660E+02  0.78550843718E+03  0.79870798676E+03  0.12500000000E+03 0.  0.
         25    1    1    2    0    0  0.62238437530E+02 -0.56495240714E+02  0.13762280507E+03  0.20403522197E+03  0.12500000000E+03 0.  0.
</event>
<event>
 5    0  0.5568866E-005  0.4441790E+03  0.7546771E-02  0.1029472E+00
         21   -1    0    0  502  501  0.00000000000E+00  0.00000000000E+00  0.78184710572E+02  0.78184710572E+02  0.00000000000E+00 0. -1.
         21   -1    0    0  501  502 -0.00000000000E+00 -0.00000000000E+00 -0.25234467850E+04  0.25234467850E+04  0.00000000000E+00 0. -1.
         25    1    1    2    0    0 -0.26764626158E+01  0.29342277688E+03 -0.10652531019E+04  0.11119771852E+04  0.12500000000E+03 0.  0.
         25    1    1    2    0    0 -0.18126595269E+03 -0.21084104288E+03 -0.96043484865E+03  0.10076563846E+04  0.12500000000E+03 0.  0.
         25    1    1    2    0    0  0.18394241531E+03 -0.82581733999E+02 -0.41957412390E+03  0.48199792570E+03  0.12500000000E+03 0.  0.
</event>
<event>
 5    0  0.5568866E-005  0.3013982E+03  0.7546771E-02  0.1084544E+00
         21   -1    0    0  502  501  0.00000000000E+00  0.00000000000E+00  0.24560989186E+03  0.24560989186E+03  0.00000000000E+00 0. -1.
         21   -1    0    0  501  502 -0.00000000000E+00 -0.00000000000E+00 -0.36985836344E+03  0.36985836344E+03  0.00000000000E+00 0. -1.
         25    1    1    2    0    0 -0.45865357752E+02 -0.41807653973E+02  0.11811441702E+03  0.18283196242E+03  0.12500000000E+03 0.  0.
         25    1    1    2    0    0 -0.66918651481E+02  0.61677225894E+02 -0.20880081853E+03  0.25981718174E+03  0.12500000000E+03 0.  0.
         25    1    1    2    0    0  0.11278400923E+03 -0.19869571921E+02 -0.33562070073E+02  0.17281911114E+03  0.12500000000E+03 0.  0.
</event>
<event>
 5    0  0.5568866E-005  0.2659749E+03  0.7546771E-02  0.1103606E+00
         21   -1    0    0  502  501  0.00000000000E+00  0.00000000000E+00  0.11429588456E+03  0.11429588456E+03  0.00000000000E+00 0.  1.
         21   -1    0    0  501  502 -0.00000000000E+00 -0.00000000000E+00 -0.61894325613E+03  0.61894325613E+03  0.00000000000E+00 0.  1.
         25    1    1    2    0    0 -0.47713882787E+02 -0.26462481144E+02 -0.63554136931E+02  0.15046928537E+03  0.12500000000E+03 0.  0.
         25    1    1    2    0    0  0.10865766299E+03  0.48847389724E+02 -0.40056577735E+03  0.43620006556E+03  0.12500000000E+03 0.  0.
         25    1    1    2    0    0 -0.60943780207E+02 -0.22384908580E+02 -0.40527457286E+02  0.14656978977E+03  0.12500000000E+03 0.  0.
</event>
<event>
 5    0  0.5568866E-005  0.4871431E+03  0.7546771E-02  0.1017190E+00
         21   -1    0    0  502  501  0.00000000000E+00  0.00000000000E+00  0.16080090137E+03  0.16080090137E+03  0.00000000000E+00 0.  1.
         21   -1    0    0  501  502 -0.00000000000E+00 -0.00000000000E+00 -0.14757904371E+04  0.14757904371E+04  0.00000000000E+00 0.  1.
         25    1    1    2    0    0  0.15940640398E+03 -0.16885614679E+02 -0.26530697646E+03  0.33422794223E+03  0.12500000000E+03 0.  0.
         25    1    1    2    0    0  0.26060664264E+03  0.15911600149E+02 -0.64020166461E+03  0.70260385181E+03  0.12500000000E+03 0.  0.
         25    1    1    2    0    0 -0.42001304662E+03  0.97401452988E+00 -0.40948089466E+03  0.59975954442E+03  0.12500000000E+03 0.  0.
</event>
<event>
 5    0  0.5568866E-005  0.2348344E+03  0.7546771E-02  0.1123283E+00
         21   -1    0    0  502  501  0.00000000000E+00  0.00000000000E+00  0.18626174583E+04  0.18626174583E+04  0.00000000000E+00 0. -1.
         21   -1    0    0  501  502 -0.00000000000E+00 -0.00000000000E+00 -0.29607374282E+02  0.29607374282E+02  0.00000000000E+00 0. -1.
         25    1    1    2    0    0  0.54251373465E+02 -0.73492130780E+02  0.66604618189E+03  0.68380320358E+03  0.12500000000E+03 0.  0.
         25    1    1    2    0    0 -0.29372549424E+02 -0.48339007520E+02  0.53684548294E+03  0.55410060355E+03  0.12500000000E+03 0.  0.
         25    1    1    2    0    0 -0.24878824041E+02  0.12183113830E+03  0.63011841916E+03  0.65432102543E+03  0.12500000000E+03 0.  0.
</event>
<event>
 5    0  0.5568866E-005  0.3868409E+03  0.7546771E-02  0.1048434E+00
         21   -1    0    0  502  501  0.00000000000E+00  0.00000000000E+00  0.12731903842E+04  0.12731903842E+04  0.00000000000E+00 0.  1.
         21   -1    0    0  501  502 -0.00000000000E+00 -0.00000000000E+00 -0.11753613873E+03  0.11753613873E+03  0.00000000000E+00 0.  1.
         25    1    1    2    0    0 -0.16386775508E+03 -0.16589036017E+03  0.30907730188E+03  0.40684890474E+03  0.12500000000E+03 0.  0.
         25    1    1    2    0    0  0.13819055896E+03  0.80222871102E+02  0.79694894407E+03  0.82236546565E+03  0.12500000000E+03 0.  0.
         25    1    1    2    0    0  0.25677196127E+02  0.85667489068E+02  0.49627999536E+02  0.16151215255E+03  0.12500000000E+03 0.  0.
</event>
<event>
 5    0  0.5568866E-005  0.2710820E+03  0.7546771E-02  0.1100662E+00
         21   -1    0    0  502  501  0.00000000000E+00  0.00000000000E+00  0.75937744457E+03  0.75937744457E+03  0.00000000000E+00 0.  1.
         21   -1    0    0  501  502 -0.00000000000E+00 -0.00000000000E+00 -0.96770642924E+02  0.96770642924E+02  0.00000000000E+00 0.  1.
         25    1    1    2    0    0 -0.36274944949E+02 -0.42552276645E+02  0.29809559097E+03  0.32804351729E+03  0.12500000000E+03 0.  0.
         25    1    1    2    0    0 -0.62021546690E+02  0.48300484235E+02  0.33522798823E+03  0.36630917696E+03  0.12500000000E+03 0.  0.
         25    1    1    2    0    0  0.98296491639E+02 -0.57482075901E+01  0.29283222445E+02  0.16179539325E+03  0.12500000000E+03 0.  0.
</event>
<event>
 5    0  0.5854298E-005  0.6010676E+03  0.7546771E-02  0.9903194E-01
         21   -1    0    0  502  501  0.00000000000E+00  0.00000000000E+00  0.34556271160E+03  0.34556271160E+03  0.00000000000E+00 0.  1.
         21   -1    0    0  501  502 -0.00000000000E+00 -0.00000000000E+00 -0.10454897225E+04  0.10454897225E+04  0.00000000000E+00 0.  1.
         25    1    1    2    0    0  0.18765302691E+03  0.29570172056E+03 -0.52025266522E+03  0.63948495035E+03  0.12500000000E+03 0.  0.
         25    1    1    2    0    0  0.29222645143E+02 -0.33417585280E+03  0.10253721079E+03  0.37237930015E+03  0.12500000000E+03 0.  0.
         25    1    1    2    0    0 -0.21687567205E+03  0.38474132240E+02 -0.28221155650E+03  0.37918818363E+03  0.12500000000E+03 0.  0.
</event>
<event>
 5    0  0.5568866E-005  0.2502818E+03  0.7546771E-02  0.1113127E+00
         21   -1    0    0  502  501  0.00000000000E+00  0.00000000000E+00  0.88025246045E+02  0.88025246045E+02  0.00000000000E+00 0. -1.
         21   -1    0    0  501  502 -0.00000000000E+00 -0.00000000000E+00 -0.71162515450E+03  0.71162515450E+03  0.00000000000E+00 0. -1.
         25    1    1    2    0    0 -0.91775603276E+02  0.66675373899E+02 -0.16929728340E+03  0.23907098738E+03  0.12500000000E+03 0.  0.
         25    1    1    2    0    0 -0.42447934845E+02 -0.41688629829E+02 -0.14773616197E+03  0.20246170646E+03  0.12500000000E+03 0.  0.
         25    1    1    2    0    0  0.13422353812E+03 -0.24986744070E+02 -0.30656646308E+03  0.35811770670E+03  0.12500000000E+03 0.  0.
</event>
<event>
 5    0  0.5568866E-005  0.2791987E+03  0.7546771E-02  0.1096127E+00
         21   -1    0    0  502  501  0.00000000000E+00  0.00000000000E+00  0.11954830724E+04  0.11954830724E+04  0.00000000000E+00 0. -1.
         21   -1    0    0  501  502 -0.00000000000E+00 -0.00000000000E+00 -0.65205352015E+02  0.65205352015E+02  0.00000000000E+00 0. -1.
         25    1    1    2    0    0 -0.13690931645E+03 -0.42441987280E+02  0.28848403214E+03  0.34553367422E+03  0.12500000000E+03 0.  0.
         25    1    1    2    0    0  0.13356443054E+03 -0.45678685040E+02  0.60095539354E+03  0.62983996729E+03  0.12500000000E+03 0.  0.
         25    1    1    2    0    0  0.33448859110E+01  0.88120672319E+02  0.24083829472E+03  0.28531478292E+03  0.12500000000E+03 0.  0.
</event>
<event>
 5    0  0.5568866E-005  0.2550882E+03  0.7546771E-02  0.1110131E+00
         21   -1    0    0  502  501  0.00000000000E+00  0.00000000000E+00  0.51709278221E+02  0.51709278221E+02  0.00000000000E+00 0.  1.
         21   -1    0    0  501  502 -0.00000000000E+00 -0.00000000000E+00 -0.12583812789E+04  0.12583812789E+04  0.00000000000E+00 0.  1.
         25    1    1    2    0    0 -0.43550482983E+01  0.12137127473E+03 -0.34729093647E+03  0.38856910239E+03  0.12500000000E+03 0.  0.
         25    1    1    2    0    0  0.23758047574E+02 -0.57979846335E+02 -0.67379462556E+03  0.68814991451E+03  0.12500000000E+03 0.  0.
         25    1    1    2    0    0 -0.19402999276E+02 -0.63391428397E+02 -0.18558643864E+03  0.23337154022E+03  0.12500000000E+03 0.  0.
</event>
<event>
 5    0  0.5568866E-005  0.3485739E+03  0.7546771E-02  0.1063202E+00
         21   -1    0    0  502  501  0.00000000000E+00  0.00000000000E+00  0.18698096743E+03  0.18698096743E+03  0.00000000000E+00 0. -1.
         21   -1    0    0  501  502 -0.00000000000E+00 -0.00000000000E+00 -0.64981895912E+03  0.64981895912E+03  0.00000000000E+00 0. -1.
         25    1    1    2    0    0  0.26028959372E+03 -0.67810893428E+02 -0.15132728708E+03  0.33297738314E+03  0.12500000000E+03 0.  0.
         25    1    1    2    0    0 -0.16428037017E+03  0.55328706542E+02 -0.90518746784E+02  0.23209469901E+03  0.12500000000E+03 0.  0.
         25    1    1    2    0    0 -0.96009223555E+02  0.12482186886E+02 -0.22099195783E+03  0.27172784440E+03  0.12500000000E+03 0.  0.
</event>
<event>
 5    0  0.5568866E-005  0.2919878E+03  0.7546771E-02  0.1089316E+00
         21   -1    0    0  502  501  0.00000000000E+00  0.00000000000E+00  0.44196112883E+02  0.44196112883E+02  0.00000000000E+00 0.  1.
         21   -1    0    0  501  502 -0.00000000000E+00 -0.00000000000E+00 -0.19290584167E+04  0.19290584167E+04  0.00000000000E+00 0.  1.
         25    1    1    2    0    0 -0.47443848936E+02  0.49966026197E+02 -0.14984381772E+03  0.20694369352E+03  0.12500000000E+03 0.  0.
         25    1    1    2    0    0 -0.60928733195E+02 -0.95151906365E+01 -0.48127009943E+03  0.50104766040E+03  0.12500000000E+03 0.  0.
         25    1    1    2    0    0  0.10837258213E+03 -0.40450835561E+02 -0.12537483867E+04  0.12652631757E+04  0.12500000000E+03 0.  0.
</event>
<event>
 5    0  0.5568866E-005  0.3223991E+03  0.7546771E-02  0.1074550E+00
         21   -1    0    0  502  501  0.00000000000E+00  0.00000000000E+00  0.88243269219E+03  0.88243269219E+03  0.00000000000E+00 0.  1.
         21   -1    0    0  501  502 -0.00000000000E+00 -0.00000000000E+00 -0.11778933570E+03  0.11778933570E+03  0.00000000000E+00 0.  1.
         25    1    1    2    0    0  0.21044690454E+03 -0.21333337128E+02  0.52912532758E+03  0.58338805541E+03  0.12500000000E+03 0.  0.
         25    1    1    2    0    0 -0.16487883929E+03 -0.89295769875E+01  0.15147951043E+03  0.25658490032E+03  0.12500000000E+03 0.  0.
         25    1    1    2    0    0 -0.45568065251E+02  0.30262914115E+02  0.84038518475E+02  0.16024907216E+03  0.12500000000E+03 0.  0.
</event>
<event>
 5    0  0.5568866E-005  0.3120794E+03  0.7546771E-02  0.1079353E+00
         21   -1    0    0  502  501  0.00000000000E+00  0.00000000000E+00  0.35938583832E+02  0.35938583832E+02  0.00000000000E+00 0.  1.
         21   -1    0    0  501  502 -0.00000000000E+00 -0.00000000000E+00 -0.27099997666E+04  0.27099997666E+04  0.00000000000E+00 0.  1.
         25    1    1    2    0    0  0.83222014356E+02 -0.10794644591E+03 -0.17878376363E+04  0.17973777434E+04  0.12500000000E+03 0.  0.
         25    1    1    2    0    0 -0.15051516818E+02  0.12700466587E+03 -0.62916383904E+03  0.65408628610E+03  0.12500000000E+03 0.  0.
         25    1    1    2    0    0 -0.68170497538E+02 -0.19058219967E+02 -0.25705970750E+03  0.29447432096E+03  0.12500000000E+03 0.  0.
</event>
<event>
 5    0  0.5568866E-005  0.2941357E+03  0.7546771E-02  0.1088209E+00
         21   -1    0    0  502  501  0.00000000000E+00  0.00000000000E+00  0.75729605490E+03  0.75729605490E+03  0.00000000000E+00 0. -1.
         21   -1    0    0  501  502 -0.00000000000E+00 -0.00000000000E+00 -0.11424308656E+03  0.11424308656E+03  0.00000000000E+00 0. -1.
         25    1    1    2    0    0 -0.40871478414E+02 -0.14243465885E+03  0.40867612385E+03  0.45232652365E+03  0.12500000000E+03 0.  0.
         25    1    1    2    0    0 -0.40445302909E+02 -0.10525699780E+02  0.67151966882E+02  0.14792227533E+03  0.12500000000E+03 0.  0.
         25    1    1    2    0    0  0.81316781322E+02  0.15296035863E+03  0.16722487761E+03  0.27129034249E+03  0.12500000000E+03 0.  0.
</event>
<event>
 5    0  0.5568866E-005  0.3075599E+03  0.7546771E-02  0.1081521E+00
         21   -1    0    0  502  501  0.00000000000E+00  0.00000000000E+00  0.34542460912E+03  0.34542460912E+03  0.00000000000E+00 0.  1.
         21   -1    0    0  501  502 -0.00000000000E+00 -0.00000000000E+00 -0.27384589941E+03  0.27384589941E+03  0.00000000000E+00 0.  1.
         25    1    1    2    0    0  0.10410877659E+03 -0.70682230418E+00 -0.74976864648E+02  0.17912472524E+03  0.12500000000E+03 0.  0.
         25    1    1    2    0    0 -0.18963892847E+03 -0.49521305241E+02  0.14325506710E+02  0.23290664011E+03  0.12500000000E+03 0.  0.
         25    1    1    2    0    0  0.85530151877E+02  0.50228127545E+02  0.13223006765E+03  0.20723914318E+03  0.12500000000E+03 0.  0.
</event>
<event>
 5    0  0.5568866E-005  0.3207979E+03  0.7546771E-02  0.1075283E+00
         21   -1    0    0  502  501  0.00000000000E+00  0.00000000000E+00  0.30570869419E+03  0.30570869419E+03  0.00000000000E+00 0. -1.
         21   -1    0    0  501  502 -0.00000000000E+00 -0.00000000000E+00 -0.33663192999E+03  0.33663192999E+03  0.00000000000E+00 0. -1.
         25    1    1    2    0    0 -0.35548313367E+01 -0.93405935719E+02 -0.99661506559E+02  0.18518834073E+03  0.12500000000E+03 0.  0.
         25    1    1    2    0    0  0.84864389115E+02  0.78728511190E+02  0.19661916187E+03  0.26016194539E+03  0.12500000000E+03 0.  0.
         25    1    1    2    0    0 -0.81309557778E+02  0.14677424529E+02 -0.12788089111E+03  0.19699033806E+03  0.12500000000E+03 0.  0.
</event>
<event>
 5    0  0.5568866E-005  0.3824262E+03  0.7546771E-02  0.1050041E+00
         21   -1    0    0  502  501  0.00000000000E+00  0.00000000000E+00  0.19985740732E+03  0.19985740732E+03  0.00000000000E+00 0.  1.
         21   -1    0    0  501  502 -0.00000000000E+00 -0.00000000000E+00 -0.73177085096E+03  0.73177085096E+03  0.00000000000E+00 0.  1.
         25    1    1    2    0    0 -0.64823606845E+02 -0.28600040780E+03 -0.22111400148E+03  0.38796228543E+03  0.12500000000E+03 0.  0.
         25    1    1    2    0    0 -0.52155605551E+02  0.51782450539E+02 -0.49491975133E+02  0.15321907511E+03  0.12500000000E+03 0.  0.
         25    1    1    2    0    0  0.11697921240E+03  0.23421795726E+03 -0.26130746702E+03  0.39044689774E+03  0.12500000000E+03 0.  0.
</event>
<event>
 5    0  0.5568866E-005  0.2781687E+03  0.7546771E-02  0.1096693E+00
         21   -1    0    0  502  501  0.00000000000E+00  0.00000000000E+00  0.17084158713E+03  0.17084158713E+03  0.00000000000E+00 0.  1.
         21   -1    0    0  501  502 -0.00000000000E+00 -0.00000000000E+00 -0.45292157214E+03  0.45292157214E+03  0.00000000000E+00 0.  1.
         25    1    1    2    0    0  0.69843463867E+02  0.10712784215E+03 -0.15036622177E+02  0.17945914302E+03  0.12500000000E+03 0.  0.
         25    1    1    2    0    0  0.14587357509E+02 -0.12672124718E+03 -0.22348580786E+03  0.28608035899E+03  0.12500000000E+03 0.  0.
         25    1    1    2    0    0 -0.84430821377E+02  0.19593405030E+02 -0.43557554966E+02  0.15822365725E+03  0.12500000000E+03 0.  0.
</event>
<event>
 5    0  0.5568866E-005  0.3519739E+03  0.7546771E-02  0.1061808E+00
         21   -1    0    0  502  501  0.00000000000E+00  0.00000000000E+00  0.70051990231E+03  0.70051990231E+03  0.00000000000E+00 0.  1.
         21   -1    0    0  501  502 -0.00000000000E+00 -0.00000000000E+00 -0.17684816301E+03  0.17684816301E+03  0.00000000000E+00 0.  1.
         25    1    1    2    0    0 -0.13060906812E+03  0.16205108605E+03  0.37448033174E+03  0.44629564419E+03  0.12500000000E+03 0.  0.
         25    1    1    2    0    0  0.18697081942E+03 -0.73607026790E+02  0.56055285992E+02  0.24319390781E+03  0.12500000000E+03 0.  0.
         25    1    1    2    0    0 -0.56361751300E+02 -0.88444059256E+02  0.93136121571E+02  0.18787851332E+03  0.12500000000E+03 0.  0.
</event>
<event>
 5    0  0.5568866E-005  0.2682859E+03  0.7546771E-02  0.1102265E+00
         21   -1    0    0  502  501  0.00000000000E+00  0.00000000000E+00  0.56955572985E+03  0.56955572985E+03  0.00000000000E+00 0. -1.
         21   -1    0    0  501  502 -0.00000000000E+00 -0.00000000000E+00 -0.12637453441E+03  0.12637453441E+03  0.00000000000E+00 0. -1.
         25    1    1    2    0    0  0.12400564984E+03  0.22840820005E+02  0.25850362474E+03  0.31360521083E+03  0.12500000000E+03 0.  0.
         25    1    1    2    0    0  0.13908356147E+02 -0.72807657367E+01  0.96478171747E+01  0.12635083022E+03  0.12500000000E+03 0.  0.
         25    1    1    2    0    0 -0.13791400599E+03 -0.15560054268E+02  0.17502975352E+03  0.25597422322E+03  0.12500000000E+03 0.  0.
</event>
<event>
 5    0  0.5568866E-005  0.2740414E+03  0.7546771E-02  0.1098989E+00
         21   -1    0    0  502  501  0.00000000000E+00  0.00000000000E+00  0.10610409233E+04  0.10610409233E+04  0.00000000000E+00 0. -1.
         21   -1    0    0  501  502 -0.00000000000E+00 -0.00000000000E+00 -0.70778339365E+02  0.70778339365E+02  0.00000000000E+00 0. -1.
         25    1    1    2    0    0 -0.12669181376E+03  0.36492618077E+02  0.51917846161E+03  0.55004890860E+03  0.12500000000E+03 0.  0.
         25    1    1    2    0    0  0.83435654998E+02 -0.76810829235E+02  0.38106610544E+03  0.41677066682E+03  0.12500000000E+03 0.  0.
         25    1    1    2    0    0  0.43256158759E+02  0.40318211159E+02  0.90018016858E+02  0.16499968721E+03  0.12500000000E+03 0.  0.
</event>
<event>
 5    0  0.5568866E-005  0.3519730E+03  0.7546771E-02  0.1061808E+00
         21   -1    0    0  502  501  0.00000000000E+00  0.00000000000E+00  0.92391878410E+03  0.92391878410E+03  0.00000000000E+00 0.  1.
         21   -1    0    0  501  502 -0.00000000000E+00 -0.00000000000E+00 -0.13408644266E+03  0.13408644266E+03  0.00000000000E+00 0.  1.
         25    1    1    2    0    0 -0.15906375277E+03 -0.58286430844E+01  0.28617747035E+03  0.35051076312E+03  0.12500000000E+03 0.  0.
         25    1    1    2    0    0 -0.56060492313E+01  0.18489683151E+03  0.21907904288E+03  0.31279209248E+03  0.12500000000E+03 0.  0.
         25    1    1    2    0    0  0.16466980201E+03 -0.17906818842E+03  0.28457582821E+03  0.39470237116E+03  0.12500000000E+03 0.  0.
</event>
<event>
 5    0  0.5568866E-005  0.2960071E+03  0.7546771E-02  0.1087254E+00
         21   -1    0    0  502  501  0.00000000000E+00  0.00000000000E+00  0.22656291687E+03  0.22656291687E+03  0.00000000000E+00 0.  1.
         21   -1    0    0  501  502 -0.00000000000E+00 -0.00000000000E+00 -0.38673664694E+03  0.38673664694E+03  0.00000000000E+00 0.  1.
         25    1    1    2    0    0 -0.13610038713E+03  0.92467339058E+02 -0.17598527321E+03  0.27142096558E+03  0.12500000000E+03 0.  0.
         25    1    1    2    0    0  0.78509649217E+02 -0.97372715775E+02  0.74873336083E+02  0.19203183917E+03  0.12500000000E+03 0.  0.
         25    1    1    2    0    0  0.57590737916E+02  0.49053767177E+01 -0.59061792953E+02  0.14984675906E+03  0.12500000000E+03 0.  0.
</event>
<event>
 5    0  0.5568866E-005  0.2099691E+03  0.7546771E-02  0.1141590E+00
         21   -1    0    0  502  501  0.00000000000E+00  0.00000000000E+00  0.27403619418E+04  0.27403619418E+04  0.00000000000E+00 0. -1.
         21   -1    0    0  501  502 -0.00000000000E+00 -0.00000000000E+00 -0.16088027252E+02  0.16088027252E+02  0.00000000000E+00 0. -1.
         25    1    1    2    0    0 -0.36015830969E+02 -0.58484950288E+02  0.11002353355E+04  0.11094414915E+04  0.12500000000E+03 0.  0.
         25    1    1    2    0    0 -0.24470295837E+02  0.17773877709E+02  0.70200317975E+03  0.71368632500E+03  0.12500000000E+03 0.  0.
         25    1    1    2    0    0  0.60486126807E+02  0.40711072579E+02  0.92203539933E+03  0.93332215263E+03  0.12500000000E+03 0.  0.
</event>
<event>
 5    0  0.5568866E-005  0.4223873E+03  0.7546771E-02  0.1036292E+00
         21   -1    0    0  502  501  0.00000000000E+00  0.00000000000E+00  0.13829073237E+04  0.13829073237E+04  0.00000000000E+00 0.  1.
         21   -1    0    0  501  502 -0.00000000000E+00 -0.00000000000E+00 -0.12901156713E+03  0.12901156713E+03  0.00000000000E+00 0.  1.
         25    1    1    2    0    0 -0.21326784163E+02 -0.67409293963E+01  0.13997573556E+03  0.18899332898E+03  0.12500000000E+03 0.  0.
         25    1    1    2    0    0  0.24448482161E+03 -0.21157622607E+03  0.37269238878E+03  0.50898128068E+03  0.12500000000E+03 0.  0.
         25    1    1    2    0    0 -0.22315803745E+03  0.21831715547E+03  0.74122763221E+03  0.81394428114E+03  0.12500000000E+03 0.  0.
</event>
<event>
 5    0  0.5568866E-005  0.2622915E+03  0.7546771E-02  0.1105774E+00
         21   -1    0    0  502  501  0.00000000000E+00  0.00000000000E+00  0.10612040228E+04  0.10612040228E+04  0.00000000000E+00 0. -1.
         21   -1    0    0  501  502 -0.00000000000E+00 -0.00000000000E+00 -0.64829054250E+02  0.64829054250E+02  0.00000000000E+00 0. -1.
         25    1    1    2    0    0  0.24314698833E+02 -0.37581413853E+02  0.65025176329E+03  0.66366853391E+03  0.12500000000E+03 0.  0.
         25    1    1    2    0    0  0.36655276709E+02 -0.51598339522E+02  0.13826768916E+03  0.19684753444E+03  0.12500000000E+03 0.  0.
         25    1    1    2    0    0 -0.60969975542E+02  0.89179753374E+02  0.20785551610E+03  0.26551700869E+03  0.12500000000E+03 0.  0.
</event>
<event>
 5    0  0.5568866E-005  0.3119227E+03  0.7546771E-02  0.1079428E+00
         21   -1    0    0  502  501  0.00000000000E+00  0.00000000000E+00  0.26908624906E+03  0.26908624906E+03  0.00000000000E+00 0.  1.
         21   -1    0    0  501  502 -0.00000000000E+00 -0.00000000000E+00 -0.36157838404E+03  0.36157838404E+03  0.00000000000E+00 0.  1.
         25    1    1    2    0    0  0.35051620195E+02 -0.18817824559E+03 -0.11198750964E+02  0.22888879443E+03  0.12500000000E+03 0.  0.
         25    1    1    2    0    0 -0.13104092304E+03  0.70372345537E+02 -0.18202607816E+02  0.19514180859E+03  0.12500000000E+03 0.  0.
         25    1    1    2    0    0  0.95989302847E+02  0.11780590005E+03 -0.63090776202E+02  0.20663403009E+03  0.12500000000E+03 0.  0.
</event>
<event>
 5    0  0.5568866E-005  0.3108154E+03  0.7546771E-02  0.1079956E+00
         21   -1    0    0  502  501  0.00000000000E+00  0.00000000000E+00  0.95986377636E+03  0.95986377636E+03  0.00000000000E+00 0.  1.
         21   -1    0    0  501  502 -0.00000000000E+00 -0.00000000000E+00 -0.10064577933E+03  0.10064577933E+03  0.00000000000E+00 0.  1.
         25    1    1    2    0    0  0.49826157669E+00  0.11537720325E+03  0.25470330900E+03  0.30628568838E+03  0.12500000000E+03 0.  0.
         25    1    1    2    0    0  0.30250329623E+02 -0.21309249445E+03  0.50874602418E+03  0.56636649861E+03  0.12500000000E+03 0.  0.
         25    1    1    2    0    0 -0.30748591199E+02  0.97715291200E+02  0.95768663859E+02  0.18785736869E+03  0.12500000000E+03 0.  0.
</event>
<event>
 5    0  0.5568866E-005  0.2810468E+03  0.7546771E-02  0.1095119E+00
         21   -1    0    0  502  501  0.00000000000E+00  0.00000000000E+00  0.80156960959E+02  0.80156960959E+02  0.00000000000E+00 0.  1.
         21   -1    0    0  501  502 -0.00000000000E+00 -0.00000000000E+00 -0.98540813980E+03  0.98540813980E+03  0.00000000000E+00 0.  1.
         25    1    1    2    0    0  0.12004196829E+01 -0.90787100175E+02 -0.21827540870E+03  0.26741894587E+03  0.12500000000E+03 0.  0.
         25    1    1    2    0    0 -0.10722137358E+03 -0.59628985578E+02 -0.22270243392E+03  0.28332563059E+03  0.12500000000E+03 0.  0.
         25    1    1    2    0    0  0.10602095390E+03  0.15041608575E+03 -0.46427333622E+03  0.51482052430E+03  0.12500000000E+03 0.  0.
</event>
<event>
 5    0  0.5568866E-005  0.5296160E+03  0.7546771E-02  0.1006325E+00
         21   -1    0    0  502  501  0.00000000000E+00  0.00000000000E+00  0.12945589737E+03  0.12945589737E+03  0.00000000000E+00 0.  1.
         21   -1    0    0  501  502 -0.00000000000E+00 -0.00000000000E+00 -0.21667080233E+04  0.21667080233E+04  0.00000000000E+00 0.  1.
         25    1    1    2    0    0  0.33084877260E+03  0.28217996685E+02 -0.82090451131E+03  0.89429658523E+03  0.12500000000E+03 0.  0.
         25    1    1    2    0    0 -0.33769085456E+03 -0.13618647931E+03 -0.35131703767E+03  0.52118186016E+03  0.12500000000E+03 0.  0.
         25    1    1    2    0    0  0.68420819629E+01  0.10796848262E+03 -0.86503057696E+03  0.88068547530E+03  0.12500000000E+03 0.  0.
</event>
<event>
 5    0  0.5568866E-005  0.6083742E+03  0.7546771E-02  0.9888183E-01
         21   -1    0    0  502  501  0.00000000000E+00  0.00000000000E+00  0.14490458938E+04  0.14490458938E+04  0.00000000000E+00 0.  1.
         21   -1    0    0  501  502 -0.00000000000E+00 -0.00000000000E+00 -0.25542267253E+03  0.25542267253E+03  0.00000000000E+00 0.  1.
         25    1    1    2    0    0  0.28176803330E+02  0.15159315052E+03  0.46152095354E+03  0.50239526877E+03  0.12500000000E+03 0.  0.
         25    1    1    2    0    0  0.19941424125E+03 -0.28527218544E+03 -0.44384962447E+02  0.37247991126E+03  0.12500000000E+03 0.  0.
         25    1    1    2    0    0 -0.22759104458E+03  0.13367903493E+03  0.77648723021E+03  0.82959338633E+03  0.12500000000E+03 0.  0.
</event>
<event>
 5    0  0.5578595E-005  0.4854460E+03  0.7546771E-02  0.1017649E+00
         21   -1    0    0  502  501  0.00000000000E+00  0.00000000000E+00  0.10441888912E+04  0.10441888912E+04  0.00000000000E+00 0. -1.
         21   -1    0    0  501  502 -0.00000000000E+00 -0.00000000000E+00 -0.22568502696E+03  0.22568502696E+03  0.00000000000E+00 0. -1.
         25    1    1    2    0    0  0.16138160896E+03  0.21294357698E+03 -0.48397373354E+01  0.29502103949E+03  0.12500000000E+03 0.  0.
         25    1    1    2    0    0 -0.10277683063E+03  0.71502841230E+02  0.46195490487E+03  0.49467470862E+03  0.12500000000E+03 0.  0.
         25    1    1    2    0    0 -0.58604778336E+02 -0.28444641821E+03  0.36138869669E+03  0.48017817002E+03  0.12500000000E+03 0.  0.
</event>
<event>
 5    0  0.5568866E-005  0.2313445E+03  0.7546771E-02  0.1125697E+00
         21   -1    0    0  502  501  0.00000000000E+00  0.00000000000E+00  0.16916667705E+04  0.16916667705E+04  0.00000000000E+00 0. -1.
         21   -1    0    0  501  502 -0.00000000000E+00 -0.00000000000E+00 -0.31637592595E+02  0.31637592595E+02  0.00000000000E+00 0. -1.
         25    1    1    2    0    0  0.22210413661E+02  0.81036319032E+02  0.48115452048E+03  0.50417740930E+03  0.12500000000E+03 0.  0.
         25    1    1    2    0    0 -0.69851269436E+02 -0.96698674672E+02  0.57417409925E+03  0.59960881395E+03  0.12500000000E+03 0.  0.
         25    1    1    2    0    0  0.47640855775E+02  0.15662355640E+02  0.60470055821E+03  0.61951813986E+03  0.12500000000E+03 0.  0.
</event>
<event>
 5    0  0.5568866E-005  0.5069922E+03  0.7546771E-02  0.1011970E+00
         21   -1    0    0  502  501  0.00000000000E+00  0.00000000000E+00  0.44311236263E+03  0.44311236263E+03  0.00000000000E+00 0.  1.
         21   -1    0    0  501  502 -0.00000000000E+00 -0.00000000000E+00 -0.58008116784E+03  0.58008116784E+03  0.00000000000E+00 0.  1.
         25    1    1    2    0    0 -0.21934524422E+03  0.29257633148E+03  0.12114790286E+03  0.40498772854E+03  0.12500000000E+03 0.  0.
         25    1    1    2    0    0  0.27045948907E+03 -0.77649107503E+02 -0.13981501989E+03  0.33815818623E+03  0.12500000000E+03 0.  0.
         25    1    1    2    0    0 -0.51114244851E+02 -0.21492722398E+03 -0.11830168818E+03  0.28004761570E+03  0.12500000000E+03 0.  0.
</event>
<event>
 5    0  0.5568866E-005  0.2483003E+03  0.7546771E-02  0.1114384E+00
         21   -1    0    0  502  501  0.00000000000E+00  0.00000000000E+00  0.37973876993E+02  0.37973876993E+02  0.00000000000E+00 0. -1.
         21   -1    0    0  501  502 -0.00000000000E+00 -0.00000000000E+00 -0.16235651101E+04  0.16235651101E+04  0.00000000000E+00 0. -1.
         25    1    1    2    0    0 -0.48089250974E+02  0.86584153292E+01 -0.20983099777E+03  0.24908149638E+03  0.12500000000E+03 0.  0.
         25    1    1    2    0    0  0.29385311604E+02  0.65362875610E+02 -0.38787349573E+03  0.41377125412E+03  0.12500000000E+03 0.  0.
         25    1    1    2    0    0  0.18703939370E+02 -0.74021290939E+02 -0.98788673959E+03  0.99868623657E+03  0.12500000000E+03 0.  0.
</event>
<event>
 5    0  0.5568866E-005  0.2458153E+03  0.7546771E-02  0.1115978E+00
         21   -1    0    0  502  501  0.00000000000E+00  0.00000000000E+00  0.70001369689E+03  0.70001369689E+03  0.00000000000E+00 0. -1.
         21   -1    0    0  501  502 -0.00000000000E+00 -0.00000000000E+00 -0.86319944019E+02  0.86319944019E+02  0.00000000000E+00 0. -1.
         25    1    1    2    0    0  0.13484110340E+02  0.37764902066E+02  0.91455205441E+02  0.15999082368E+03  0.12500000000E+03 0.  0.
         25    1    1    2    0    0 -0.10027778381E+03  0.28144155841E+02  0.16119660819E+03  0.22903509321E+03  0.12500000000E+03 0.  0.
         25    1    1    2    0    0  0.86793673468E+02 -0.65909057907E+02  0.36104193924E+03  0.39730772402E+03  0.12500000000E+03 0.  0.
</event>
<event>
 5    0  0.5568866E-005  0.3011813E+03  0.7546771E-02  0.1084652E+00
         21   -1    0    0  502  501  0.00000000000E+00  0.00000000000E+00  0.50886412114E+03  0.50886412114E+03  0.00000000000E+00 0. -1.
         21   -1    0    0  501  502 -0.00000000000E+00 -0.00000000000E+00 -0.17826006447E+03  0.17826006447E+03  0.00000000000E+00 0. -1.
         25    1    1    2    0    0  0.30944327410E+02 -0.52050381551E+02  0.20448665104E+02  0.14039209922E+03  0.12500000000E+03 0.  0.
         25    1    1    2    0    0  0.10619487675E+03  0.26718027841E+02  0.31852036658E+03  0.35926512325E+03  0.12500000000E+03 0.  0.
         25    1    1    2    0    0 -0.13713920416E+03  0.25332353710E+02 -0.83649750097E+01  0.18746696314E+03  0.12500000000E+03 0.  0.
</event>
<event>
 5    0  0.5568866E-005  0.3185562E+03  0.7546771E-02  0.1076316E+00
         21   -1    0    0  502  501  0.00000000000E+00  0.00000000000E+00  0.15428885192E+04  0.15428885192E+04  0.00000000000E+00 0. -1.
         21   -1    0    0  501  502 -0.00000000000E+00 -0.00000000000E+00 -0.65771473306E+02  0.65771473306E+02  0.00000000000E+00 0. -1.
         25    1    1    2    0    0 -0.44877399898E+02 -0.72569600814E+02  0.55573402073E+03  0.57597363636E+03  0.12500000000E+03 0.  0.
         25    1    1    2    0    0  0.10366521022E+03  0.16395135785E+03  0.78475354736E+03  0.81797900563E+03  0.12500000000E+03 0.  0.
         25    1    1    2    0    0 -0.58787810325E+02 -0.91381757040E+02  0.13662947780E+03  0.21470735052E+03  0.12500000000E+03 0.  0.
</event>
<event>
 5    0  0.5568866E-005  0.2747882E+03  0.7546771E-02  0.1098570E+00
         21   -1    0    0  502  501  0.00000000000E+00  0.00000000000E+00  0.33661824223E+03  0.33661824223E+03  0.00000000000E+00 0.  1.
         21   -1    0    0  501  502 -0.00000000000E+00 -0.00000000000E+00 -0.22431516823E+03  0.22431516823E+03  0.00000000000E+00 0.  1.
         25    1    1    2    0    0  0.14246246918E+03  0.93298499590E+02  0.17752168748E+02  0.21199128436E+03  0.12500000000E+03 0.  0.
         25    1    1    2    0    0 -0.86030414453E+02  0.17276005017E+02  0.79372553671E+02  0.17211825829E+03  0.12500000000E+03 0.  0.
         25    1    1    2    0    0 -0.56432054727E+02 -0.11057450461E+03  0.15178351584E+02  0.17682386781E+03  0.12500000000E+03 0.  0.
</event>
<event>
 5    0  0.5568866E-005  0.3150788E+03  0.7546771E-02  0.1077937E+00
         21   -1    0    0  502  501  0.00000000000E+00  0.00000000000E+00  0.14519183136E+04  0.14519183136E+04  0.00000000000E+00 0.  1.
         21   -1    0    0  501  502 -0.00000000000E+00 -0.00000000000E+00 -0.68374832089E+02  0.68374832089E+02  0.00000000000E+00 0.  1.
         25    1    1    2    0    0 -0.94112247680E+02  0.86228649444E+02  0.24268828727E+03  0.30135543786E+03  0.12500000000E+03 0.  0.
         25    1    1    2    0    0 -0.32693341319E+02 -0.45189952158E+02  0.92959146939E+03  0.93961496705E+03  0.12500000000E+03 0.  0.
         25    1    1    2    0    0  0.12680558900E+03 -0.41038697286E+02  0.21126372483E+03  0.27932274076E+03  0.12500000000E+03 0.  0.
</event>
<event>
 5    0  0.5568866E-005  0.3270617E+03  0.7546771E-02  0.1072444E+00
         21   -1    0    0  502  501  0.00000000000E+00  0.00000000000E+00  0.95839198172E+02  0.95839198172E+02  0.00000000000E+00 0.  1.
         21   -1    0    0  501  502 -0.00000000000E+00 -0.00000000000E+00 -0.11161339270E+04  0.11161339270E+04  0.00000000000E+00 0.  1.
         25    1    1    2    0    0  0.20713160638E+03 -0.13887362659E+02 -0.63491924752E+03  0.67959091524E+03  0.12500000000E+03 0.  0.
         25    1    1    2    0    0 -0.10992736239E+03 -0.51054369898E+02 -0.10331389109E+03  0.20245822725E+03  0.12500000000E+03 0.  0.
         25    1    1    2    0    0 -0.97204243991E+02  0.64941732557E+02 -0.28206159023E+03  0.32992398270E+03  0.12500000000E+03 0.  0.
</event>
<event>
 5    0  0.5568866E-005  0.5064815E+03  0.7546771E-02  0.1012101E+00
         21   -1    0    0  502  501  0.00000000000E+00  0.00000000000E+00  0.25242217960E+03  0.25242217960E+03  0.00000000000E+00 0.  1.
         21   -1    0    0  501  502 -0.00000000000E+00 -0.00000000000E+00 -0.10162479025E+04  0.10162479025E+04  0.00000000000E+00 0.  1.
         25    1    1    2    0    0  0.21018094411E+03  0.13822220063E+02 -0.74735272183E+02  0.25608093240E+03  0.12500000000E+03 0.  0.
         25    1    1    2    0    0  0.16355310307E+03  0.65041376189E+02 -0.54405710664E+03  0.58532310174E+03  0.12500000000E+03 0.  0.
         25    1    1    2    0    0 -0.37373404718E+03 -0.78863596252E+02 -0.14503334407E+03  0.42726604794E+03  0.12500000000E+03 0.  0.
</event>
<event>
 5    0  0.5568866E-005  0.4311256E+03  0.7546771E-02  0.1033505E+00
         21   -1    0    0  502  501  0.00000000000E+00  0.00000000000E+00  0.26900641117E+03  0.26900641117E+03  0.00000000000E+00 0.  1.
         21   -1    0    0  501  502 -0.00000000000E+00 -0.00000000000E+00 -0.69094734400E+03  0.69094734400E+03  0.00000000000E+00 0.  1.
         25    1    1    2    0    0 -0.25698467078E+03 -0.12557571722E+03  0.62666163769E+01  0.31220930840E+03  0.12500000000E+03 0.  0.
         25    1    1    2    0    0  0.20458488492E+03  0.49825284399E+02 -0.42727684840E+03  0.49247135885E+03  0.12500000000E+03 0.  0.
         25    1    1    2    0    0  0.52399785854E+02  0.75750432818E+02 -0.93070080183E+00  0.15527308792E+03  0.12500000000E+03 0.  0.
</event>
<event>
 5    0  0.5568866E-005  0.2693375E+03  0.7546771E-02  0.1101659E+00
         21   -1    0    0  502  501  0.00000000000E+00  0.00000000000E+00  0.43085047292E+02  0.43085047292E+02  0.00000000000E+00 0. -1.
         21   -1    0    0  501  502 -0.00000000000E+00 -0.00000000000E+00 -0.16837088411E+04  0.16837088411E+04  0.00000000000E+00 0. -1.
         25    1    1    2    0    0  0.12289656785E+03 -0.77394864617E+01 -0.94993134494E+03  0.96600104873E+03  0.12500000000E+03 0.  0.
         25    1    1    2    0    0 -0.72747484852E+02 -0.61304625531E+02 -0.44834365557E+03  0.47506577140E+03  0.12500000000E+03 0.  0.
         25    1    1    2    0    0 -0.50149082998E+02  0.69044111993E+02 -0.24234879328E+03  0.28572706825E+03  0.12500000000E+03 0.  0.
</event>
<event>
 5    0  0.5568866E-005  0.2243797E+03  0.7546771E-02  0.1130659E+00
         21   -1    0    0  502  501  0.00000000000E+00  0.00000000000E+00  0.85908925603E+02  0.85908925603E+02  0.00000000000E+00 0. -1.
         21   -1    0    0  501  502 -0.00000000000E+00 -0.00000000000E+00 -0.58604214938E+03  0.58604214938E+03  0.00000000000E+00 0. -1.
         25    1    1    2    0    0 -0.30336605117E+02 -0.30797753457E+02 -0.23235601737E+03  0.26736329224E+03  0.12500000000E+03 0.  0.
         25    1    1    2    0    0 -0.28633048591E+02 -0.47553571926E+02 -0.79356620000E+02  0.15812547806E+03  0.12500000000E+03 0.  0.
         25    1    1    2    0    0  0.58969653708E+02  0.78351325383E+02 -0.18842058640E+03  0.24646230468E+03  0.12500000000E+03 0.  0.
</event>
<event>
 5    0  0.5568866E-005  0.2174873E+03  0.7546771E-02  0.1135770E+00
         21   -1    0    0  502  501  0.00000000000E+00  0.00000000000E+00  0.39401737599E+03  0.39401737599E+03  0.00000000000E+00 0.  1.
         21   -1    0    0  501  502 -0.00000000000E+00 -0.00000000000E+00 -0.12004733019E+03  0.12004733019E+03  0.00000000000E+00 0.  1.
         25    1    1    2    0    0  0.90245219364E+02  0.36881698972E+02  0.11115670774E+03  0.19361113866E+03  0.12500000000E+03 0.  0.
         25    1    1    2    0    0 -0.59559246608E+02  0.85070380920E+01  0.69828862916E+02  0.15530854339E+03  0.12500000000E+03 0.  0.
         25    1    1    2    0    0 -0.30685972756E+02 -0.45388737064E+02  0.92984475153E+02  0.16514502413E+03  0.12500000000E+03 0.  0.
</event>
<event>
 5    0  0.5568866E-005  0.4285639E+03  0.7546771E-02  0.1034315E+00
         21   -1    0    0  502  501  0.00000000000E+00  0.00000000000E+00  0.32202760691E+03  0.32202760691E+03  0.00000000000E+00 0.  1.
         21   -1    0    0  501  502 -0.00000000000E+00 -0.00000000000E+00 -0.57034568049E+03  0.57034568049E+03  0.00000000000E+00 0.  1.
         25    1    1    2    0    0 -0.30866799510E+03  0.12794330676E+03 -0.12122284790E+02  0.35695569856E+03  0.12500000000E+03 0.  0.
         25    1    1    2    0    0  0.96295331098E+02 -0.13885719307E+03 -0.19227767990E+03  0.28486806955E+03  0.12500000000E+03 0.  0.
         25    1    1    2    0    0  0.21237266401E+03  0.10913886317E+02 -0.43918108890E+02  0.25054951930E+03  0.12500000000E+03 0.  0.
</event>
<event>
 5    0  0.5568866E-005  0.2722728E+03  0.7546771E-02  0.1099986E+00
         21   -1    0    0  502  501  0.00000000000E+00  0.00000000000E+00  0.39062587054E+03  0.39062587054E+03  0.00000000000E+00 0.  1.
         21   -1    0    0  501  502 -0.00000000000E+00 -0.00000000000E+00 -0.18977878610E+03  0.18977878610E+03  0.00000000000E+00 0.  1.
         25    1    1    2    0    0 -0.37165845280E+02 -0.54754597870E+02  0.21028428930E+03  0.25342424582E+03  0.12500000000E+03 0.  0.
         25    1    1    2    0    0  0.41464383349E+02  0.12277717378E+03  0.21356633406E+02  0.18131363787E+03  0.12500000000E+03 0.  0.
         25    1    1    2    0    0 -0.42985380688E+01 -0.68022575912E+02 -0.30793838277E+02  0.14566677294E+03  0.12500000000E+03 0.  0.
</event>
<event>
 5    0  0.5568866E-005  0.2456006E+03  0.7546771E-02  0.1116117E+00
         21   -1    0    0  502  501  0.00000000000E+00  0.00000000000E+00  0.98876797263E+03  0.98876797263E+03  0.00000000000E+00 0.  1.
         21   -1    0    0  501  502 -0.00000000000E+00 -0.00000000000E+00 -0.61004881979E+02  0.61004881979E+02  0.00000000000E+00 0.  1.
         25    1    1    2    0    0  0.24113287582E+02  0.22888977790E+02  0.23222955057E+03  0.26582121830E+03  0.12500000000E+03 0.  0.
         25    1    1    2    0    0  0.17971740399E+02  0.10449019976E+03  0.43918974744E+03  0.46877907329E+03  0.12500000000E+03 0.  0.
         25    1    1    2    0    0 -0.42085027982E+02 -0.12737917755E+03  0.25634379265E+03  0.31517256302E+03  0.12500000000E+03 0.  0.
</event>
<event>
 5    0  0.5568866E-005  0.4584265E+03  0.7546771E-02  0.1025239E+00
         21   -1    0    0  502  501  0.00000000000E+00  0.00000000000E+00  0.20109562423E+04  0.20109562423E+04  0.00000000000E+00 0.  1.
         21   -1    0    0  501  502 -0.00000000000E+00 -0.00000000000E+00 -0.10450492484E+03  0.10450492484E+03  0.00000000000E+00 0.  1.
         25    1    1    2    0    0  0.19188586605E+03 -0.14201275647E+03  0.11143147500E+04  0.11464336748E+04  0.12500000000E+03 0.  0.
         25    1    1    2    0    0 -0.32943857669E+03  0.10754920454E+03  0.54640561444E+03  0.65899977443E+03  0.12500000000E+03 0.  0.
         25    1    1    2    0    0  0.13755271064E+03  0.34463551931E+02  0.24573095299E+03  0.31002771791E+03  0.12500000000E+03 0.  0.
</event>
<event>
 5    0  0.5568866E-005  0.3666665E+03  0.7546771E-02  0.1055975E+00
         21   -1    0    0  502  501  0.00000000000E+00  0.00000000000E+00  0.20105573322E+03  0.20105573322E+03  0.00000000000E+00 0. -1.
         21   -1    0    0  501  502 -0.00000000000E+00 -0.00000000000E+00 -0.66869178779E+03  0.66869178779E+03  0.00000000000E+00 0. -1.
         25    1    1    2    0    0 -0.21203512448E+03  0.39632010942E+02 -0.32977927925E+02  0.25147988793E+03  0.12500000000E+03 0.  0.
         25    1    1    2    0    0  0.15369755898E+03 -0.13204313883E+03 -0.37021884437E+03  0.44016510866E+03  0.12500000000E+03 0.  0.
         25    1    1    2    0    0  0.58337565498E+02  0.92411127892E+02 -0.64439282270E+02  0.17810252442E+03  0.12500000000E+03 0.  0.
</event>
<event>
 5    0  0.5568866E-005  0.2884455E+03  0.7546771E-02  0.1091164E+00
         21   -1    0    0  502  501  0.00000000000E+00  0.00000000000E+00  0.55390947108E+03  0.55390947108E+03  0.00000000000E+00 0.  1.
         21   -1    0    0  501  502 -0.00000000000E+00 -0.00000000000E+00 -0.15020648020E+03  0.15020648020E+03  0.00000000000E+00 0.  1.
         25    1    1    2    0    0  0.47361541061E+02 -0.51479860191E+02  0.26092022670E+03  0.29765358435E+03  0.12500000000E+03 0.  0.
         25    1    1    2    0    0  0.10699432580E+03  0.37240436202E+02  0.13921766252E+02  0.16927330391E+03  0.12500000000E+03 0.  0.
         25    1    1    2    0    0 -0.15435586686E+03  0.14239423989E+02  0.12886099792E+03  0.23718906302E+03  0.12500000000E+03 0.  0.
</event>
<event>
 5    0  0.6234368E-005  0.3665119E+03  0.7546771E-02  0.1056035E+00
         21   -1    0    0  502  501  0.00000000000E+00  0.00000000000E+00  0.20859825441E+03  0.20859825441E+03  0.00000000000E+00 0. -1.
         21   -1    0    0  501  502 -0.00000000000E+00 -0.00000000000E+00 -0.64396970210E+03  0.64396970210E+03  0.00000000000E+00 0. -1.
         25    1    1    2    0    0  0.60440129192E+02 -0.11153417106E+03 -0.25321506042E+03  0.30957349265E+03  0.12500000000E+03 0.  0.
         25    1    1    2    0    0 -0.19145713272E+03 -0.75001447237E+02 -0.14346616692E+03  0.28015815499E+03  0.12500000000E+03 0.  0.
         25    1    1    2    0    0  0.13101700353E+03  0.18653561830E+03 -0.38690220349E+02  0.26283630887E+03  0.12500000000E+03 0.  0.
</event>
<event>
 5    0  0.5568866E-005  0.3455722E+03  0.7546771E-02  0.1064447E+00
         21   -1    0    0  502  501  0.00000000000E+00  0.00000000000E+00  0.24048847258E+04  0.24048847258E+04  0.00000000000E+00 0. -1.
         21   -1    0    0  501  502 -0.00000000000E+00 -0.00000000000E+00 -0.49657332174E+02  0.49657332174E+02  0.00000000000E+00 0. -1.
         25    1    1    2    0    0 -0.10443804706E+03  0.35954066987E+02  0.84238825854E+03  0.85874500216E+03  0.12500000000E+03 0.  0.
         25    1    1    2    0    0  0.84873245455E+02  0.14326646083E+03  0.31209098128E+03  0.37517266317E+03  0.12500000000E+03 0.  0.
         25    1    1    2    0    0  0.19564801604E+02 -0.17922052782E+03  0.12007481538E+04  0.12206243927E+04  0.12500000000E+03 0.  0.
</event>
<event>
 5    0  0.5568866E-005  0.2758069E+03  0.7546771E-02  0.1098001E+00
         21   -1    0    0  502  501  0.00000000000E+00  0.00000000000E+00  0.19394968733E+03  0.19394968733E+03  0.00000000000E+00 0. -1.
         21   -1    0    0  501  502 -0.00000000000E+00 -0.00000000000E+00 -0.39221232711E+03  0.39221232711E+03  0.00000000000E+00 0. -1.
         25    1    1    2    0    0 -0.43331592211E+02 -0.72728352042E+02 -0.94943333539E+02  0.17834314301E+03  0.12500000000E+03 0.  0.
         25    1    1    2    0    0  0.16114364298E+03 -0.63471372132E+01 -0.36602050553E+02  0.20729753961E+03  0.12500000000E+03 0.  0.
         25    1    1    2    0    0 -0.11781205077E+03  0.79075489255E+02 -0.66717255692E+02  0.20052133182E+03  0.12500000000E+03 0.  0.
</event>
<event>
 5    0  0.5889611E-005  0.3437440E+03  0.7546771E-02  0.1065212E+00
         21   -1    0    0  502  501  0.00000000000E+00  0.00000000000E+00  0.72612053027E+03  0.72612053027E+03  0.00000000000E+00 0.  1.
         21   -1    0    0  501  502 -0.00000000000E+00 -0.00000000000E+00 -0.16272768628E+03  0.16272768628E+03  0.00000000000E+00 0.  1.
         25    1    1    2    0    0 -0.11049111860E+03 -0.94962258088E+02  0.58206307693E+02  0.20059683947E+03  0.12500000000E+03 0.  0.
         25    1    1    2    0    0  0.89847736632E+02 -0.11788644751E+03  0.33716374578E+03  0.38893986907E+03  0.12500000000E+03 0.  0.
         25    1    1    2    0    0  0.20643381964E+02  0.21284870560E+03  0.16802279052E+03  0.29931150801E+03  0.12500000000E+03 0.  0.
</event>
<event>
 5    0  0.5568866E-005  0.2927437E+03  0.7546771E-02  0.1088925E+00
         21   -1    0    0  502  501  0.00000000000E+00  0.00000000000E+00  0.28521479131E+03  0.28521479131E+03  0.00000000000E+00 0.  1.
         21   -1    0    0  501  502 -0.00000000000E+00 -0.00000000000E+00 -0.30047140107E+03  0.30047140107E+03  0.00000000000E+00 0.  1.
         25    1    1    2    0    0  0.14589369623E+03 -0.90469148521E+01 -0.63276515502E+02  0.20247403459E+03  0.12500000000E+03 0.  0.
         25    1    1    2    0    0 -0.94934488911E+02 -0.10279393656E+03 -0.32299131220E+02  0.19038745877E+03  0.12500000000E+03 0.  0.
         25    1    1    2    0    0 -0.50959207323E+02  0.11184085141E+03  0.80319036965E+02  0.19282469903E+03  0.12500000000E+03 0.  0.
</event>
<event>
 5    0  0.5995736E-005  0.2756331E+03  0.7546771E-02  0.1098098E+00
         21   -1    0    0  502  501  0.00000000000E+00  0.00000000000E+00  0.63705908561E+03  0.63705908561E+03  0.00000000000E+00 0. -1.
         21   -1    0    0  501  502 -0.00000000000E+00 -0.00000000000E+00 -0.11925674539E+03  0.11925674539E+03  0.00000000000E+00 0. -1.
         25    1    1    2    0    0 -0.86533538672E+02  0.47409851606E+02  0.11084750998E+03  0.19403071358E+03  0.12500000000E+03 0.  0.
         25    1    1    2    0    0  0.17551288518E+02  0.11333994704E+03  0.14318402279E+03  0.22199246768E+03  0.12500000000E+03 0.  0.
         25    1    1    2    0    0  0.68982250154E+02 -0.16074979865E+03  0.26377080746E+03  0.34029264974E+03  0.12500000000E+03 0.  0.
</event>
<event>
 5    0  0.5568866E-005  0.3002750E+03  0.7546771E-02  0.1085103E+00
         21   -1    0    0  502  501  0.00000000000E+00  0.00000000000E+00  0.57541848682E+03  0.57541848682E+03  0.00000000000E+00 0.  1.
         21   -1    0    0  501  502 -0.00000000000E+00 -0.00000000000E+00 -0.15669473304E+03  0.15669473304E+03  0.00000000000E+00 0.  1.
         25    1    1    2    0    0  0.42997334969E+02 -0.26343817312E+02 -0.65399179218E+02  0.14981595432E+03  0.12500000000E+03 0.  0.
         25    1    1    2    0    0 -0.50492315778E+02  0.90160917751E+02  0.15464863163E+03  0.22409744377E+03  0.12500000000E+03 0.  0.
         25    1    1    2    0    0  0.74949808092E+01 -0.63817100439E+02  0.32947430137E+03  0.35819982176E+03  0.12500000000E+03 0.  0.
</event>
<event>
 5    0  0.5568866E-005  0.3289380E+03  0.7546771E-02  0.1071608E+00
         21   -1    0    0  502  501  0.00000000000E+00  0.00000000000E+00  0.49431983387E+03  0.49431983387E+03  0.00000000000E+00 0. -1.
         21   -1    0    0  501  502 -0.00000000000E+00 -0.00000000000E+00 -0.21888710420E+03  0.21888710420E+03  0.00000000000E+00 0. -1.
         25    1    1    2    0    0 -0.15559032082E+03  0.17737400072E+03  0.35150052400E+02  0.26931470485E+03  0.12500000000E+03 0.  0.
         25    1    1    2    0    0  0.84266000261E+02 -0.10167896483E+03  0.40489612290E+02  0.18628950424E+03  0.12500000000E+03 0.  0.
         25    1    1    2    0    0  0.71324320562E+02 -0.75695035897E+02  0.19979306497E+03  0.25760272897E+03  0.12500000000E+03 0.  0.
</event>
<event>
 5    0  0.5568866E-005  0.3337606E+03  0.7546771E-02  0.1069485E+00
         21   -1    0    0  502  501  0.00000000000E+00  0.00000000000E+00  0.39433283865E+03  0.39433283865E+03  0.00000000000E+00 0. -1.
         21   -1    0    0  501  502 -0.00000000000E+00 -0.00000000000E+00 -0.28249271457E+03  0.28249271457E+03  0.00000000000E+00 0. -1.
         25    1    1    2    0    0 -0.94406914443E+02  0.18598126296E+03  0.46076691612E+02  0.24748688283E+03  0.12500000000E+03 0.  0.
         25    1    1    2    0    0 -0.35626920545E+01  0.49592617065E+02 -0.11195587804E+02  0.13499059830E+03  0.12500000000E+03 0.  0.
         25    1    1    2    0    0  0.97969606498E+02 -0.23557388002E+03  0.76959020269E+02  0.29434807209E+03  0.12500000000E+03 0.  0.
</event>
<event>
 5    0  0.5568866E-005  0.2989017E+03  0.7546771E-02  0.1085791E+00
         21   -1    0    0  502  501  0.00000000000E+00  0.00000000000E+00  0.11079383558E+04  0.11079383558E+04  0.00000000000E+00 0.  1.
         21   -1    0    0  501  502 -0.00000000000E+00 -0.00000000000E+00 -0.80638253354E+02  0.80638253354E+02  0.00000000000E+00 0.  1.
         25    1    1    2    0    0 -0.56391059865E+02  0.19267700329E+02  0.19846074592E+03  0.24199765202E+03  0.12500000000E+03 0.  0.
         25    1    1    2    0    0  0.16889936012E+03 -0.23380039542E+02  0.70947842627E+03  0.74030956866E+03  0.12500000000E+03 0.  0.
         25    1    1    2    0    0 -0.11250830026E+03  0.41123392123E+01  0.11936093029E+03  0.20626938852E+03  0.12500000000E+03 0.  0.
</event>
<event>
 5    0  0.5568866E-005  0.4166846E+03  0.7546771E-02  0.1038151E+00
         21   -1    0    0  502  501  0.00000000000E+00  0.00000000000E+00  0.54402056452E+03  0.54402056452E+03  0.00000000000E+00 0. -1.
         21   -1    0    0  501  502 -0.00000000000E+00 -0.00000000000E+00 -0.31915340778E+03  0.31915340778E+03  0.00000000000E+00 0. -1.
         25    1    1    2    0    0  0.26845905715E+03  0.42911678764E+02  0.31644078651E+03  0.43551285734E+03  0.12500000000E+03 0.  0.
         25    1    1    2    0    0 -0.63812373056E+02 -0.85039870415E+02  0.87358900736E+01  0.16433232881E+03  0.12500000000E+03 0.  0.
         25    1    1    2    0    0 -0.20464668410E+03  0.42128191651E+02 -0.10030951985E+03  0.26332878615E+03  0.12500000000E+03 0.  0.
</event>
<event>
 5    0  0.5568866E-005  0.4028352E+03  0.7546771E-02  0.1042802E+00
         21   -1    0    0  502  501  0.00000000000E+00  0.00000000000E+00  0.47482647702E+03  0.47482647702E+03  0.00000000000E+00 0. -1.
         21   -1    0    0  501  502 -0.00000000000E+00 -0.00000000000E+00 -0.34175889857E+03  0.34175889857E+03  0.00000000000E+00 0. -1.
         25    1    1    2    0    0 -0.13601421500E+03  0.19115584520E+03 -0.14362430839E+03  0.30214792039E+03  0.12500000000E+03 0.  0.
         25    1    1    2    0    0  0.95288654944E+02 -0.75275260294E+02 -0.14182528017E+02  0.17484975457E+03  0.12500000000E+03 0.  0.
         25    1    1    2    0    0  0.40725560053E+02 -0.11588058491E+03  0.29087441485E+03  0.33958770063E+03  0.12500000000E+03 0.  0.
</event>
<event>
 5    0  0.5568866E-005  0.3932359E+03  0.7546771E-02  0.1046147E+00
         21   -1    0    0  502  501  0.00000000000E+00  0.00000000000E+00  0.18858052693E+04  0.18858052693E+04  0.00000000000E+00 0. -1.
         21   -1    0    0  501  502 -0.00000000000E+00 -0.00000000000E+00 -0.81999156857E+02  0.81999156857E+02  0.00000000000E+00 0.  1.
         25    1    1    2    0    0  0.11290982175E+03 -0.23741199191E+03  0.93646695089E+03  0.98066734006E+03  0.12500000000E+03 0.  0.
         25    1    1    2    0    0 -0.41677896998E+02  0.21232398543E+03  0.25270939596E+03  0.35539493622E+03  0.12500000000E+03 0.  0.
         25    1    1    2    0    0 -0.71231924756E+02  0.25088006483E+02  0.61462976555E+03  0.63174214983E+03  0.12500000000E+03 0.  0.
</event>
<event>
 5    0  0.8764766E-005  0.9910960E+03  0.7546771E-02  0.9318365E-01
         21   -1    0    0  502  501  0.00000000000E+00  0.00000000000E+00  0.12467439375E+04  0.12467439375E+04  0.00000000000E+00 0. -1.
         21   -1    0    0  501  502 -0.00000000000E+00 -0.00000000000E+00 -0.78786936644E+03  0.78786936644E+03  0.00000000000E+00 0. -1.
         25    1    1    2    0    0  0.21099722287E+03 -0.42385073004E+03  0.38621210336E+02  0.49120857821E+03  0.12500000000E+03 0.  0.
         25    1    1    2    0    0 -0.20223130382E+03  0.63643835806E+03 -0.32878175153E+03  0.75476733103E+03  0.12500000000E+03 0.  0.
         25    1    1    2    0    0 -0.87659190531E+01 -0.21258762802E+03  0.74903511224E+03  0.78863739468E+03  0.12500000000E+03 0.  0.
</event>
<event>
 5    0  0.5568866E-005  0.3769408E+03  0.7546771E-02  0.1052070E+00
         21   -1    0    0  502  501  0.00000000000E+00  0.00000000000E+00  0.68007152691E+02  0.68007152691E+02  0.00000000000E+00 0.  1.
         21   -1    0    0  501  502 -0.00000000000E+00 -0.00000000000E+00 -0.20892560722E+04  0.20892560722E+04  0.00000000000E+00 0.  1.
         25    1    1    2    0    0 -0.22895748244E+03  0.80724353572E+02 -0.37555754260E+03  0.46433438148E+03  0.12500000000E+03 0.  0.
         25    1    1    2    0    0  0.15087744308E+01 -0.23450754298E+02 -0.65316217786E+03  0.66543072131E+03  0.12500000000E+03 0.  0.
         25    1    1    2    0    0  0.22744870801E+03 -0.57273599274E+02 -0.99252919901E+03  0.10274981221E+04  0.12500000000E+03 0.  0.
</event>
<event>
 5    0  0.5568866E-005  0.2982813E+03  0.7546771E-02  0.1086103E+00
         21   -1    0    0  502  501  0.00000000000E+00  0.00000000000E+00  0.63782254864E+03  0.63782254864E+03  0.00000000000E+00 0.  1.
         21   -1    0    0  501  502 -0.00000000000E+00 -0.00000000000E+00 -0.13949288261E+03  0.13949288261E+03  0.00000000000E+00 0.  1.
         25    1    1    2    0    0  0.19624271230E+02 -0.15793708753E+03  0.17754345576E+03  0.26921351066E+03  0.12500000000E+03 0.  0.
         25    1    1    2    0    0 -0.69050465151E+02  0.44345818644E+02  0.29433405713E+03  0.33013944865E+03  0.12500000000E+03 0.  0.
         25    1    1    2    0    0  0.49426193922E+02  0.11359126888E+03  0.26452153134E+02  0.17796247194E+03  0.12500000000E+03 0.  0.
</event>
<event>
 5    0  0.5568866E-005  0.3463016E+03  0.7546771E-02  0.1064143E+00
         21   -1    0    0  502  501  0.00000000000E+00  0.00000000000E+00  0.33516301254E+03  0.33516301254E+03  0.00000000000E+00 0. -1.
         21   -1    0    0  501  502 -0.00000000000E+00 -0.00000000000E+00 -0.35781043162E+03  0.35781043162E+03  0.00000000000E+00 0. -1.
         25    1    1    2    0    0  0.88627172758E+02 -0.81615727804E+02 -0.41062752851E+02  0.17840138017E+03  0.12500000000E+03 0.  0.
         25    1    1    2    0    0 -0.14762843499E+03  0.22558412964E+03 -0.54434359111E+02  0.30211000284E+03  0.12500000000E+03 0.  0.
         25    1    1    2    0    0  0.59001262231E+02 -0.14396840184E+03  0.72849692889E+02  0.21246206115E+03  0.12500000000E+03 0.  0.
</event>
<event>
 5    0  0.5568866E-005  0.3988930E+03  0.7546771E-02  0.1044164E+00
         21   -1    0    0  502  501  0.00000000000E+00  0.00000000000E+00  0.39159023574E+03  0.39159023574E+03  0.00000000000E+00 0. -1.
         21   -1    0    0  501  502 -0.00000000000E+00 -0.00000000000E+00 -0.40633186385E+03  0.40633186385E+03  0.00000000000E+00 0. -1.
         25    1    1    2    0    0  0.38029697203E+02  0.52030233499E+02 -0.48367117680E+02  0.14872047989E+03  0.12500000000E+03 0.  0.
         25    1    1    2    0    0  0.85662062022E+02 -0.20760309133E+03 -0.19412442293E+03  0.32209676183E+03  0.12500000000E+03 0.  0.
         25    1    1    2    0    0 -0.12369175922E+03  0.15557285783E+03  0.22774991250E+03  0.32710485787E+03  0.12500000000E+03 0.  0.
</event>
<event>
 5    0  0.5568866E-005  0.2429603E+03  0.7546771E-02  0.1117836E+00
         21   -1    0    0  502  501  0.00000000000E+00  0.00000000000E+00  0.59361911474E+02  0.59361911474E+02  0.00000000000E+00 0.  1.
         21   -1    0    0  501  502 -0.00000000000E+00 -0.00000000000E+00 -0.99440353673E+03  0.99440353673E+03  0.00000000000E+00 0.  1.
         25    1    1    2    0    0 -0.55130891817E+02  0.89145772084E+02 -0.20400069926E+03  0.26120426721E+03  0.12500000000E+03 0.  0.
         25    1    1    2    0    0 -0.40907144636E+02 -0.20250388754E+02 -0.28660163600E+03  0.31598887715E+03  0.12500000000E+03 0.  0.
         25    1    1    2    0    0  0.96038036453E+02 -0.68895383331E+02 -0.44443929000E+03  0.47657230384E+03  0.12500000000E+03 0.  0.
</event>
<event>
 5    0  0.5568866E-005  0.2973944E+03  0.7546771E-02  0.1086550E+00
         21   -1    0    0  502  501  0.00000000000E+00  0.00000000000E+00  0.12127870527E+04  0.12127870527E+04  0.00000000000E+00 0.  1.
         21   -1    0    0  501  502 -0.00000000000E+00 -0.00000000000E+00 -0.72925746984E+02  0.72925746984E+02  0.00000000000E+00 0.  1.
         25    1    1    2    0    0  0.12717908768E+03  0.31757091530E+02  0.44195222368E+03  0.47762935548E+03  0.12500000000E+03 0.  0.
         25    1    1    2    0    0 -0.15871588811E+03 -0.61291435213E+01  0.62692310548E+03  0.65870014401E+03  0.12500000000E+03 0.  0.
         25    1    1    2    0    0  0.31536800434E+02 -0.25627948009E+02  0.70985976516E+02  0.14938330015E+03  0.12500000000E+03 0.  0.
</event>
<event>
 5    0  0.5568866E-005  0.3126420E+03  0.7546771E-02  0.1079086E+00
         21   -1    0    0  502  501  0.00000000000E+00  0.00000000000E+00  0.16782891788E+03  0.16782891788E+03  0.00000000000E+00 0.  1.
         21   -1    0    0  501  502 -0.00000000000E+00 -0.00000000000E+00 -0.58240874029E+03  0.58240874029E+03  0.00000000000E+00 0.  1.
         25    1    1    2    0    0  0.48222490767E+02  0.64216789518E+02 -0.43326017890E+02  0.15476223214E+03  0.12500000000E+03 0.  0.
         25    1    1    2    0    0 -0.21567081353E+03 -0.10715021641E+02 -0.21093075958E+03  0.32671929364E+03  0.12500000000E+03 0.  0.
         25    1    1    2    0    0  0.16744832276E+03 -0.53501767877E+02 -0.16032304493E+03  0.26875613239E+03  0.12500000000E+03 0.  0.
</event>
<event>
 5    0  0.5568866E-005  0.4729762E+03  0.7546771E-02  0.1021084E+00
         21   -1    0    0  502  501  0.00000000000E+00  0.00000000000E+00  0.55404354293E+03  0.55404354293E+03  0.00000000000E+00 0. -1.
         21   -1    0    0  501  502 -0.00000000000E+00 -0.00000000000E+00 -0.40377057748E+03  0.40377057748E+03  0.00000000000E+00 0. -1.
         25    1    1    2    0    0 -0.11815141993E+03 -0.20555070467E+03  0.28925412967E+03  0.39433970350E+03  0.12500000000E+03 0.  0.
         25    1    1    2    0    0  0.17467167203E+03  0.14796759406E+03  0.10216909870E+03  0.28012162828E+03  0.12500000000E+03 0.  0.
         25    1    1    2    0    0 -0.56520252102E+02  0.57583110618E+02 -0.24115026291E+03  0.28335278864E+03  0.12500000000E+03 0.  0.
</event>
<event>
 5    0  0.5568866E-005  0.2788787E+03  0.7546771E-02  0.1096303E+00
         21   -1    0    0  502  501  0.00000000000E+00  0.00000000000E+00  0.78319911496E+03  0.78319911496E+03  0.00000000000E+00 0.  1.
         21   -1    0    0  501  502 -0.00000000000E+00 -0.00000000000E+00 -0.99302102951E+02  0.99302102951E+02  0.00000000000E+00 0.  1.
         25    1    1    2    0    0  0.41966621992E+02  0.23798128696E+01  0.22085199003E+03  0.25723036829E+03  0.12500000000E+03 0.  0.
         25    1    1    2    0    0  0.99651318713E+02  0.84793300882E+02  0.33566099456E+03  0.38133134210E+03  0.12500000000E+03 0.  0.
         25    1    1    2    0    0 -0.14161794070E+03 -0.87173113752E+02  0.12738402742E+03  0.24393950753E+03  0.12500000000E+03 0.  0.
</event>
<event>
 5    0  0.5568866E-005  0.3268683E+03  0.7546771E-02  0.1072531E+00
         21   -1    0    0  502  501  0.00000000000E+00  0.00000000000E+00  0.13074620578E+04  0.13074620578E+04  0.00000000000E+00 0.  1.
         21   -1    0    0  501  502 -0.00000000000E+00 -0.00000000000E+00 -0.81717793509E+02  0.81717793509E+02  0.00000000000E+00 0.  1.
         25    1    1    2    0    0  0.11862981758E+03  0.47466902322E+02  0.32756642423E+03  0.37316337269E+03  0.12500000000E+03 0.  0.
         25    1    1    2    0    0 -0.72893648252E+02  0.15210891262E+03  0.25961043961E+03  0.33387600334E+03  0.12500000000E+03 0.  0.
         25    1    1    2    0    0 -0.45736169328E+02 -0.19957581494E+03  0.63856740047E+03  0.68214047530E+03  0.12500000000E+03 0.  0.
</event>
<event>
 5    0  0.5568866E-005  0.2941845E+03  0.7546771E-02  0.1088184E+00
         21   -1    0    0  502  501  0.00000000000E+00  0.00000000000E+00  0.34474067718E+02  0.34474067718E+02  0.00000000000E+00 0. -1.
         21   -1    0    0  501  502 -0.00000000000E+00 -0.00000000000E+00 -0.25104241673E+04  0.25104241673E+04  0.00000000000E+00 0. -1.
         25    1    1    2    0    0  0.20900662817E+02 -0.58763651451E+02 -0.98259762854E+03  0.99247826377E+03  0.12500000000E+03 0.  0.
         25    1    1    2    0    0  0.15720336824E+02 -0.13662246370E+03 -0.75982301072E+03  0.78222045115E+03  0.12500000000E+03 0.  0.
         25    1    1    2    0    0 -0.36620999641E+02  0.19538611515E+03 -0.73352946034E+03  0.77019952012E+03  0.12500000000E+03 0.  0.
</event>
<event>
 5    0  0.5568866E-005  0.4195758E+03  0.7546771E-02  0.1037204E+00
         21   -1    0    0  502  501  0.00000000000E+00  0.00000000000E+00  0.12125930039E+03  0.12125930039E+03  0.00000000000E+00 0. -1.
         21   -1    0    0  501  502 -0.00000000000E+00 -0.00000000000E+00 -0.14517968996E+04  0.14517968996E+04  0.00000000000E+00 0. -1.
         25    1    1    2    0    0  0.16395907231E+02 -0.22577149132E+03 -0.56341842531E+03  0.61992492614E+03  0.12500000000E+03 0.  0.
         25    1    1    2    0    0  0.11750987742E+03 -0.76749812018E+02 -0.40747641167E+03  0.44873280580E+03  0.12500000000E+03 0.  0.
         25    1    1    2    0    0 -0.13390578465E+03  0.30252130334E+03 -0.35964276221E+03  0.50439846803E+03  0.12500000000E+03 0.  0.
</event>
<event>
 5    0  0.5568866E-005  0.4960068E+03  0.7546771E-02  0.1014826E+00
         21   -1    0    0  502  501  0.00000000000E+00  0.00000000000E+00  0.27758284702E+03  0.27758284702E+03  0.00000000000E+00 0. -1.
         21   -1    0    0  501  502 -0.00000000000E+00 -0.00000000000E+00 -0.88630388810E+03  0.88630388810E+03  0.00000000000E+00 0. -1.
         25    1    1    2    0    0  0.22651512259E+03  0.42336118236E+02  0.60373417025E+02  0.26901932487E+03  0.12500000000E+03 0.  0.
         25    1    1    2    0    0 -0.10993771428E+03 -0.12061848181E+03 -0.67617681162E+03  0.70673559394E+03  0.12500000000E+03 0.  0.
         25    1    1    2    0    0 -0.11657740831E+03  0.78282363573E+02  0.70823535075E+01  0.18813181631E+03  0.12500000000E+03 0.  0.
</event>
<event>
 5    0  0.5568866E-005  0.2773804E+03  0.7546771E-02  0.1097128E+00
         21   -1    0    0  502  501  0.00000000000E+00  0.00000000000E+00  0.38568821176E+03  0.38568821176E+03  0.00000000000E+00 0.  1.
         21   -1    0    0  501  502 -0.00000000000E+00 -0.00000000000E+00 -0.19948721563E+03  0.19948721563E+03  0.00000000000E+00 0.  1.
         25    1    1    2    0    0  0.62432914572E+02 -0.14984981600E+02  0.17580854770E+03  0.22506902039E+03  0.12500000000E+03 0.  0.
         25    1    1    2    0    0  0.54511839605E+02  0.59806174812E+01  0.97582504414E+02  0.16779348501E+03  0.12500000000E+03 0.  0.
         25    1    1    2    0    0 -0.11694475418E+03  0.90043641193E+01 -0.87190055981E+02  0.19231292199E+03  0.12500000000E+03 0.  0.
</event>
<event>
 5    0  0.5568866E-005  0.2949380E+03  0.7546771E-02  0.1087799E+00
         21   -1    0    0  502  501  0.00000000000E+00  0.00000000000E+00  0.72192786436E+03  0.72192786436E+03  0.00000000000E+00 0. -1.
         21   -1    0    0  501  502 -0.00000000000E+00 -0.00000000000E+00 -0.12049460278E+03  0.12049460278E+03  0.00000000000E+00 0. -1.
         25    1    1    2    0    0 -0.12998820400E+03  0.93108865740E+01  0.25499208771E+03  0.31245734202E+03  0.12500000000E+03 0.  0.
         25    1    1    2    0    0  0.20442026997E+03  0.48066510737E+02  0.20155398207E+03  0.31677601537E+03  0.12500000000E+03 0.  0.
         25    1    1    2    0    0 -0.74432065970E+02 -0.57377397311E+02  0.14488719181E+03  0.21318910975E+03  0.12500000000E+03 0.  0.
</event>
<event>
 5    0  0.6304179E-005  0.3026527E+03  0.7546771E-02  0.1083922E+00
         21   -1    0    0  502  501  0.00000000000E+00  0.00000000000E+00  0.56906697646E+03  0.56906697646E+03  0.00000000000E+00 0.  1.
         21   -1    0    0  501  502 -0.00000000000E+00 -0.00000000000E+00 -0.16096291952E+03  0.16096291952E+03  0.00000000000E+00 0.  1.
         25    1    1    2    0    0  0.87152968236E+01  0.58756114496E+02  0.33007833583E+03  0.35791751169E+03  0.12500000000E+03 0.  0.
         25    1    1    2    0    0  0.49232989549E+01 -0.14830985866E+03  0.96397070913E+02  0.21665052118E+03  0.12500000000E+03 0.  0.
         25    1    1    2    0    0 -0.13638595779E+02  0.89553744162E+02 -0.18371349797E+02  0.15546186311E+03  0.12500000000E+03 0.  0.
</event>
<event>
 5    0  0.5568866E-005  0.2948307E+03  0.7546771E-02  0.1087854E+00
         21   -1    0    0  502  501  0.00000000000E+00  0.00000000000E+00  0.92526984444E+02  0.92526984444E+02  0.00000000000E+00 0.  1.
         21   -1    0    0  501  502 -0.00000000000E+00 -0.00000000000E+00 -0.93945712065E+03  0.93945712065E+03  0.00000000000E+00 0.  1.
         25    1    1    2    0    0  0.10590647784E+03 -0.13796501347E+03 -0.51668603159E+03  0.55932100106E+03  0.12500000000E+03 0.  0.
         25    1    1    2    0    0 -0.74468172104E+02  0.19930003588E+01 -0.18631634275E+03  0.23640698019E+03  0.12500000000E+03 0.  0.
         25    1    1    2    0    0 -0.31438305738E+02  0.13597201311E+03 -0.14392776187E+03  0.23625612384E+03  0.12500000000E+03 0.  0.
</event>
<event>
 5    0  0.5568866E-005  0.3360788E+03  0.7546771E-02  0.1068478E+00
         21   -1    0    0  502  501  0.00000000000E+00  0.00000000000E+00  0.32601400823E+03  0.32601400823E+03  0.00000000000E+00 0.  1.
         21   -1    0    0  501  502 -0.00000000000E+00 -0.00000000000E+00 -0.34645422098E+03  0.34645422098E+03  0.00000000000E+00 0.  1.
         25    1    1    2    0    0 -0.99475253207E+02  0.57804170536E+01 -0.16713164643E+02  0.16072669067E+03  0.12500000000E+03 0.  0.
         25    1    1    2    0    0  0.20396643826E+03  0.12535217329E+03 -0.91183945543E+02  0.28505260428E+03  0.12500000000E+03 0.  0.
         25    1    1    2    0    0 -0.10449118505E+03 -0.13113259035E+03  0.87456897431E+02  0.22668893425E+03  0.12500000000E+03 0.  0.
</event>
<event>
 5    0  0.5568866E-005  0.2408705E+03  0.7546771E-02  0.1119214E+00
         21   -1    0    0  502  501  0.00000000000E+00  0.00000000000E+00  0.39904200949E+02  0.39904200949E+02  0.00000000000E+00 0.  1.
         21   -1    0    0  501  502 -0.00000000000E+00 -0.00000000000E+00 -0.14539472048E+04  0.14539472048E+04  0.00000000000E+00 0.  1.
         25    1    1    2    0    0 -0.12463888730E+03  0.31857449322E+02 -0.73827866071E+03  0.75975662561E+03  0.12500000000E+03 0.  0.
         25    1    1    2    0    0  0.86809819505E+02 -0.24556287850E+02 -0.32415405071E+03  0.35894262025E+03  0.12500000000E+03 0.  0.
         25    1    1    2    0    0  0.37829067792E+02 -0.73011614721E+01 -0.35161029244E+03  0.37515215990E+03  0.12500000000E+03 0.  0.
</event>
<event>
 5    0  0.5568866E-005  0.2722653E+03  0.7546771E-02  0.1099990E+00
         21   -1    0    0  502  501  0.00000000000E+00  0.00000000000E+00  0.61421420656E+03  0.61421420656E+03  0.00000000000E+00 0. -1.
         21   -1    0    0  501  502 -0.00000000000E+00 -0.00000000000E+00 -0.12068820702E+03  0.12068820702E+03  0.00000000000E+00 0. -1.
         25    1    1    2    0    0  0.14881641510E+03 -0.46279266176E+02  0.11953130030E+03  0.23281071202E+03  0.12500000000E+03 0.  0.
         25    1    1    2    0    0 -0.14126335208E+03 -0.23482785299E+02  0.23697520327E+03  0.30379108416E+03  0.12500000000E+03 0.  0.
         25    1    1    2    0    0 -0.75530630206E+01  0.69762051475E+02  0.13701949597E+03  0.19830061740E+03  0.12500000000E+03 0.  0.
</event>
<event>
 5    0  0.5568866E-005  0.2702439E+03  0.7546771E-02  0.1101140E+00
         21   -1    0    0  502  501  0.00000000000E+00  0.00000000000E+00  0.15414067174E+03  0.15414067174E+03  0.00000000000E+00 0. -1.
         21   -1    0    0  501  502 -0.00000000000E+00 -0.00000000000E+00 -0.47379962206E+03  0.47379962206E+03  0.00000000000E+00 0. -1.
         25    1    1    2    0    0  0.36680120965E+02 -0.12633710615E+03 -0.76916596224E+00  0.18147200137E+03  0.12500000000E+03 0.  0.
         25    1    1    2    0    0  0.24199187468E+02  0.51719524646E+02 -0.22263507760E+03  0.26163311656E+03  0.12500000000E+03 0.  0.
         25    1    1    2    0    0 -0.60879308433E+02  0.74617581505E+02 -0.96254706765E+02  0.18483517587E+03  0.12500000000E+03 0.  0.
</event>
<event>
 5    0  0.5568866E-005  0.2863181E+03  0.7546771E-02  0.1092287E+00
         21   -1    0    0  502  501  0.00000000000E+00  0.00000000000E+00  0.21279514294E+03  0.21279514294E+03  0.00000000000E+00 0.  1.
         21   -1    0    0  501  502 -0.00000000000E+00 -0.00000000000E+00 -0.38524401223E+03  0.38524401223E+03  0.00000000000E+00 0.  1.
         25    1    1    2    0    0  0.65247472477E+02 -0.57590433608E+02 -0.14208844634E+03  0.20829790515E+03  0.12500000000E+03 0.  0.
         25    1    1    2    0    0 -0.70708574565E+01 -0.95959951791E+02 -0.80894539385E+02  0.17727728528E+03  0.12500000000E+03 0.  0.
         25    1    1    2    0    0 -0.58176615021E+02  0.15355038540E+03  0.50534116432E+02  0.21246396475E+03  0.12500000000E+03 0.  0.
</event>
<event>
 5    0  0.5568866E-005  0.2552395E+03  0.7546771E-02  0.1110038E+00
         21   -1    0    0  502  501  0.00000000000E+00  0.00000000000E+00  0.39039723563E+03  0.39039723563E+03  0.00000000000E+00 0.  1.
         21   -1    0    0  501  502 -0.00000000000E+00 -0.00000000000E+00 -0.16687415497E+03  0.16687415497E+03  0.00000000000E+00 0.  1.
         25    1    1    2    0    0 -0.52272358770E+02 -0.41974701709E+02 -0.19675940569E+02  0.14320062050E+03  0.12500000000E+03 0.  0.
         25    1    1    2    0    0 -0.15041306280E+02  0.11562164842E+03  0.15839087484E+03  0.23303921496E+03  0.12500000000E+03 0.  0.
         25    1    1    2    0    0  0.67313665049E+02 -0.73646946709E+02  0.84808146386E+02  0.18103155514E+03  0.12500000000E+03 0.  0.
</event>
<event>
 5    0  0.5807559E-005  0.4818696E+03  0.7546771E-02  0.1018623E+00
         21   -1    0    0  502  501  0.00000000000E+00  0.00000000000E+00  0.35804765629E+03  0.35804765629E+03  0.00000000000E+00 0.  1.
         21   -1    0    0  501  502 -0.00000000000E+00 -0.00000000000E+00 -0.64851237705E+03  0.64851237705E+03  0.00000000000E+00 0.  1.
         25    1    1    2    0    0  0.12732052519E+03  0.14659702219E+02 -0.42230306186E+03  0.45868322300E+03  0.12500000000E+03 0.  0.
         25    1    1    2    0    0  0.15894217039E+03 -0.60819503424E+02  0.89323030560E+02  0.22927108259E+03  0.12500000000E+03 0.  0.
         25    1    1    2    0    0 -0.28626269558E+03  0.46159801205E+02  0.42515310543E+02  0.31860572775E+03  0.12500000000E+03 0.  0.
</event>
<event>
 5    0  0.5568866E-005  0.3987747E+03  0.7546771E-02  0.1044205E+00
         21   -1    0    0  502  501  0.00000000000E+00  0.00000000000E+00  0.25559582404E+03  0.25559582404E+03  0.00000000000E+00 0.  1.
         21   -1    0    0  501  502 -0.00000000000E+00 -0.00000000000E+00 -0.62215922924E+03  0.62215922924E+03  0.00000000000E+00 0.  1.
         25    1    1    2    0    0 -0.16406775362E+03  0.36136663337E+02  0.11960935291E+03  0.24115448061E+03  0.12500000000E+03 0.  0.
         25    1    1    2    0    0  0.21740070948E+01  0.38688751908E+02 -0.34777004649E+02  0.13541043491E+03  0.12500000000E+03 0.  0.
         25    1    1    2    0    0  0.16189374653E+03 -0.74825415245E+02 -0.45139575346E+03  0.50119013775E+03  0.12500000000E+03 0.  0.
</event>
<event>
 5    0  0.5568866E-005  0.4020060E+03  0.7546771E-02  0.1043087E+00
         21   -1    0    0  502  501  0.00000000000E+00  0.00000000000E+00  0.32185905999E+03  0.32185905999E+03  0.00000000000E+00 0. -1.
         21   -1    0    0  501  502 -0.00000000000E+00 -0.00000000000E+00 -0.50211053659E+03  0.50211053659E+03  0.00000000000E+00 0. -1.
         25    1    1    2    0    0  0.10774119623E+03  0.84140049305E+02 -0.18981795157E+03  0.26522361886E+03  0.12500000000E+03 0.  0.
         25    1    1    2    0    0 -0.48452189143E+02 -0.20149264751E+03 -0.17599073668E+03  0.29924010599E+03  0.12500000000E+03 0.  0.
         25    1    1    2    0    0 -0.59289007091E+02  0.11735259821E+03  0.18555721164E+03  0.25950587173E+03  0.12500000000E+03 0.  0.
</event>
<event>
 5    0  0.5568866E-005  0.3652379E+03  0.7546771E-02  0.1056529E+00
         21   -1    0    0  502  501  0.00000000000E+00  0.00000000000E+00  0.25906270952E+03  0.25906270952E+03  0.00000000000E+00 0. -1.
         21   -1    0    0  501  502 -0.00000000000E+00 -0.00000000000E+00 -0.51492832945E+03  0.51492832945E+03  0.00000000000E+00 0. -1.
         25    1    1    2    0    0  0.18431309827E+03 -0.17347982018E+03  0.43163773387E+02  0.28557779595E+03  0.12500000000E+03 0.  0.
         25    1    1    2    0    0 -0.39620565218E+02  0.49147324544E+02 -0.18888130776E+03  0.23513059588E+03  0.12500000000E+03 0.  0.
         25    1    1    2    0    0 -0.14469253305E+03  0.12433249564E+03 -0.11014808555E+03  0.25328264714E+03  0.12500000000E+03 0.  0.
</event>
<event>
 5    0  0.5568866E-005  0.2859218E+03  0.7546771E-02  0.1092498E+00
         21   -1    0    0  502  501  0.00000000000E+00  0.00000000000E+00  0.20614680154E+03  0.20614680154E+03  0.00000000000E+00 0.  1.
         21   -1    0    0  501  502 -0.00000000000E+00 -0.00000000000E+00 -0.39656828686E+03  0.39656828686E+03  0.00000000000E+00 0.  1.
         25    1    1    2    0    0 -0.21813501950E+02  0.94137309264E+02 -0.17511491455E+03  0.23585566595E+03  0.12500000000E+03 0.  0.
         25    1    1    2    0    0  0.39571649275E+02 -0.86059553181E+02  0.10781965383E+03  0.19032141202E+03  0.12500000000E+03 0.  0.
         25    1    1    2    0    0 -0.17758147325E+02 -0.80777560836E+01 -0.12312622460E+03  0.17653801042E+03  0.12500000000E+03 0.  0.
</event>
<event>
 5    0  0.5568866E-005  0.2962723E+03  0.7546771E-02  0.1087119E+00
         21   -1    0    0  502  501  0.00000000000E+00  0.00000000000E+00  0.18587450707E+04  0.18587450707E+04  0.00000000000E+00 0.  1.
         21   -1    0    0  501  502 -0.00000000000E+00 -0.00000000000E+00 -0.47223959743E+02  0.47223959743E+02  0.00000000000E+00 0.  1.
         25    1    1    2    0    0  0.14937630186E+03  0.60075810348E+02  0.51970513935E+03  0.55824798648E+03  0.12500000000E+03 0.  0.
         25    1    1    2    0    0  0.45425642605E+02 -0.65998579576E+02  0.41149888646E+03  0.43746501011E+03  0.12500000000E+03 0.  0.
         25    1    1    2    0    0 -0.19480194446E+03  0.59227692280E+01  0.88031708513E+03  0.91025603384E+03  0.12500000000E+03 0.  0.
</event>
<event>
 5    0  0.5568866E-005  0.2642490E+03  0.7546771E-02  0.1104617E+00
         21   -1    0    0  502  501  0.00000000000E+00  0.00000000000E+00  0.18538024605E+03  0.18538024605E+03  0.00000000000E+00 0. -1.
         21   -1    0    0  501  502 -0.00000000000E+00 -0.00000000000E+00 -0.37667196613E+03  0.37667196613E+03  0.00000000000E+00 0. -1.
         25    1    1    2    0    0 -0.30736261945E+02 -0.89344913869E+02  0.29778036632E+02  0.15949596515E+03  0.12500000000E+03 0.  0.
         25    1    1    2    0    0  0.92845297850E+02 -0.22453980900E+01 -0.50074859622E+02  0.16357806305E+03  0.12500000000E+03 0.  0.
         25    1    1    2    0    0 -0.62109035905E+02  0.91590311959E+02 -0.17099489709E+03  0.23897818398E+03  0.12500000000E+03 0.  0.
</event>
<event>
 5    0  0.5568866E-005  0.4330465E+03  0.7546771E-02  0.1032902E+00
         21   -1    0    0  502  501  0.00000000000E+00  0.00000000000E+00  0.13188792334E+03  0.13188792334E+03  0.00000000000E+00 0.  1.
         21   -1    0    0  501  502 -0.00000000000E+00 -0.00000000000E+00 -0.14218837117E+04  0.14218837117E+04  0.00000000000E+00 0.  1.
         25    1    1    2    0    0  0.25735074290E+03 -0.73413706596E+02 -0.82823620210E+03  0.87932882567E+03  0.12500000000E+03 0.  0.
         25    1    1    2    0    0 -0.31729939678E+03  0.33586539983E+02 -0.36556792352E+03  0.50107072313E+03  0.12500000000E+03 0.  0.
         25    1    1    2    0    0  0.59948653881E+02  0.39827166613E+02 -0.96191662689E+02  0.17337208620E+03  0.12500000000E+03 0.  0.
</event>
<event>
 5    0  0.5568866E-005  0.2306570E+03  0.7546771E-02  0.1126178E+00
         21   -1    0    0  502  501  0.00000000000E+00  0.00000000000E+00  0.21028984362E+03  0.21028984362E+03  0.00000000000E+00 0.  1.
         21   -1    0    0  501  502 -0.00000000000E+00 -0.00000000000E+00 -0.25299670385E+03  0.25299670385E+03  0.00000000000E+00 0.  1.
         25    1    1    2    0    0  0.27997090789E+02 -0.49658286886E+02 -0.96557596411E+02  0.16792305373E+03  0.12500000000E+03 0.  0.
         25    1    1    2    0    0 -0.81996061826E+02  0.28747726357E+02  0.20343611001E+02  0.15358596431E+03  0.12500000000E+03 0.  0.
         25    1    1    2    0    0  0.53998971037E+02  0.20910560529E+02  0.33507125179E+02  0.14177752943E+03  0.12500000000E+03 0.  0.
</event>
<event>
 5    0  0.5641206E-005  0.2944305E+03  0.7546771E-02  0.1088058E+00
         21   -1    0    0  502  501  0.00000000000E+00  0.00000000000E+00  0.94107539134E+02  0.94107539134E+02  0.00000000000E+00 0.  1.
         21   -1    0    0  501  502 -0.00000000000E+00 -0.00000000000E+00 -0.92117281089E+03  0.92117281089E+03  0.00000000000E+00 0.  1.
         25    1    1    2    0    0 -0.80542137020E+02 -0.84760985209E+02 -0.15344649428E+03  0.22987450284E+03  0.12500000000E+03 0.  0.
         25    1    1    2    0    0 -0.44693432184E+02  0.15481097291E+03 -0.43304976283E+03  0.47866589319E+03  0.12500000000E+03 0.  0.
         25    1    1    2    0    0  0.12523556920E+03 -0.70049987698E+02 -0.24056901464E+03  0.30673995400E+03  0.12500000000E+03 0.  0.
</event>
<event>
 5    0  0.5568866E-005  0.3497273E+03  0.7546771E-02  0.1062727E+00
         21   -1    0    0  502  501  0.00000000000E+00  0.00000000000E+00  0.55538974447E+03  0.55538974447E+03  0.00000000000E+00 0.  1.
         21   -1    0    0  501  502 -0.00000000000E+00 -0.00000000000E+00 -0.22022228969E+03  0.22022228969E+03  0.00000000000E+00 0.  1.
         25    1    1    2    0    0 -0.83847873187E+02  0.54175947660E+02  0.29456248665E+03  0.33519778890E+03  0.12500000000E+03 0.  0.
         25    1    1    2    0    0  0.59074647710E+01 -0.22026531236E+02 -0.15051724091E+03  0.19697844052E+03  0.12500000000E+03 0.  0.
         25    1    1    2    0    0  0.77940408416E+02 -0.32149416424E+02  0.19112220904E+03  0.24343580474E+03  0.12500000000E+03 0.  0.
</event>
<event>
 5    0  0.5568866E-005  0.5615202E+03  0.7546771E-02  0.9988621E-01
         21   -1    0    0  502  501  0.00000000000E+00  0.00000000000E+00  0.26031568838E+03  0.26031568838E+03  0.00000000000E+00 0.  1.
         21   -1    0    0  501  502 -0.00000000000E+00 -0.00000000000E+00 -0.12112408242E+04  0.12112408242E+04  0.00000000000E+00 0.  1.
         25    1    1    2    0    0  0.10335321287E+03 -0.94131564708E+02 -0.50788962065E+03  0.54140512082E+03  0.12500000000E+03 0.  0.
         25    1    1    2    0    0  0.11000772784E+03 -0.85857888696E+02 -0.56924732709E+03  0.59928356947E+03  0.12500000000E+03 0.  0.
         25    1    1    2    0    0 -0.21336094071E+03  0.17998945340E+03  0.12621181193E+03  0.33086782229E+03  0.12500000000E+03 0.  0.
</event>
<event>
 5    0  0.5568866E-005  0.3107037E+03  0.7546771E-02  0.1080009E+00
         21   -1    0    0  502  501  0.00000000000E+00  0.00000000000E+00  0.69479937714E+03  0.69479937714E+03  0.00000000000E+00 0.  1.
         21   -1    0    0  501  502 -0.00000000000E+00 -0.00000000000E+00 -0.13894192686E+03  0.13894192686E+03  0.00000000000E+00 0.  1.
         25    1    1    2    0    0  0.15514899596E+03 -0.13296774681E+01  0.14845887157E+03  0.24847135758E+03  0.12500000000E+03 0.  0.
         25    1    1    2    0    0 -0.22139008371E+03  0.68702922157E+02  0.24788154138E+03  0.36166824472E+03  0.12500000000E+03 0.  0.
         25    1    1    2    0    0  0.66241087748E+02 -0.67373244689E+02  0.15951703733E+03  0.22360170170E+03  0.12500000000E+03 0.  0.
</event>
<event>
 5    0  0.5568866E-005  0.2739140E+03  0.7546771E-02  0.1099060E+00
         21   -1    0    0  502  501  0.00000000000E+00  0.00000000000E+00  0.19781265956E+03  0.19781265956E+03  0.00000000000E+00 0.  1.
         21   -1    0    0  501  502 -0.00000000000E+00 -0.00000000000E+00 -0.37929257079E+03  0.37929257079E+03  0.00000000000E+00 0.  1.
         25    1    1    2    0    0  0.83505046869E+02  0.10774441972E+03 -0.64985285659E+02  0.19603581353E+03  0.12500000000E+03 0.  0.
         25    1    1    2    0    0 -0.10785060757E+03 -0.15016202846E+03 -0.40480625166E+02  0.22681285095E+03  0.12500000000E+03 0.  0.
         25    1    1    2    0    0  0.24345560696E+02  0.42417608736E+02 -0.76014000402E+02  0.15425656587E+03  0.12500000000E+03 0.  0.
</event>
<event>
 5    0  0.5568866E-005  0.5010493E+03  0.7546771E-02  0.1013505E+00
         21   -1    0    0  502  501  0.00000000000E+00  0.00000000000E+00  0.12086599180E+04  0.12086599180E+04  0.00000000000E+00 0.  1.
         21   -1    0    0  501  502 -0.00000000000E+00 -0.00000000000E+00 -0.20770969840E+03  0.20770969840E+03  0.00000000000E+00 0.  1.
         25    1    1    2    0    0 -0.12060939654E+02  0.28467216360E+03  0.24142471410E+03  0.39382051696E+03  0.12500000000E+03 0.  0.
         25    1    1    2    0    0 -0.39179607144E+02  0.57841299255E+01 -0.58840755394E+02  0.14372102237E+03  0.12500000000E+03 0.  0.
         25    1    1    2    0    0  0.51240546798E+02 -0.29045629353E+03  0.81836626086E+03  0.87882807705E+03  0.12500000000E+03 0.  0.
</event>
<event>
 5    0  0.5568866E-005  0.2378538E+03  0.7546771E-02  0.1121231E+00
         21   -1    0    0  502  501  0.00000000000E+00  0.00000000000E+00  0.11289931436E+04  0.11289931436E+04  0.00000000000E+00 0. -1.
         21   -1    0    0  501  502 -0.00000000000E+00 -0.00000000000E+00 -0.50110527938E+02  0.50110527938E+02  0.00000000000E+00 0. -1.
         25    1    1    2    0    0 -0.51730601980E+02  0.15265836165E+02  0.15130332377E+03  0.20353573819E+03  0.12500000000E+03 0.  0.
         25    1    1    2    0    0  0.85801018411E+01 -0.78711725878E+02  0.35723662700E+03  0.38666802507E+03  0.12500000000E+03 0.  0.
         25    1    1    2    0    0  0.43150500139E+02  0.63445889713E+02  0.57034266490E+03  0.58889990830E+03  0.12500000000E+03 0.  0.
</event>
<event>
 5    0  0.5568866E-005  0.2321860E+03  0.7546771E-02  0.1125111E+00
         21   -1    0    0  502  501  0.00000000000E+00  0.00000000000E+00  0.61902338907E+02  0.61902338907E+02  0.00000000000E+00 0.  1.
         21   -1    0    0  501  502 -0.00000000000E+00 -0.00000000000E+00 -0.87089316913E+03  0.87089316913E+03  0.00000000000E+00 0.  1.
         25    1    1    2    0    0 -0.43084029637E+02  0.98023841248E+01 -0.35819177041E+03  0.38194065604E+03  0.12500000000E+03 0.  0.
         25    1    1    2    0    0  0.11546693618E+03 -0.95448614960E+01 -0.21543397261E+03  0.27470077227E+03  0.12500000000E+03 0.  0.
         25    1    1    2    0    0 -0.72382906542E+02 -0.25752262885E+00 -0.23536508721E+03  0.27615407973E+03  0.12500000000E+03 0.  0.
</event>
<event>
 5    0  0.6558203E-005  0.4520736E+03  0.7546771E-02  0.1027105E+00
         21   -1    0    0  502  501  0.00000000000E+00  0.00000000000E+00  0.76134874032E+03  0.76134874032E+03  0.00000000000E+00 0. -1.
         21   -1    0    0  501  502 -0.00000000000E+00 -0.00000000000E+00 -0.26843228111E+03  0.26843228111E+03  0.00000000000E+00 0. -1.
         25    1    1    2    0    0 -0.10756247117E+03  0.90172977785E+02  0.23352222605E+03  0.29976404252E+03  0.12500000000E+03 0.  0.
         25    1    1    2    0    0  0.24906953009E+03 -0.25515537233E+03  0.29152154798E+03  0.47723129380E+03  0.12500000000E+03 0.  0.
         25    1    1    2    0    0 -0.14150705892E+03  0.16498239454E+03 -0.32127314828E+02  0.25278568510E+03  0.12500000000E+03 0.  0.
</event>
<event>
 5    0  0.5568866E-005  0.2509847E+03  0.7546771E-02  0.1112684E+00
         21   -1    0    0  502  501  0.00000000000E+00  0.00000000000E+00  0.26592545586E+02  0.26592545586E+02  0.00000000000E+00 0.  1.
         21   -1    0    0  501  502 -0.00000000000E+00 -0.00000000000E+00 -0.23688341310E+04  0.23688341310E+04  0.00000000000E+00 0.  1.
         25    1    1    2    0    0  0.64062874720E+02 -0.97174045315E+02 -0.42625769642E+03  0.45920308226E+03  0.12500000000E+03 0.  0.
         25    1    1    2    0    0 -0.15666915324E+02  0.55350619675E+02 -0.85834440083E+03  0.86930389035E+03  0.12500000000E+03 0.  0.
         25    1    1    2    0    0 -0.48395959396E+02  0.41823425640E+02 -0.10576394882E+04  0.10669197040E+04  0.12500000000E+03 0.  0.
</event>
<event>
 5    0  0.5568866E-005  0.2811553E+03  0.7546771E-02  0.1095060E+00
         21   -1    0    0  502  501  0.00000000000E+00  0.00000000000E+00  0.30790057093E+03  0.30790057093E+03  0.00000000000E+00 0.  1.
         21   -1    0    0  501  502 -0.00000000000E+00 -0.00000000000E+00 -0.25673329907E+03  0.25673329907E+03  0.00000000000E+00 0.  1.
         25    1    1    2    0    0  0.79449515399E+02 -0.66605722035E+01  0.11608154090E+03  0.18829899855E+03  0.12500000000E+03 0.  0.
         25    1    1    2    0    0  0.59482908468E+02  0.56661450838E+02 -0.99714400261E+02  0.17976845672E+03  0.12500000000E+03 0.  0.
         25    1    1    2    0    0 -0.13893242387E+03 -0.50000878635E+02  0.34800131217E+02  0.19656641473E+03  0.12500000000E+03 0.  0.
</event>
<event>
 5    0  0.5568866E-005  0.3571807E+03  0.7546771E-02  0.1059706E+00
         21   -1    0    0  502  501  0.00000000000E+00  0.00000000000E+00  0.65934723667E+02  0.65934723667E+02  0.00000000000E+00 0.  1.
         21   -1    0    0  501  502 -0.00000000000E+00 -0.00000000000E+00 -0.19349148397E+04  0.19349148397E+04  0.00000000000E+00 0.  1.
         25    1    1    2    0    0 -0.93399583714E+02 -0.76318420860E+02 -0.38725056015E+03  0.42442429235E+03  0.12500000000E+03 0.  0.
         25    1    1    2    0    0 -0.76492974730E+01 -0.18184146671E+03 -0.80063491194E+03  0.83052157887E+03  0.12500000000E+03 0.  0.
         25    1    1    2    0    0  0.10104888119E+03  0.25815988757E+03 -0.68109464396E+03  0.74590369215E+03  0.12500000000E+03 0.  0.
</event>
<event>
 5    0  0.5568866E-005  0.2586350E+03  0.7546771E-02  0.1107966E+00
         21   -1    0    0  502  501  0.00000000000E+00  0.00000000000E+00  0.30082415922E+03  0.30082415922E+03  0.00000000000E+00 0.  1.
         21   -1    0    0  501  502 -0.00000000000E+00 -0.00000000000E+00 -0.22236260978E+03  0.22236260978E+03  0.00000000000E+00 0.  1.
         25    1    1    2    0    0  0.13359836459E+03 -0.32148635286E+02 -0.45257745912E+02  0.19119445948E+03  0.12500000000E+03 0.  0.
         25    1    1    2    0    0 -0.12743401832E+03  0.15154768255E+01  0.60617518115E+02  0.18852376295E+03  0.12500000000E+03 0.  0.
         25    1    1    2    0    0 -0.61643462683E+01  0.30633158460E+02  0.63101777244E+02  0.14346854657E+03  0.12500000000E+03 0.  0.
</event>
<event>
 5    0  0.5568866E-005  0.3637670E+03  0.7546771E-02  0.1057102E+00
         21   -1    0    0  502  501  0.00000000000E+00  0.00000000000E+00  0.35411877477E+03  0.35411877477E+03  0.00000000000E+00 0. -1.
         21   -1    0    0  501  502 -0.00000000000E+00 -0.00000000000E+00 -0.37367816159E+03  0.37367816159E+03  0.00000000000E+00 0. -1.
         25    1    1    2    0    0 -0.60553183994E+02  0.15813440867E+03  0.43747230319E+02  0.21496976405E+03  0.12500000000E+03 0.  0.
         25    1    1    2    0    0  0.17680234624E+03 -0.20771906869E+03  0.46875775491E+02  0.30369165195E+03  0.12500000000E+03 0.  0.
         25    1    1    2    0    0 -0.11624916224E+03  0.49584660023E+02 -0.11018239262E+03  0.20913552036E+03  0.12500000000E+03 0.  0.
</event>
<event>
 5    0  0.5568866E-005  0.4482039E+03  0.7546771E-02  0.1028259E+00
         21   -1    0    0  502  501  0.00000000000E+00  0.00000000000E+00  0.44123095481E+03  0.44123095481E+03  0.00000000000E+00 0.  1.
         21   -1    0    0  501  502 -0.00000000000E+00 -0.00000000000E+00 -0.45528701137E+03  0.45528701137E+03  0.00000000000E+00 0.  1.
         25    1    1    2    0    0 -0.35567262437E+03  0.10268225957E+03 -0.17309262445E+02  0.39111542123E+03  0.12500000000E+03 0.  0.
         25    1    1    2    0    0  0.19541452755E+03 -0.17345076720E+03 -0.95899830072E+01  0.28980851263E+03  0.12500000000E+03 0.  0.
         25    1    1    2    0    0  0.16025809682E+03  0.70768507633E+02  0.12843188891E+02  0.21559403232E+03  0.12500000000E+03 0.  0.
</event>
<event>
 5    0  0.5568866E-005  0.2562345E+03  0.7546771E-02  0.1109427E+00
         21   -1    0    0  502  501  0.00000000000E+00  0.00000000000E+00  0.59630508738E+02  0.59630508738E+02  0.00000000000E+00 0. -1.
         21   -1    0    0  501  502 -0.00000000000E+00 -0.00000000000E+00 -0.11010495435E+04  0.11010495435E+04  0.00000000000E+00 0. -1.
         25    1    1    2    0    0 -0.33460370332E+02  0.60272109824E+02 -0.47968242898E+03  0.50047233318E+03  0.12500000000E+03 0.  0.
         25    1    1    2    0    0  0.16689225026E+01  0.24837375654E+02 -0.71386446393E+02  0.14608458256E+03  0.12500000000E+03 0.  0.
         25    1    1    2    0    0  0.31791447830E+02 -0.85109485478E+02 -0.49035015936E+03  0.51412313647E+03  0.12500000000E+03 0.  0.
</event>
<event>
 5    0  0.5568866E-005  0.4169209E+03  0.7546771E-02  0.1038073E+00
         21   -1    0    0  502  501  0.00000000000E+00  0.00000000000E+00  0.95374739135E+03  0.95374739135E+03  0.00000000000E+00 0. -1.
         21   -1    0    0  501  502 -0.00000000000E+00 -0.00000000000E+00 -0.18225271989E+03  0.18225271989E+03  0.00000000000E+00 0. -1.
         25    1    1    2    0    0 -0.11861564375E+02 -0.18032482630E+03  0.38139580661E+03  0.44016531098E+03  0.12500000000E+03 0.  0.
         25    1    1    2    0    0 -0.22276954545E+03  0.15427960235E+03  0.27196278355E+03  0.40375391233E+03  0.12500000000E+03 0.  0.
         25    1    1    2    0    0  0.23463110983E+03  0.26045223947E+02  0.11813608130E+03  0.29208088793E+03  0.12500000000E+03 0.  0.
</event>
<event>
 5    0  0.5568866E-005  0.2544344E+03  0.7546771E-02  0.1110534E+00
         21   -1    0    0  502  501  0.00000000000E+00  0.00000000000E+00  0.50059939116E+03  0.50059939116E+03  0.00000000000E+00 0.  1.
         21   -1    0    0  501  502 -0.00000000000E+00 -0.00000000000E+00 -0.12931872262E+03  0.12931872262E+03  0.00000000000E+00 0.  1.
         25    1    1    2    0    0 -0.10853039718E+03 -0.10626129143E+03  0.12607197287E+03  0.23364385614E+03  0.12500000000E+03 0.  0.
         25    1    1    2    0    0  0.11000771175E+03  0.47725183708E+02  0.13978831365E+03  0.22258742650E+03  0.12500000000E+03 0.  0.
         25    1    1    2    0    0 -0.14773145638E+01  0.58536107718E+02  0.10542038202E+03  0.17368683114E+03  0.12500000000E+03 0.  0.
</event>
<event>
 5    0  0.5568866E-005  0.3196504E+03  0.7546771E-02  0.1075810E+00
         21   -1    0    0  502  501  0.00000000000E+00  0.00000000000E+00  0.19715648813E+03  0.19715648813E+03  0.00000000000E+00 0. -1.
         21   -1    0    0  501  502 -0.00000000000E+00 -0.00000000000E+00 -0.51825002495E+03  0.51825002495E+03  0.00000000000E+00 0. -1.
         25    1    1    2    0    0  0.31258543072E+02 -0.82726852535E+02 -0.85986131091E+02  0.17561162657E+03  0.12500000000E+03 0.  0.
         25    1    1    2    0    0 -0.89294574953E+02  0.17905859157E+03 -0.27962477935E+03  0.36585586992E+03  0.12500000000E+03 0.  0.
         25    1    1    2    0    0  0.58036031881E+02 -0.96331739030E+02  0.44517373612E+02  0.17393901660E+03  0.12500000000E+03 0.  0.
</event>
<event>
 5    0  0.5568866E-005  0.2996220E+03  0.7546771E-02  0.1085430E+00
         21   -1    0    0  502  501  0.00000000000E+00  0.00000000000E+00  0.85498272775E+02  0.85498272775E+02  0.00000000000E+00 0.  1.
         21   -1    0    0  501  502 -0.00000000000E+00 -0.00000000000E+00 -0.10500017353E+04  0.10500017353E+04  0.00000000000E+00 0.  1.
         25    1    1    2    0    0  0.11887326539E+03 -0.61663827129E+02 -0.29541055688E+03  0.34759988193E+03  0.12500000000E+03 0.  0.
         25    1    1    2    0    0 -0.78090160471E+02 -0.86123572732E+02 -0.49771540852E+03  0.52617579840E+03  0.12500000000E+03 0.  0.
         25    1    1    2    0    0 -0.40783104924E+02  0.14778739986E+03 -0.17137749708E+03  0.26172432770E+03  0.12500000000E+03 0.  0.
</event>
<event>
 5    0  0.5568866E-005  0.4875499E+03  0.7546771E-02  0.1017081E+00
         21   -1    0    0  502  501  0.00000000000E+00  0.00000000000E+00  0.36475329936E+03  0.36475329936E+03  0.00000000000E+00 0. -1.
         21   -1    0    0  501  502 -0.00000000000E+00 -0.00000000000E+00 -0.65168680696E+03  0.65168680696E+03  0.00000000000E+00 0. -1.
         25    1    1    2    0    0 -0.14515430690E+03  0.12587350892E+03 -0.67118786244E+02  0.23883853233E+03  0.12500000000E+03 0.  0.
         25    1    1    2    0    0 -0.10583783348E+03  0.22301852166E+03 -0.17583430792E+03  0.32784388334E+03  0.12500000000E+03 0.  0.
         25    1    1    2    0    0  0.25099214038E+03 -0.34889203058E+03 -0.43980413436E+02  0.44975769065E+03  0.12500000000E+03 0.  0.
</event>
<event>
 5    0  0.5568866E-005  0.2528472E+03  0.7546771E-02  0.1111519E+00
         21   -1    0    0  502  501  0.00000000000E+00  0.00000000000E+00  0.71422202030E+02  0.71422202030E+02  0.00000000000E+00 0.  1.
         21   -1    0    0  501  502 -0.00000000000E+00 -0.00000000000E+00 -0.89512345585E+03  0.89512345585E+03  0.00000000000E+00 0.  1.
         25    1    1    2    0    0 -0.85601690824E+01  0.11354576561E+03 -0.49000973620E+03  0.51836325000E+03  0.12500000000E+03 0.  0.
         25    1    1    2    0    0  0.19379018979E+02 -0.11886754780E+03 -0.19025299710E+03  0.25753881883E+03  0.12500000000E+03 0.  0.
         25    1    1    2    0    0 -0.10818849896E+02  0.53217821888E+01 -0.14343852052E+03  0.19064358906E+03  0.12500000000E+03 0.  0.
</event>
<event>
 5    0  0.5568866E-005  0.2802405E+03  0.7546771E-02  0.1095558E+00
         21   -1    0    0  502  501  0.00000000000E+00  0.00000000000E+00  0.14375051458E+04  0.14375051458E+04  0.00000000000E+00 0.  1.
         21   -1    0    0  501  502 -0.00000000000E+00 -0.00000000000E+00 -0.54632654755E+02  0.54632654755E+02  0.00000000000E+00 0.  1.
         25    1    1    2    0    0  0.19778822966E+02 -0.16989253465E+03  0.64454016913E+03  0.67846275122E+03  0.12500000000E+03 0.  0.
         25    1    1    2    0    0  0.26261568331E+02  0.16459024305E+03  0.43342743395E+03  0.48089911476E+03  0.12500000000E+03 0.  0.
         25    1    1    2    0    0 -0.46040391298E+02  0.53022916037E+01  0.30490488799E+03  0.33277593459E+03  0.12500000000E+03 0.  0.
</event>
<event>
 5    0  0.5568866E-005  0.2379762E+03  0.7546771E-02  0.1121148E+00
         21   -1    0    0  502  501  0.00000000000E+00  0.00000000000E+00  0.77772564490E+03  0.77772564490E+03  0.00000000000E+00 0. -1.
         21   -1    0    0  501  502 -0.00000000000E+00 -0.00000000000E+00 -0.72818305495E+02  0.72818305495E+02  0.00000000000E+00 0. -1.
         25    1    1    2    0    0 -0.14223190411E+02  0.70474544357E+02  0.86339112449E+02  0.16807261195E+03  0.12500000000E+03 0.  0.
         25    1    1    2    0    0 -0.65212566539E+01 -0.10089973217E+02  0.42635659413E+03  0.44446516140E+03  0.12500000000E+03 0.  0.
         25    1    1    2    0    0  0.20744447065E+02 -0.60384571140E+02  0.19221163283E+03  0.23800617704E+03  0.12500000000E+03 0.  0.
</event>
<event>
 5    0  0.5568866E-005  0.2752407E+03  0.7546771E-02  0.1098317E+00
         21   -1    0    0  502  501  0.00000000000E+00  0.00000000000E+00  0.73399837880E+03  0.73399837880E+03  0.00000000000E+00 0. -1.
         21   -1    0    0  501  502 -0.00000000000E+00 -0.00000000000E+00 -0.10321201633E+03  0.10321201633E+03  0.00000000000E+00 0. -1.
         25    1    1    2    0    0  0.62600288416E+02 -0.26993763195E+02  0.12318970625E+03  0.18827682568E+03  0.12500000000E+03 0.  0.
         25    1    1    2    0    0 -0.99743143679E+02  0.81862364198E+02  0.46908505092E+03  0.50231058757E+03  0.12500000000E+03 0.  0.
         25    1    1    2    0    0  0.37142855263E+02 -0.54868601003E+02  0.38511605298E+02  0.14662298188E+03  0.12500000000E+03 0.  0.
</event>
<event>
 5    0  0.5568866E-005  0.3589850E+03  0.7546771E-02  0.1058986E+00
         21   -1    0    0  502  501  0.00000000000E+00  0.00000000000E+00  0.79813750490E+02  0.79813750490E+02  0.00000000000E+00 0.  1.
         21   -1    0    0  501  502 -0.00000000000E+00 -0.00000000000E+00 -0.16146370178E+04  0.16146370178E+04  0.00000000000E+00 0.  1.
         25    1    1    2    0    0  0.10780088751E+03 -0.12950257320E+03 -0.94128047985E+03  0.96437849911E+03  0.12500000000E+03 0.  0.
         25    1    1    2    0    0 -0.10004325495E+03  0.20682979020E+03 -0.47012749279E+03  0.53798891667E+03  0.12500000000E+03 0.  0.
         25    1    1    2    0    0 -0.77576325556E+01 -0.77327217001E+02 -0.12341529466E+03  0.19208335250E+03  0.12500000000E+03 0.  0.
</event>
<event>
 5    0  0.5568866E-005  0.5456798E+03  0.7546771E-02  0.1002499E+00
         21   -1    0    0  502  501  0.00000000000E+00  0.00000000000E+00  0.69041069070E+03  0.69041069070E+03  0.00000000000E+00 0. -1.
         21   -1    0    0  501  502 -0.00000000000E+00 -0.00000000000E+00 -0.43128890195E+03  0.43128890195E+03  0.00000000000E+00 0. -1.
         25    1    1    2    0    0  0.15250249079E+03 -0.35627451366E+02 -0.63933680943E+02  0.21033031295E+03  0.12500000000E+03 0.  0.
         25    1    1    2    0    0 -0.44263948743E+03 -0.40714120831E+00  0.26358764001E+01  0.45995850839E+03  0.12500000000E+03 0.  0.
         25    1    1    2    0    0  0.29013699665E+03  0.36034592575E+02  0.32041959329E+03  0.45141077131E+03  0.12500000000E+03 0.  0.
</event>
<event>
 5    0  0.5568866E-005  0.2439001E+03  0.7546771E-02  0.1117222E+00
         21   -1    0    0  502  501  0.00000000000E+00  0.00000000000E+00  0.69548955736E+02  0.69548955736E+02  0.00000000000E+00 0. -1.
         21   -1    0    0  501  502 -0.00000000000E+00 -0.00000000000E+00 -0.85532894759E+03  0.85532894759E+03  0.00000000000E+00 0. -1.
         25    1    1    2    0    0  0.14134000483E+03 -0.74996859479E+01 -0.23992376605E+03  0.30532221630E+03  0.12500000000E+03 0.  0.
         25    1    1    2    0    0 -0.84023475267E+02 -0.21140965674E+02 -0.26542194717E+03  0.30590961879E+03  0.12500000000E+03 0.  0.
         25    1    1    2    0    0 -0.57316529562E+02  0.28640651622E+02 -0.28043427863E+03  0.31364606823E+03  0.12500000000E+03 0.  0.
</event>
<event>
 5    0  0.5568866E-005  0.3681175E+03  0.7546771E-02  0.1055415E+00
         21   -1    0    0  502  501  0.00000000000E+00  0.00000000000E+00  0.23364249745E+03  0.23364249745E+03  0.00000000000E+00 0. -1.
         21   -1    0    0  501  502 -0.00000000000E+00 -0.00000000000E+00 -0.57999087853E+03  0.57999087853E+03  0.00000000000E+00 0. -1.
         25    1    1    2    0    0  0.20840511878E+03 -0.27852058091E+02 -0.51159936019E+02  0.24990152006E+03  0.12500000000E+03 0.  0.
         25    1    1    2    0    0 -0.11936395168E+03 -0.16132502236E+03 -0.15427541071E+03  0.28231085376E+03  0.12500000000E+03 0.  0.
         25    1    1    2    0    0 -0.89041167102E+02  0.18917708045E+03 -0.14091303435E+03  0.28142100216E+03  0.12500000000E+03 0.  0.
</event>
<event>
 5    0  0.5568866E-005  0.3295557E+03  0.7546771E-02  0.1071334E+00
         21   -1    0    0  502  501  0.00000000000E+00  0.00000000000E+00  0.31565938549E+03  0.31565938549E+03  0.00000000000E+00 0.  1.
         21   -1    0    0  501  502 -0.00000000000E+00 -0.00000000000E+00 -0.34406386102E+03  0.34406386102E+03  0.00000000000E+00 0.  1.
         25    1    1    2    0    0  0.81268802813E+02  0.11851693081E+03  0.11611178500E+03  0.22306462699E+03  0.12500000000E+03 0.  0.
         25    1    1    2    0    0  0.68299065656E+02  0.32154336409E+02  0.91211694343E+01  0.14631083163E+03  0.12500000000E+03 0.  0.
         25    1    1    2    0    0 -0.14956786847E+03 -0.15067126722E+03 -0.15363742997E+03  0.29034778789E+03  0.12500000000E+03 0.  0.
</event>
<event>
 5    0  0.5890240E-005  0.3614069E+03  0.7546771E-02  0.1058028E+00
         21   -1    0    0  502  501  0.00000000000E+00  0.00000000000E+00  0.68349962440E+03  0.68349962440E+03  0.00000000000E+00 0. -1.
         21   -1    0    0  501  502 -0.00000000000E+00 -0.00000000000E+00 -0.19109734384E+03  0.19109734384E+03  0.00000000000E+00 0. -1.
         25    1    1    2    0    0 -0.91976953568E+02 -0.18160753822E+02 -0.64950934084E+02  0.16921346520E+03  0.12500000000E+03 0.  0.
         25    1    1    2    0    0 -0.11954602003E+03 -0.20589006676E+02  0.30382835046E+03  0.35021682519E+03  0.12500000000E+03 0.  0.
         25    1    1    2    0    0  0.21152297360E+03  0.38749760498E+02  0.25352486418E+03  0.35516667785E+03  0.12500000000E+03 0.  0.
</event>
<event>
 5    0  0.5568866E-005  0.2768415E+03  0.7546771E-02  0.1097427E+00
         21   -1    0    0  502  501  0.00000000000E+00  0.00000000000E+00  0.20494411805E+03  0.20494411805E+03  0.00000000000E+00 0. -1.
         21   -1    0    0  501  502 -0.00000000000E+00 -0.00000000000E+00 -0.37396165773E+03  0.37396165773E+03  0.00000000000E+00 0. -1.
         25    1    1    2    0    0 -0.36923586955E+02 -0.13025128149E+02 -0.10504617120E+03  0.16790682928E+03  0.12500000000E+03 0.  0.
         25    1    1    2    0    0  0.15520738614E+03  0.66199106227E+02 -0.90999593399E+02  0.22886148732E+03  0.12500000000E+03 0.  0.
         25    1    1    2    0    0 -0.11828379919E+03 -0.53173978078E+02  0.27028224922E+02  0.18213745918E+03  0.12500000000E+03 0.  0.
</event>
<event>
 5    0  0.5568866E-005  0.6003072E+03  0.7546771E-02  0.9904769E-01
         21   -1    0    0  502  501  0.00000000000E+00  0.00000000000E+00  0.75543199116E+03  0.75543199116E+03  0.00000000000E+00 0.  1.
         21   -1    0    0  501  502 -0.00000000000E+00 -0.00000000000E+00 -0.47703658533E+03  0.47703658533E+03  0.00000000000E+00 0.  1.
         25    1    1    2    0    0 -0.16028143284E+03 -0.81148199327E+02 -0.25705116754E+02  0.22036542604E+03  0.12500000000E+03 0.  0.
         25    1    1    2    0    0 -0.10434764252E+03 -0.21341051398E+03 -0.21743989400E+03  0.34545272539E+03  0.12500000000E+03 0.  0.
         25    1    1    2    0    0  0.26462907536E+03  0.29455871331E+03  0.52154041659E+03  0.66665042507E+03  0.12500000000E+03 0.  0.
</event>
<event>
 5    0  0.5568866E-005  0.4380646E+03  0.7546771E-02  0.1031342E+00
         21   -1    0    0  502  501  0.00000000000E+00  0.00000000000E+00  0.38006382166E+03  0.38006382166E+03  0.00000000000E+00 0. -1.
         21   -1    0    0  501  502 -0.00000000000E+00 -0.00000000000E+00 -0.50491683973E+03  0.50491683973E+03  0.00000000000E+00 0. -1.
         25    1    1    2    0    0  0.82307079648E+02  0.29099448436E+03 -0.77608093308E+02  0.33630382311E+03  0.12500000000E+03 0.  0.
         25    1    1    2    0    0  0.34878063258E+01  0.30509313772E+02 -0.13081965391E+03  0.18352592424E+03  0.12500000000E+03 0.  0.
         25    1    1    2    0    0 -0.85794885974E+02 -0.32150379813E+03  0.83574729151E+02  0.36515091404E+03  0.12500000000E+03 0.  0.
</event>
<event>
 5    0  0.5568866E-005  0.2394659E+03  0.7546771E-02  0.1120149E+00
         21   -1    0    0  502  501  0.00000000000E+00  0.00000000000E+00  0.63951218014E+02  0.63951218014E+02  0.00000000000E+00 0.  1.
         21   -1    0    0  501  502 -0.00000000000E+00 -0.00000000000E+00 -0.89668252551E+03  0.89668252551E+03  0.00000000000E+00 0.  1.
         25    1    1    2    0    0  0.40013194233E+01  0.21487393099E+02 -0.25571003488E+03  0.28546513020E+03  0.12500000000E+03 0.  0.
         25    1    1    2    0    0 -0.10025501625E+03  0.48970367369E+02 -0.20337253752E+03  0.26350437222E+03  0.12500000000E+03 0.  0.
         25    1    1    2    0    0  0.96253696831E+02 -0.70457760468E+02 -0.37364873510E+03  0.41166424111E+03  0.12500000000E+03 0.  0.
</event>
<event>
 5    0  0.5568866E-005  0.3745891E+03  0.7546771E-02  0.1052952E+00
         21   -1    0    0  502  501  0.00000000000E+00  0.00000000000E+00  0.57828823636E+03  0.57828823636E+03  0.00000000000E+00 0.  1.
         21   -1    0    0  501  502 -0.00000000000E+00 -0.00000000000E+00 -0.24264191118E+03  0.24264191118E+03  0.00000000000E+00 0.  1.
         25    1    1    2    0    0 -0.19738153554E+03  0.97195255419E+02  0.10299719825E+03  0.27320287535E+03  0.12500000000E+03 0.  0.
         25    1    1    2    0    0  0.19714490196E+03 -0.73369355154E+02  0.31295205032E+03  0.39725704581E+03  0.12500000000E+03 0.  0.
         25    1    1    2    0    0  0.23663358166E+00 -0.23825900265E+02 -0.80302923398E+02  0.15047022637E+03  0.12500000000E+03 0.  0.
</event>
<event>
 5    0  0.5974998E-005  0.3409777E+03  0.7546771E-02  0.1066380E+00
         21   -1    0    0  502  501  0.00000000000E+00  0.00000000000E+00  0.48804922539E+03  0.48804922539E+03  0.00000000000E+00 0.  1.
         21   -1    0    0  501  502 -0.00000000000E+00 -0.00000000000E+00 -0.23822552832E+03  0.23822552832E+03  0.00000000000E+00 0.  1.
         25    1    1    2    0    0  0.15622481097E+03  0.13186973459E+03  0.26695648557E+03  0.35872912295E+03  0.12500000000E+03 0.  0.
         25    1    1    2    0    0 -0.85992367729E+02 -0.14981298702E+03  0.30515747158E+02  0.21539458956E+03  0.12500000000E+03 0.  0.
         25    1    1    2    0    0 -0.70232443236E+02  0.17943252423E+02 -0.47648535662E+02  0.15215104121E+03  0.12500000000E+03 0.  0.
</event>
<event>
 5    0  0.5568866E-005  0.3652900E+03  0.7546771E-02  0.1056509E+00
         21   -1    0    0  502  501  0.00000000000E+00  0.00000000000E+00  0.16470157008E+03  0.16470157008E+03  0.00000000000E+00 0.  1.
         21   -1    0    0  501  502 -0.00000000000E+00 -0.00000000000E+00 -0.81017329528E+03  0.81017329528E+03  0.00000000000E+00 0.  1.
         25    1    1    2    0    0  0.84571700268E+02 -0.52313668188E+01 -0.67933300541E+03  0.69591527640E+03  0.12500000000E+03 0.  0.
         25    1    1    2    0    0 -0.18095988993E+02  0.30283399245E+02 -0.51495154403E+01  0.12998487065E+03  0.12500000000E+03 0.  0.
         25    1    1    2    0    0 -0.66475711275E+02 -0.25052032426E+02  0.39010795652E+02  0.14897471831E+03  0.12500000000E+03 0.  0.
</event>
<event>
 5    0  0.5568866E-005  0.3418782E+03  0.7546771E-02  0.1065999E+00
         21   -1    0    0  502  501  0.00000000000E+00  0.00000000000E+00  0.18808577688E+03  0.18808577688E+03  0.00000000000E+00 0.  1.
         21   -1    0    0  501  502 -0.00000000000E+00 -0.00000000000E+00 -0.62142242904E+03  0.62142242904E+03  0.00000000000E+00 0.  1.
         25    1    1    2    0    0 -0.19371003719E+03 -0.99886328707E+02 -0.19629453069E+03  0.31883757612E+03  0.12500000000E+03 0.  0.
         25    1    1    2    0    0  0.22635319163E+03  0.63321023477E+01 -0.19989749602E+03  0.32689428230E+03  0.12500000000E+03 0.  0.
         25    1    1    2    0    0 -0.32643154445E+02  0.93554226359E+02 -0.37144625449E+02  0.16377634750E+03  0.12500000000E+03 0.  0.
</event>
<event>
 5    0  0.5884844E-005  0.3415986E+03  0.7546771E-02  0.1066117E+00
         21   -1    0    0  502  501  0.00000000000E+00  0.00000000000E+00  0.15220818770E+03  0.15220818770E+03  0.00000000000E+00 0.  1.
         21   -1    0    0  501  502 -0.00000000000E+00 -0.00000000000E+00 -0.76664488334E+03  0.76664488334E+03  0.00000000000E+00 0.  1.
         25    1    1    2    0    0  0.14654222748E+02 -0.17228628442E+03 -0.86308402527E+02  0.23015527452E+03  0.12500000000E+03 0.  0.
         25    1    1    2    0    0 -0.44591885499E+02  0.12182461472E+03 -0.52005730929E+03  0.55037648746E+03  0.12500000000E+03 0.  0.
         25    1    1    2    0    0  0.29937662751E+02  0.50461669702E+02 -0.80709838205E+01  0.13832130906E+03  0.12500000000E+03 0.  0.
</event>
<event>
 5    0  0.5568866E-005  0.1925053E+03  0.7546771E-02  0.1156221E+00
         21   -1    0    0  502  501  0.00000000000E+00  0.00000000000E+00  0.21376916600E+03  0.21376916600E+03  0.00000000000E+00 0.  1.
         21   -1    0    0  501  502 -0.00000000000E+00 -0.00000000000E+00 -0.17335652578E+03  0.17335652578E+03  0.00000000000E+00 0.  1.
         25    1    1    2    0    0 -0.63219240270E+01 -0.24209434568E+00 -0.46673361750E+01  0.12524699342E+03  0.12500000000E+03 0.  0.
         25    1    1    2    0    0 -0.99038509651E+01  0.27638814837E+02  0.31234531563E+02  0.13214607944E+03  0.12500000000E+03 0.  0.
         25    1    1    2    0    0  0.16225774992E+02 -0.27396720491E+02  0.13845444834E+02  0.12973261891E+03  0.12500000000E+03 0.  0.
</event>
<event>
 5    0  0.5568866E-005  0.3494358E+03  0.7546771E-02  0.1062847E+00
         21   -1    0    0  502  501  0.00000000000E+00  0.00000000000E+00  0.69564990320E+03  0.69564990320E+03  0.00000000000E+00 0.  1.
         21   -1    0    0  501  502 -0.00000000000E+00 -0.00000000000E+00 -0.17552710137E+03  0.17552710137E+03  0.00000000000E+00 0.  1.
         25    1    1    2    0    0  0.20069060624E+03  0.34559631161E+02  0.47739881916E+03  0.53385926991E+03  0.12500000000E+03 0.  0.
         25    1    1    2    0    0 -0.12140824188E+03 -0.22513529627E+01 -0.15611075664E+02  0.17496781267E+03  0.12500000000E+03 0.  0.
         25    1    1    2    0    0 -0.79282364365E+02 -0.32308278198E+02  0.58335058330E+02  0.16234992199E+03  0.12500000000E+03 0.  0.
</event>
<event>
 5    0  0.5568866E-005  0.5275364E+03  0.7546771E-02  0.1006831E+00
         21   -1    0    0  502  501  0.00000000000E+00  0.00000000000E+00  0.15411798838E+03  0.15411798838E+03  0.00000000000E+00 0.  1.
         21   -1    0    0  501  502 -0.00000000000E+00 -0.00000000000E+00 -0.18057248668E+04  0.18057248668E+04  0.00000000000E+00 0.  1.
         25    1    1    2    0    0 -0.24383558585E+03  0.37782412523E+03 -0.58548002432E+03  0.74874476386E+03  0.12500000000E+03 0.  0.
         25    1    1    2    0    0  0.16442739568E+03 -0.46848933503E+02 -0.37844140079E+03  0.43367509134E+03  0.12500000000E+03 0.  0.
         25    1    1    2    0    0  0.79408190176E+02 -0.33097519172E+03 -0.68768545326E+03  0.77742299994E+03  0.12500000000E+03 0.  0.
</event>
<event>
 5    0  0.5697808E-005  0.2778753E+03  0.7546771E-02  0.1096855E+00
         21   -1    0    0  502  501  0.00000000000E+00  0.00000000000E+00  0.30400447506E+03  0.30400447506E+03  0.00000000000E+00 0. -1.
         21   -1    0    0  501  502 -0.00000000000E+00 -0.00000000000E+00 -0.25399200840E+03  0.25399200840E+03  0.00000000000E+00 0. -1.
         25    1    1    2    0    0 -0.96505067357E+02  0.13338783181E+03 -0.78226678921E+02  0.22102025925E+03  0.12500000000E+03 0.  0.
         25    1    1    2    0    0  0.33083797250E+02 -0.56713896955E+02  0.10403708169E+03  0.17538448653E+03  0.12500000000E+03 0.  0.
         25    1    1    2    0    0  0.63421270108E+02 -0.76673934859E+02  0.24202063892E+02  0.16159173768E+03  0.12500000000E+03 0.  0.
</event>
<event>
 5    0  0.5568866E-005  0.2757365E+03  0.7546771E-02  0.1098041E+00
         21   -1    0    0  502  501  0.00000000000E+00  0.00000000000E+00  0.25242905286E+03  0.25242905286E+03  0.00000000000E+00 0. -1.
         21   -1    0    0  501  502 -0.00000000000E+00 -0.00000000000E+00 -0.30119598606E+03  0.30119598606E+03  0.00000000000E+00 0. -1.
         25    1    1    2    0    0 -0.46997662913E+02  0.85287574937E+02  0.56424117409E+02  0.16820057010E+03  0.12500000000E+03 0.  0.
         25    1    1    2    0    0  0.73906701994E+02 -0.13815066734E+03  0.16571845800E+02  0.20111547320E+03  0.12500000000E+03 0.  0.
         25    1    1    2    0    0 -0.26909039081E+02  0.52863092405E+02 -0.12176289641E+03  0.18430899561E+03  0.12500000000E+03 0.  0.
</event>
<event>
 5    0  0.5568866E-005  0.5436328E+03  0.7546771E-02  0.1002979E+00
         21   -1    0    0  502  501  0.00000000000E+00  0.00000000000E+00  0.18947256782E+03  0.18947256782E+03  0.00000000000E+00 0.  1.
         21   -1    0    0  501  502 -0.00000000000E+00 -0.00000000000E+00 -0.15597860057E+04  0.15597860057E+04  0.00000000000E+00 0.  1.
         25    1    1    2    0    0  0.19944071832E+02  0.22543902698E+03 -0.35210625651E+03  0.43683445006E+03  0.12500000000E+03 0.  0.
         25    1    1    2    0    0  0.23024676694E+03 -0.37394950713E+03 -0.82085421119E+03  0.93929678143E+03  0.12500000000E+03 0.  0.
         25    1    1    2    0    0 -0.25019083877E+03  0.14851048015E+03 -0.19735297015E+03  0.37312734200E+03  0.12500000000E+03 0.  0.
</event>
<event>
 5    0  0.5568866E-005  0.2936389E+03  0.7546771E-02  0.1088464E+00
         21   -1    0    0  502  501  0.00000000000E+00  0.00000000000E+00  0.14538748893E+04  0.14538748893E+04  0.00000000000E+00 0. -1.
         21   -1    0    0  501  502 -0.00000000000E+00 -0.00000000000E+00 -0.59306212104E+02  0.59306212104E+02  0.00000000000E+00 0. -1.
         25    1    1    2    0    0  0.77876976011E+02 -0.49844010654E+02  0.79813429254E+03  0.81313750235E+03  0.12500000000E+03 0.  0.
         25    1    1    2    0    0  0.87073821605E+02  0.41120151441E+01  0.28745746605E+03  0.32535450491E+03  0.12500000000E+03 0.  0.
         25    1    1    2    0    0 -0.16495079762E+03  0.45731995510E+02  0.30897691864E+03  0.37468909419E+03  0.12500000000E+03 0.  0.
</event>
<event>
 5    0  0.5568866E-005  0.2281378E+03  0.7546771E-02  0.1127957E+00
         21   -1    0    0  502  501  0.00000000000E+00  0.00000000000E+00  0.64734996738E+03  0.64734996738E+03  0.00000000000E+00 0.  1.
         21   -1    0    0  501  502 -0.00000000000E+00 -0.00000000000E+00 -0.80399890803E+02  0.80399890803E+02  0.00000000000E+00 0.  1.
         25    1    1    2    0    0 -0.56231950546E+02 -0.27531063803E+02  0.60162451157E+02  0.15219892334E+03  0.12500000000E+03 0.  0.
         25    1    1    2    0    0  0.17569694972E+02  0.30026071111E+02  0.16733370297E+03  0.21174472196E+03  0.12500000000E+03 0.  0.
         25    1    1    2    0    0  0.38662255574E+02 -0.24950073074E+01  0.33945392245E+03  0.36380621289E+03  0.12500000000E+03 0.  0.
</event>
<event>
 5    0  0.5568866E-005  0.2694559E+03  0.7546771E-02  0.1101591E+00
         21   -1    0    0  502  501  0.00000000000E+00  0.00000000000E+00  0.23742980241E+03  0.23742980241E+03  0.00000000000E+00 0. -1.
         21   -1    0    0  501  502 -0.00000000000E+00 -0.00000000000E+00 -0.30580181028E+03  0.30580181028E+03  0.00000000000E+00 0. -1.
         25    1    1    2    0    0  0.89731695654E+02  0.20381541918E+02 -0.10125975265E+02  0.15554651983E+03  0.12500000000E+03 0.  0.
         25    1    1    2    0    0  0.57635406679E+02 -0.10419350933E+03 -0.27956498782E+02  0.17488480012E+03  0.12500000000E+03 0.  0.
         25    1    1    2    0    0 -0.14736710233E+03  0.83811967407E+02 -0.30289533829E+02  0.21280029274E+03  0.12500000000E+03 0.  0.
</event>
<event>
 5    0  0.5568866E-005  0.2207072E+03  0.7546771E-02  0.1133357E+00
         21   -1    0    0  502  501  0.00000000000E+00  0.00000000000E+00  0.18802536260E+04  0.18802536260E+04  0.00000000000E+00 0. -1.
         21   -1    0    0  501  502 -0.00000000000E+00 -0.00000000000E+00 -0.25906972287E+02  0.25906972287E+02  0.00000000000E+00 0. -1.
         25    1    1    2    0    0 -0.43372388320E+02 -0.14346944189E+02  0.35785031373E+03  0.38179686473E+03  0.12500000000E+03 0.  0.
         25    1    1    2    0    0  0.79268022060E+02  0.35728486623E+02  0.64509884764E+03  0.66282536712E+03  0.12500000000E+03 0.  0.
         25    1    1    2    0    0 -0.35895633739E+02 -0.21381542434E+02  0.85139749229E+03  0.86153836639E+03  0.12500000000E+03 0.  0.
</event>
<event>
 5    0  0.5568866E-005  0.2385262E+03  0.7546771E-02  0.1120779E+00
         21   -1    0    0  502  501  0.00000000000E+00  0.00000000000E+00  0.43758143401E+02  0.43758143401E+02  0.00000000000E+00 0. -1.
         21   -1    0    0  501  502 -0.00000000000E+00 -0.00000000000E+00 -0.13002090551E+04  0.13002090551E+04  0.00000000000E+00 0. -1.
         25    1    1    2    0    0  0.79349525293E+02 -0.89872473913E+02 -0.56443635347E+03  0.59041240319E+03  0.12500000000E+03 0.  0.
         25    1    1    2    0    0 -0.98817099719E+01  0.61313898065E+01 -0.38091149769E+03  0.40106584398E+03  0.12500000000E+03 0.  0.
         25    1    1    2    0    0 -0.69467815322E+02  0.83741084107E+02 -0.31110306058E+03  0.35248895137E+03  0.12500000000E+03 0.  0.
</event>
<event>
 5    0  0.5568866E-005  0.3512699E+03  0.7546771E-02  0.1062095E+00
         21   -1    0    0  502  501  0.00000000000E+00  0.00000000000E+00  0.88529534166E+02  0.88529534166E+02  0.00000000000E+00 0.  1.
         21   -1    0    0  501  502 -0.00000000000E+00 -0.00000000000E+00 -0.13937783486E+04  0.13937783486E+04  0.00000000000E+00 0.  1.
         25    1    1    2    0    0  0.12161025676E+03  0.98652600245E+02 -0.10651729299E+03  0.22691920102E+03  0.12500000000E+03 0.  0.
         25    1    1    2    0    0 -0.40757042777E+02 -0.16393582084E+03 -0.69542659371E+03  0.72648416165E+03  0.12500000000E+03 0.  0.
         25    1    1    2    0    0 -0.80853213982E+02  0.65283220591E+02 -0.50330492774E+03  0.52890452010E+03  0.12500000000E+03 0.  0.
</event>
<event>
 5    0  0.5568866E-005  0.4077640E+03  0.7546771E-02  0.1041124E+00
         21   -1    0    0  502  501  0.00000000000E+00  0.00000000000E+00  0.86301241100E+03  0.86301241100E+03  0.00000000000E+00 0.  1.
         21   -1    0    0  501  502 -0.00000000000E+00 -0.00000000000E+00 -0.19266404437E+03  0.19266404437E+03  0.00000000000E+00 0.  1.
         25    1    1    2    0    0  0.80213812212E+02  0.19817345181E+02  0.58525445684E+03  0.60413141128E+03  0.12500000000E+03 0.  0.
         25    1    1    2    0    0 -0.12260316764E+03 -0.56025120149E+02  0.20085773646E+03  0.27228510995E+03  0.12500000000E+03 0.  0.
         25    1    1    2    0    0  0.42389355424E+02  0.36207774969E+02 -0.11576382668E+03  0.17925993414E+03  0.12500000000E+03 0.  0.
</event>
<event>
 5    0  0.5568866E-005  0.4928069E+03  0.7546771E-02  0.1015674E+00
         21   -1    0    0  502  501  0.00000000000E+00  0.00000000000E+00  0.19495003457E+04  0.19495003457E+04  0.00000000000E+00 0.  1.
         21   -1    0    0  501  502 -0.00000000000E+00 -0.00000000000E+00 -0.12457479062E+03  0.12457479062E+03  0.00000000000E+00 0.  1.
         25    1    1    2    0    0 -0.88623344017E+02 -0.90576297105E+02  0.25837566047E+03  0.31375331811E+03  0.12500000000E+03 0.  0.
         25    1    1    2    0    0  0.10241234635E+03 -0.30882715752E+03  0.97610025476E+03  0.10364647651E+04  0.12500000000E+03 0.  0.
         25    1    1    2    0    0 -0.13789002330E+02  0.39940345463E+03  0.59044963985E+03  0.72385705312E+03  0.12500000000E+03 0.  0.
</event>
<event>
 5    0  0.5568866E-005  0.4573548E+03  0.7546771E-02  0.1025551E+00
         21   -1    0    0  502  501  0.00000000000E+00  0.00000000000E+00  0.56830143548E+03  0.56830143548E+03  0.00000000000E+00 0. -1.
         21   -1    0    0  501  502 -0.00000000000E+00 -0.00000000000E+00 -0.36806765705E+03  0.36806765705E+03  0.00000000000E+00 0. -1.
         25    1    1    2    0    0  0.11271056816E+03  0.26269350363E+03 -0.77471333669E+02  0.32146283855E+03  0.12500000000E+03 0.  0.
         25    1    1    2    0    0  0.15386710550E+02 -0.32973992655E+03  0.21713323693E+03  0.41441164632E+03  0.12500000000E+03 0.  0.
         25    1    1    2    0    0 -0.12809727871E+03  0.67046422921E+02  0.60571875177E+02  0.20049460766E+03  0.12500000000E+03 0.  0.
</event>
<event>
 5    0  0.5568866E-005  0.2825125E+03  0.7546771E-02  0.1094325E+00
         21   -1    0    0  502  501  0.00000000000E+00  0.00000000000E+00  0.15402232835E+03  0.15402232835E+03  0.00000000000E+00 0.  1.
         21   -1    0    0  501  502 -0.00000000000E+00 -0.00000000000E+00 -0.51819310051E+03  0.51819310051E+03  0.00000000000E+00 0.  1.
         25    1    1    2    0    0  0.65565670866E+02 -0.96087761631E+02 -0.35977504585E+02  0.17450242396E+03  0.12500000000E+03 0.  0.
         25    1    1    2    0    0 -0.71227115989E+02  0.11866618104E+03 -0.51921786164E+02  0.19358676725E+03  0.12500000000E+03 0.  0.
         25    1    1    2    0    0  0.56614451229E+01 -0.22578419407E+02 -0.27627148142E+03  0.30412623765E+03  0.12500000000E+03 0.  0.
</event>
<event>
 5    0  0.5568866E-005  0.2807261E+03  0.7546771E-02  0.1095293E+00
         21   -1    0    0  502  501  0.00000000000E+00  0.00000000000E+00  0.27276956320E+03  0.27276956320E+03  0.00000000000E+00 0.  1.
         21   -1    0    0  501  502 -0.00000000000E+00 -0.00000000000E+00 -0.28891475436E+03  0.28891475436E+03  0.00000000000E+00 0.  1.
         25    1    1    2    0    0 -0.31059269589E+01 -0.58855393990E+02 -0.39701047360E+02  0.14378726420E+03  0.12500000000E+03 0.  0.
         25    1    1    2    0    0 -0.48651982426E+02  0.28237859614E+02 -0.14504492257E+03  0.19956808781E+03  0.12500000000E+03 0.  0.
         25    1    1    2    0    0  0.51757909385E+02  0.30617534376E+02  0.16860077877E+03  0.21832896554E+03  0.12500000000E+03 0.  0.
</event>
<event>
 5    0  0.5568866E-005  0.5119986E+03  0.7546771E-02  0.1010694E+00
         21   -1    0    0  502  501  0.00000000000E+00  0.00000000000E+00  0.61677751006E+03  0.61677751006E+03  0.00000000000E+00 0.  1.
         21   -1    0    0  501  502 -0.00000000000E+00 -0.00000000000E+00 -0.42501962589E+03  0.42501962589E+03  0.00000000000E+00 0.  1.
         25    1    1    2    0    0 -0.38586041119E+01 -0.27935868253E+03  0.86960977574E+02  0.31818763953E+03  0.12500000000E+03 0.  0.
         25    1    1    2    0    0 -0.11359047801E+03  0.68491840246E+02 -0.22929665482E+03  0.29290934568E+03  0.12500000000E+03 0.  0.
         25    1    1    2    0    0  0.11744908212E+03  0.21086684228E+03  0.33409356142E+03  0.43070015074E+03  0.12500000000E+03 0.  0.
</event>
<event>
 5    0  0.5568866E-005  0.3089895E+03  0.7546771E-02  0.1080831E+00
         21   -1    0    0  502  501  0.00000000000E+00  0.00000000000E+00  0.12432747714E+03  0.12432747714E+03  0.00000000000E+00 0. -1.
         21   -1    0    0  501  502 -0.00000000000E+00 -0.00000000000E+00 -0.76792766819E+03  0.76792766819E+03  0.00000000000E+00 0. -1.
         25    1    1    2    0    0  0.15741789912E+02  0.54511897346E+01 -0.15968335772E+03  0.20347307967E+03  0.12500000000E+03 0.  0.
         25    1    1    2    0    0 -0.16510862412E+02 -0.14614204610E+03 -0.46026852049E+03  0.49910140971E+03  0.12500000000E+03 0.  0.
         25    1    1    2    0    0  0.76907249974E+00  0.14069085637E+03 -0.23648312839E+02  0.18968065594E+03  0.12500000000E+03 0.  0.
</event>
<event>
 5    0  0.5568866E-005  0.3657569E+03  0.7546771E-02  0.1056327E+00
         21   -1    0    0  502  501  0.00000000000E+00  0.00000000000E+00  0.89656715619E+03  0.89656715619E+03  0.00000000000E+00 0. -1.
         21   -1    0    0  501  502 -0.00000000000E+00 -0.00000000000E+00 -0.14921146810E+03  0.14921146810E+03  0.00000000000E+00 0. -1.
         25    1    1    2    0    0 -0.79318889707E+02 -0.23264746990E+03  0.21319976058E+03  0.34856200227E+03  0.12500000000E+03 0.  0.
         25    1    1    2    0    0 -0.32707177437E+02  0.41655128081E+02  0.40077327863E+02  0.14154893627E+03  0.12500000000E+03 0.  0.
         25    1    1    2    0    0  0.11202606714E+03  0.19099234182E+03  0.49407859965E+03  0.55566768575E+03  0.12500000000E+03 0.  0.
</event>
<event>
 5    0  0.5568866E-005  0.2969741E+03  0.7546771E-02  0.1086763E+00
         21   -1    0    0  502  501  0.00000000000E+00  0.00000000000E+00  0.75793231820E+03  0.75793231820E+03  0.00000000000E+00 0. -1.
         21   -1    0    0  501  502 -0.00000000000E+00 -0.00000000000E+00 -0.11636077295E+03  0.11636077295E+03  0.00000000000E+00 0. -1.
         25    1    1    2    0    0 -0.11252279530E+02 -0.67031649042E+02  0.28436146472E+03  0.31797216605E+03  0.12500000000E+03 0.  0.
         25    1    1    2    0    0  0.15199304122E+03 -0.39849907247E+02  0.11463130940E+03  0.23120388574E+03  0.12500000000E+03 0.  0.
         25    1    1    2    0    0 -0.14074076169E+03  0.10688155629E+03  0.24257877114E+03  0.32511703936E+03  0.12500000000E+03 0.  0.
</event>
<event>
 5    0  0.5568866E-005  0.4109501E+03  0.7546771E-02  0.1040053E+00
         21   -1    0    0  502  501  0.00000000000E+00  0.00000000000E+00  0.52996401316E+03  0.52996401316E+03  0.00000000000E+00 0. -1.
         21   -1    0    0  501  502 -0.00000000000E+00 -0.00000000000E+00 -0.31866311952E+03  0.31866311952E+03  0.00000000000E+00 0.  1.
         25    1    1    2    0    0 -0.14920529956E+03 -0.21701504772E+03  0.24504767209E+03  0.38082950772E+03  0.12500000000E+03 0.  0.
         25    1    1    2    0    0  0.15593170490E+03  0.21589143999E+03  0.73185850379E+02  0.30315834006E+03  0.12500000000E+03 0.  0.
         25    1    1    2    0    0 -0.67264053368E+01  0.11236077341E+01 -0.10693262883E+03  0.16463928490E+03  0.12500000000E+03 0.  0.
</event>
<event>
 5    0  0.5568866E-005  0.4938990E+03  0.7546771E-02  0.1015384E+00
         21   -1    0    0  502  501  0.00000000000E+00  0.00000000000E+00  0.11136862138E+03  0.11136862138E+03  0.00000000000E+00 0. -1.
         21   -1    0    0  501  502 -0.00000000000E+00 -0.00000000000E+00 -0.21903495403E+04  0.21903495403E+04  0.00000000000E+00 0. -1.
         25    1    1    2    0    0  0.11645690640E+03  0.20341630562E+03 -0.30608672221E+03  0.40528321696E+03  0.12500000000E+03 0.  0.
         25    1    1    2    0    0 -0.31678511934E+03  0.27971551168E+02 -0.84986165393E+03  0.91598310592E+03  0.12500000000E+03 0.  0.
         25    1    1    2    0    0  0.20032821294E+03 -0.23138785679E+03 -0.92303254283E+03  0.98045183884E+03  0.12500000000E+03 0.  0.
</event>
<event>
 5    0  0.5568866E-005  0.3635549E+03  0.7546771E-02  0.1057185E+00
         21   -1    0    0  502  501  0.00000000000E+00  0.00000000000E+00  0.82157258921E+02  0.82157258921E+02  0.00000000000E+00 0. -1.
         21   -1    0    0  501  502 -0.00000000000E+00 -0.00000000000E+00 -0.16087707370E+04  0.16087707370E+04  0.00000000000E+00 0. -1.
         25    1    1    2    0    0  0.59898055735E+02  0.11298925594E+02 -0.11890302064E+04  0.11971354453E+04  0.12500000000E+03 0.  0.
         25    1    1    2    0    0  0.76834442850E+02 -0.66240268915E+02 -0.19919415628E+03  0.25611446021E+03  0.12500000000E+03 0.  0.
         25    1    1    2    0    0 -0.13673249858E+03  0.54941343321E+02 -0.13838911542E+03  0.23767809037E+03  0.12500000000E+03 0.  0.
</event>
<event>
 5    0  0.5568866E-005  0.3827382E+03  0.7546771E-02  0.1049926E+00
         21   -1    0    0  502  501  0.00000000000E+00  0.00000000000E+00  0.40694183292E+03  0.40694183292E+03  0.00000000000E+00 0.  1.
         21   -1    0    0  501  502 -0.00000000000E+00 -0.00000000000E+00 -0.35997411413E+03  0.35997411413E+03  0.00000000000E+00 0.  1.
         25    1    1    2    0    0 -0.92934367086E+01  0.23158648734E+03  0.15361769277E+03  0.30486401004E+03  0.12500000000E+03 0.  0.
         25    1    1    2    0    0 -0.61257501269E+02 -0.16960354020E+03 -0.18515904511E+03  0.28710052995E+03  0.12500000000E+03 0.  0.
         25    1    1    2    0    0  0.70550937978E+02 -0.61982947137E+02  0.78509071128E+02  0.17495140707E+03  0.12500000000E+03 0.  0.
</event>
<event>
 5    0  0.5568866E-005  0.2215342E+03  0.7546771E-02  0.1132744E+00
         21   -1    0    0  502  501  0.00000000000E+00  0.00000000000E+00  0.19213558407E+03  0.19213558407E+03  0.00000000000E+00 0.  1.
         21   -1    0    0  501  502 -0.00000000000E+00 -0.00000000000E+00 -0.25543115845E+03  0.25543115845E+03  0.00000000000E+00 0.  1.
         25    1    1    2    0    0  0.36068308008E+02  0.44041359599E+02 -0.70310866999E+02  0.15430224307E+03  0.12500000000E+03 0.  0.
         25    1    1    2    0    0  0.38733715202E+02  0.36639811079E+01 -0.32662362801E+02  0.13492796372E+03  0.12500000000E+03 0.  0.
         25    1    1    2    0    0 -0.74802023210E+02 -0.47705340707E+02  0.39677655413E+02  0.15833653573E+03  0.12500000000E+03 0.  0.
</event>
<event>
 5    0  0.5568866E-005  0.2997119E+03  0.7546771E-02  0.1085385E+00
         21   -1    0    0  502  501  0.00000000000E+00  0.00000000000E+00  0.11872329688E+04  0.11872329688E+04  0.00000000000E+00 0.  1.
         21   -1    0    0  501  502 -0.00000000000E+00 -0.00000000000E+00 -0.75661004633E+02  0.75661004633E+02  0.00000000000E+00 0.  1.
         25    1    1    2    0    0  0.11856729868E+03  0.65500513142E+01  0.34992151750E+03  0.39009124048E+03  0.12500000000E+03 0.  0.
         25    1    1    2    0    0 -0.12220059402E+03 -0.14612923241E+03  0.31802856660E+03  0.39122104611E+03  0.12500000000E+03 0.  0.
         25    1    1    2    0    0  0.36332953483E+01  0.13957918110E+03  0.44362188003E+03  0.48158168681E+03  0.12500000000E+03 0.  0.
</event>
<event>
 5    0  0.5568866E-005  0.3692008E+03  0.7546771E-02  0.1054999E+00
         21   -1    0    0  502  501  0.00000000000E+00  0.00000000000E+00  0.23223720271E+04  0.23223720271E+04  0.00000000000E+00 0.  1.
         21   -1    0    0  501  502 -0.00000000000E+00 -0.00000000000E+00 -0.58693961350E+02  0.58693961350E+02  0.00000000000E+00 0.  1.
         25    1    1    2    0    0 -0.13302228226E+03  0.79337974180E+01  0.16308684021E+04  0.16410711800E+04  0.12500000000E+03 0.  0.
         25    1    1    2    0    0 -0.61747906458E+02 -0.25010734044E+02  0.16263232523E+03  0.21566783251E+03  0.12500000000E+03 0.  0.
         25    1    1    2    0    0  0.19477018872E+03  0.17076936626E+02  0.47017733841E+03  0.52432697598E+03  0.12500000000E+03 0.  0.
</event>
<event>
 5    0  0.5603727E-005  0.3043286E+03  0.7546771E-02  0.1083097E+00
         21   -1    0    0  502  501  0.00000000000E+00  0.00000000000E+00  0.25674520553E+03  0.25674520553E+03  0.00000000000E+00 0.  1.
         21   -1    0    0  501  502 -0.00000000000E+00 -0.00000000000E+00 -0.36073082278E+03  0.36073082278E+03  0.00000000000E+00 0.  1.
         25    1    1    2    0    0  0.73652137529E+02  0.14008134859E+03  0.55491195239E+02  0.20916905683E+03  0.12500000000E+03 0.  0.
         25    1    1    2    0    0 -0.11855792360E+03 -0.49767644775E+02  0.36703918890E+01  0.17936351773E+03  0.12500000000E+03 0.  0.
         25    1    1    2    0    0  0.44905786075E+02 -0.90313703817E+02 -0.16314720438E+03  0.22894345375E+03  0.12500000000E+03 0.  0.
</event>
<event>
 5    0  0.5568866E-005  0.4266588E+03  0.7546771E-02  0.1034921E+00
         21   -1    0    0  502  501  0.00000000000E+00  0.00000000000E+00  0.10983811887E+03  0.10983811887E+03  0.00000000000E+00 0. -1.
         21   -1    0    0  501  502 -0.00000000000E+00 -0.00000000000E+00 -0.16573278330E+04  0.16573278330E+04  0.00000000000E+00 0. -1.
         25    1    1    2    0    0  0.33138774674E+02  0.15113541587E+03 -0.23106363176E+03  0.30488603483E+03  0.12500000000E+03 0.  0.
         25    1    1    2    0    0 -0.22906397457E+02  0.19898089989E+03 -0.31235519748E+03  0.39154676726E+03  0.12500000000E+03 0.  0.
         25    1    1    2    0    0 -0.10232377217E+02 -0.35011631576E+03 -0.10040708849E+04  0.10707331498E+04  0.12500000000E+03 0.  0.
</event>
<event>
 5    0  0.5568866E-005  0.2415134E+03  0.7546771E-02  0.1118789E+00
         21   -1    0    0  502  501  0.00000000000E+00  0.00000000000E+00  0.33259597703E+03  0.33259597703E+03  0.00000000000E+00 0. -1.
         21   -1    0    0  501  502 -0.00000000000E+00 -0.00000000000E+00 -0.17537413421E+03  0.17537413421E+03  0.00000000000E+00 0. -1.
         25    1    1    2    0    0  0.10129645206E+03 -0.62984014313E+02  0.75538736783E+02  0.18857109538E+03  0.12500000000E+03 0.  0.
         25    1    1    2    0    0 -0.31188783964E+02 -0.36203062361E+02  0.45861598091E+02  0.14146267405E+03  0.12500000000E+03 0.  0.
         25    1    1    2    0    0 -0.70107668094E+02  0.99187076675E+02  0.35821507939E+02  0.17793634181E+03  0.12500000000E+03 0.  0.
</event>
<event>
 5    0  0.5568866E-005  0.2941424E+03  0.7546771E-02  0.1088206E+00
         21   -1    0    0  502  501  0.00000000000E+00  0.00000000000E+00  0.68619686632E+02  0.68619686632E+02  0.00000000000E+00 0. -1.
         21   -1    0    0  501  502 -0.00000000000E+00 -0.00000000000E+00 -0.12608587251E+04  0.12608587251E+04  0.00000000000E+00 0. -1.
         25    1    1    2    0    0  0.20984651513E+02  0.59255861581E+02 -0.46431572645E+03  0.48493886889E+03  0.12500000000E+03 0.  0.
         25    1    1    2    0    0  0.22042481095E+00  0.10521471297E+03 -0.12169008030E+03  0.20372447093E+03  0.12500000000E+03 0.  0.
         25    1    1    2    0    0 -0.21205076324E+02 -0.16447057455E+03 -0.60623323177E+03  0.64081507196E+03  0.12500000000E+03 0.  0.
</event>
<event>
 5    0  0.5568866E-005  0.3527307E+03  0.7546771E-02  0.1061500E+00
         21   -1    0    0  502  501  0.00000000000E+00  0.00000000000E+00  0.13889315462E+03  0.13889315462E+03  0.00000000000E+00 0. -1.
         21   -1    0    0  501  502 -0.00000000000E+00 -0.00000000000E+00 -0.89578911513E+03  0.89578911513E+03  0.00000000000E+00 0. -1.
         25    1    1    2    0    0  0.11024772845E+03 -0.32746752098E+02 -0.28606695158E+03  0.33269537446E+03  0.12500000000E+03 0.  0.
         25    1    1    2    0    0 -0.13694181295E+02 -0.11157132459E+03  0.17330418958E+02  0.16900010205E+03  0.12500000000E+03 0.  0.
         25    1    1    2    0    0 -0.96553547158E+02  0.14431807669E+03 -0.48815942789E+03  0.53298679324E+03  0.12500000000E+03 0.  0.
</event>
<event>
 5    0  0.5568866E-005  0.5242611E+03  0.7546771E-02  0.1007633E+00
         21   -1    0    0  502  501  0.00000000000E+00  0.00000000000E+00  0.11376975418E+04  0.11376975418E+04  0.00000000000E+00 0.  1.
         21   -1    0    0  501  502 -0.00000000000E+00 -0.00000000000E+00 -0.24158413834E+03  0.24158413834E+03  0.00000000000E+00 0.  1.
         25    1    1    2    0    0  0.18415528995E+03 -0.38817203927E+03  0.13137809422E+03  0.46634312103E+03  0.12500000000E+03 0.  0.
         25    1    1    2    0    0 -0.69220544024E+02  0.18752178464E+03  0.36551697078E+03  0.43495236447E+03  0.12500000000E+03 0.  0.
         25    1    1    2    0    0 -0.11493474593E+03  0.20065025463E+03  0.39921833843E+03  0.47798619461E+03  0.12500000000E+03 0.  0.
</event>
<event>
 5    0  0.5568866E-005  0.3914999E+03  0.7546771E-02  0.1046763E+00
         21   -1    0    0  502  501  0.00000000000E+00  0.00000000000E+00  0.34433581124E+03  0.34433581124E+03  0.00000000000E+00 0. -1.
         21   -1    0    0  501  502 -0.00000000000E+00 -0.00000000000E+00 -0.44512407105E+03  0.44512407105E+03  0.00000000000E+00 0. -1.
         25    1    1    2    0    0  0.24222309915E+02  0.11684700371E+02  0.10295838626E+03  0.16416053674E+03  0.12500000000E+03 0.  0.
         25    1    1    2    0    0 -0.98326379666E+02 -0.18795491118E+03 -0.29061904132E+03  0.38089309885E+03  0.12500000000E+03 0.  0.
         25    1    1    2    0    0  0.74104069751E+02  0.17627021081E+03  0.86872395251E+02  0.24440624671E+03  0.12500000000E+03 0.  0.
</event>
<event>
 5    0  0.5568866E-005  0.5012209E+03  0.7546771E-02  0.1013461E+00
         21   -1    0    0  502  501  0.00000000000E+00  0.00000000000E+00  0.36437621197E+03  0.36437621197E+03  0.00000000000E+00 0. -1.
         21   -1    0    0  501  502 -0.00000000000E+00 -0.00000000000E+00 -0.68945869429E+03  0.68945869429E+03  0.00000000000E+00 0. -1.
         25    1    1    2    0    0  0.84802548043E+02  0.64151693870E+01  0.99023343487E+02  0.18072976818E+03  0.12500000000E+03 0.  0.
         25    1    1    2    0    0  0.18269937795E+03 -0.18317662296E+03 -0.44348425201E+03  0.52842787558E+03  0.12500000000E+03 0.  0.
         25    1    1    2    0    0 -0.26750192600E+03  0.17676145357E+03  0.19378426207E+02  0.34467726250E+03  0.12500000000E+03 0.  0.
</event>
<event>
 5    0  0.5568866E-005  0.5401208E+03  0.7546771E-02  0.1003807E+00
         21   -1    0    0  502  501  0.00000000000E+00  0.00000000000E+00  0.13158249623E+04  0.13158249623E+04  0.00000000000E+00 0. -1.
         21   -1    0    0  501  502 -0.00000000000E+00 -0.00000000000E+00 -0.22170921150E+03  0.22170921150E+03  0.00000000000E+00 0. -1.
         25    1    1    2    0    0  0.11993375059E+03 -0.16186846848E+03 -0.78585917146E+01  0.23721775457E+03  0.12500000000E+03 0.  0.
         25    1    1    2    0    0  0.99551678871E+02 -0.15233331211E+03  0.15114815470E+03  0.26755698349E+03  0.12500000000E+03 0.  0.
         25    1    1    2    0    0 -0.21948542946E+03  0.31420178059E+03  0.95082618782E+03  0.10327594357E+04  0.12500000000E+03 0.  0.
</event>
<event>
 5    0  0.5568866E-005  0.2025589E+03  0.7546771E-02  0.1147598E+00
         21   -1    0    0  502  501  0.00000000000E+00  0.00000000000E+00  0.78869419186E+02  0.78869419186E+02  0.00000000000E+00 0.  1.
         21   -1    0    0  501  502 -0.00000000000E+00 -0.00000000000E+00 -0.52022833577E+03  0.52022833577E+03  0.00000000000E+00 0.  1.
         25    1    1    2    0    0 -0.56466491195E+01 -0.32448912685E+02 -0.19024545697E+03  0.23000684877E+03  0.12500000000E+03 0.  0.
         25    1    1    2    0    0  0.96071989891E+01 -0.17123091361E+02 -0.17027662840E+03  0.21214294405E+03  0.12500000000E+03 0.  0.
         25    1    1    2    0    0 -0.39605498696E+01  0.49572004046E+02 -0.80836831214E+02  0.15694796214E+03  0.12500000000E+03 0.  0.
</event>
<event>
 5    0  0.5568866E-005  0.2106582E+03  0.7546771E-02  0.1141046E+00
         21   -1    0    0  502  501  0.00000000000E+00  0.00000000000E+00  0.40186804794E+02  0.40186804794E+02  0.00000000000E+00 0. -1.
         21   -1    0    0  501  502 -0.00000000000E+00 -0.00000000000E+00 -0.11042650413E+04  0.11042650413E+04  0.00000000000E+00 0. -1.
         25    1    1    2    0    0  0.23149494688E+02 -0.10457076007E+02 -0.51418335346E+03  0.52976860092E+03  0.12500000000E+03 0.  0.
         25    1    1    2    0    0  0.95544662850E+01 -0.41151499387E+02 -0.21823711497E+03  0.25502386570E+03  0.12500000000E+03 0.  0.
         25    1    1    2    0    0 -0.32703960973E+02  0.51608575395E+02 -0.33165776809E+03  0.35965937949E+03  0.12500000000E+03 0.  0.
</event>
<event>
 5    0  0.5568866E-005  0.3048030E+03  0.7546771E-02  0.1082864E+00
         21   -1    0    0  502  501  0.00000000000E+00  0.00000000000E+00  0.54813646564E+03  0.54813646564E+03  0.00000000000E+00 0. -1.
         21   -1    0    0  501  502 -0.00000000000E+00 -0.00000000000E+00 -0.16949221878E+03  0.16949221878E+03  0.00000000000E+00 0. -1.
         25    1    1    2    0    0  0.33275735406E+02  0.98229152544E+01  0.18733951783E+03  0.22787026829E+03  0.12500000000E+03 0.  0.
         25    1    1    2    0    0 -0.18376004316E+03 -0.72855167644E+02  0.15621037437E+03  0.28125132884E+03  0.12500000000E+03 0.  0.
         25    1    1    2    0    0  0.15048430775E+03  0.63032252389E+02  0.35094354661E+02  0.20850708729E+03  0.12500000000E+03 0.  0.
</event>
<event>
 5    0  0.5568866E-005  0.3117789E+03  0.7546771E-02  0.1079496E+00
         21   -1    0    0  502  501  0.00000000000E+00  0.00000000000E+00  0.67711242238E+03  0.67711242238E+03  0.00000000000E+00 0.  1.
         21   -1    0    0  501  502 -0.00000000000E+00 -0.00000000000E+00 -0.14355974418E+03  0.14355974418E+03  0.00000000000E+00 0.  1.
         25    1    1    2    0    0  0.21850993682E+02 -0.36074876981E+02  0.82712817598E+02  0.15570893638E+03  0.12500000000E+03 0.  0.
         25    1    1    2    0    0 -0.47364563010E+02  0.22204262823E+03  0.19794811787E+03  0.32612081802E+03  0.12500000000E+03 0.  0.
         25    1    1    2    0    0  0.25513569328E+02 -0.18596775125E+03  0.25289174274E+03  0.33884241215E+03  0.12500000000E+03 0.  0.
</event>
<event>
 5    0  0.5568866E-005  0.2506563E+03  0.7546771E-02  0.1112891E+00
         21   -1    0    0  502  501  0.00000000000E+00  0.00000000000E+00  0.11445583213E+03  0.11445583213E+03  0.00000000000E+00 0.  1.
         21   -1    0    0  501  502 -0.00000000000E+00 -0.00000000000E+00 -0.54893316535E+03  0.54893316535E+03  0.00000000000E+00 0.  1.
         25    1    1    2    0    0  0.61505958727E+02 -0.57240780388E+02 -0.24706040429E+03  0.28934984581E+03  0.12500000000E+03 0.  0.
         25    1    1    2    0    0  0.13257492050E+01 -0.12942367538E+02 -0.17712542729E+03  0.21718121346E+03  0.12500000000E+03 0.  0.
         25    1    1    2    0    0 -0.62831707932E+02  0.70183147926E+02 -0.10291501639E+02  0.15685793821E+03  0.12500000000E+03 0.  0.
</event>
<event>
 5    0  0.5568866E-005  0.2332367E+03  0.7546771E-02  0.1124382E+00
         21   -1    0    0  502  501  0.00000000000E+00  0.00000000000E+00  0.64938330277E+03  0.64938330277E+03  0.00000000000E+00 0. -1.
         21   -1    0    0  501  502 -0.00000000000E+00 -0.00000000000E+00 -0.83770829369E+02  0.83770829369E+02  0.00000000000E+00 0. -1.
         25    1    1    2    0    0  0.56902147088E+02 -0.93903844977E+02  0.15552235196E+03  0.22774544651E+03  0.12500000000E+03 0.  0.
         25    1    1    2    0    0 -0.66724395337E+02  0.20220354733E+02  0.14940936088E+03  0.20690375733E+03  0.12500000000E+03 0.  0.
         25    1    1    2    0    0  0.98222482489E+01  0.73683490243E+02  0.26068076056E+03  0.29850492830E+03  0.12500000000E+03 0.  0.
</event>
<event>
 5    0  0.5568866E-005  0.4228375E+03  0.7546771E-02  0.1036147E+00
         21   -1    0    0  502  501  0.00000000000E+00  0.00000000000E+00  0.15944922222E+04  0.15944922222E+04  0.00000000000E+00 0. -1.
         21   -1    0    0  501  502 -0.00000000000E+00 -0.00000000000E+00 -0.11213070712E+03  0.11213070712E+03  0.00000000000E+00 0. -1.
         25    1    1    2    0    0  0.14043075864E+03  0.36453345765E+02  0.59718173840E+03  0.62713688543E+03  0.12500000000E+03 0.  0.
         25    1    1    2    0    0  0.73677995811E+02  0.20394630983E+03  0.23520962878E+03  0.34346923273E+03  0.12500000000E+03 0.  0.
         25    1    1    2    0    0 -0.21410875445E+03 -0.24039965560E+03  0.64997014794E+03  0.73601681120E+03  0.12500000000E+03 0.  0.
</event>
<event>
 5    0  0.5568866E-005  0.4561493E+03  0.7546771E-02  0.1025904E+00
         21   -1    0    0  502  501  0.00000000000E+00  0.00000000000E+00  0.58738938324E+03  0.58738938324E+03  0.00000000000E+00 0. -1.
         21   -1    0    0  501  502 -0.00000000000E+00 -0.00000000000E+00 -0.35423217316E+03  0.35423217316E+03  0.00000000000E+00 0. -1.
         25    1    1    2    0    0  0.12312779769E+02  0.34152147872E+03  0.12941660161E+03  0.38621520134E+03  0.12500000000E+03 0.  0.
         25    1    1    2    0    0  0.88896536284E+02 -0.86779977829E+02 -0.89331756398E+02  0.19758168290E+03  0.12500000000E+03 0.  0.
         25    1    1    2    0    0 -0.10120931605E+03 -0.25474150089E+03  0.19307236488E+03  0.35782467216E+03  0.12500000000E+03 0.  0.
</event>
<event>
 5    0  0.5568866E-005  0.3038500E+03  0.7546771E-02  0.1083332E+00
         21   -1    0    0  502  501  0.00000000000E+00  0.00000000000E+00  0.63243214451E+03  0.63243214451E+03  0.00000000000E+00 0.  1.
         21   -1    0    0  501  502 -0.00000000000E+00 -0.00000000000E+00 -0.14598378132E+03  0.14598378132E+03  0.00000000000E+00 0.  1.
         25    1    1    2    0    0  0.14405149188E+03 -0.79777795908E+02  0.23350984851E+03  0.31187686413E+03  0.12500000000E+03 0.  0.
         25    1    1    2    0    0 -0.86038988765E+02 -0.70647846345E+01 -0.15337437507E+02  0.15268547986E+03  0.12500000000E+03 0.  0.
         25    1    1    2    0    0 -0.58012503111E+02  0.86842580542E+02  0.26827595219E+03  0.31385358184E+03  0.12500000000E+03 0.  0.
</event>
<event>
 5    0  0.5568866E-005  0.3148240E+03  0.7546771E-02  0.1078056E+00
         21   -1    0    0  502  501  0.00000000000E+00  0.00000000000E+00  0.88804843706E+02  0.88804843706E+02  0.00000000000E+00 0.  1.
         21   -1    0    0  501  502 -0.00000000000E+00 -0.00000000000E+00 -0.11160895967E+04  0.11160895967E+04  0.00000000000E+00 0.  1.
         25    1    1    2    0    0 -0.10731549672E+03  0.17114797949E+03 -0.44616680512E+03  0.50546816390E+03  0.12500000000E+03 0.  0.
         25    1    1    2    0    0 -0.11012134346E+02 -0.10234128325E+03 -0.43256364474E+03  0.46187802731E+03  0.12500000000E+03 0.  0.
         25    1    1    2    0    0  0.11832763106E+03 -0.68806696242E+02 -0.14855430314E+03  0.23754824921E+03  0.12500000000E+03 0.  0.
</event>
<event>
 5    0  0.5568866E-005  0.2834111E+03  0.7546771E-02  0.1093840E+00
         21   -1    0    0  502  501  0.00000000000E+00  0.00000000000E+00  0.36209940264E+02  0.36209940264E+02  0.00000000000E+00 0.  1.
         21   -1    0    0  501  502 -0.00000000000E+00 -0.00000000000E+00 -0.22182272376E+04  0.22182272376E+04  0.00000000000E+00 0.  1.
         25    1    1    2    0    0  0.77102598968E+02  0.12423442865E+03 -0.65577950834E+03  0.68341112632E+03  0.12500000000E+03 0.  0.
         25    1    1    2    0    0  0.62839787676E+02 -0.82886608108E+02 -0.46701076752E+03  0.49451297829E+03  0.12500000000E+03 0.  0.
         25    1    1    2    0    0 -0.13994238664E+03 -0.41347820542E+02 -0.10592270215E+04  0.10765130733E+04  0.12500000000E+03 0.  0.
</event>
<event>
 5    0  0.5568866E-005  0.3970878E+03  0.7546771E-02  0.1044793E+00
         21   -1    0    0  502  501  0.00000000000E+00  0.00000000000E+00  0.47660978298E+03  0.47660978298E+03  0.00000000000E+00 0.  1.
         21   -1    0    0  501  502 -0.00000000000E+00 -0.00000000000E+00 -0.33083406921E+03  0.33083406921E+03  0.00000000000E+00 0.  1.
         25    1    1    2    0    0 -0.68785706236E+02  0.83154763682E+02  0.11862832478E+03  0.20333191473E+03  0.12500000000E+03 0.  0.
         25    1    1    2    0    0 -0.17796466340E+03  0.13039048742E+03  0.23375361086E+02  0.25464584845E+03  0.12500000000E+03 0.  0.
         25    1    1    2    0    0  0.24675036963E+03 -0.21354525110E+03  0.37720279016E+01  0.34946608902E+03  0.12500000000E+03 0.  0.
</event>
<event>
 5    0  0.6100325E-005  0.6264016E+03  0.7546771E-02  0.9852096E-01
         21   -1    0    0  502  501  0.00000000000E+00  0.00000000000E+00  0.15699117994E+04  0.15699117994E+04  0.00000000000E+00 0.  1.
         21   -1    0    0  501  502 -0.00000000000E+00 -0.00000000000E+00 -0.24993696191E+03  0.24993696191E+03  0.00000000000E+00 0.  1.
         25    1    1    2    0    0 -0.18660989493E+03  0.31250493874E+02  0.81631010429E+03  0.84722313036E+03  0.12500000000E+03 0.  0.
         25    1    1    2    0    0  0.33877981043E+03  0.62650462932E+02  0.62385133963E+03  0.72354152225E+03  0.12500000000E+03 0.  0.
         25    1    1    2    0    0 -0.15216991550E+03 -0.93900956805E+02 -0.12018660639E+03  0.24908410874E+03  0.12500000000E+03 0.  0.
</event>
<event>
 5    0  0.5568866E-005  0.2305050E+03  0.7546771E-02  0.1126285E+00
         21   -1    0    0  502  501  0.00000000000E+00  0.00000000000E+00  0.24064990100E+02  0.24064990100E+02  0.00000000000E+00 0. -1.
         21   -1    0    0  501  502 -0.00000000000E+00 -0.00000000000E+00 -0.22078785962E+04  0.22078785962E+04  0.00000000000E+00 0. -1.
         25    1    1    2    0    0  0.53583773309E+01  0.13335639576E+02 -0.12408197803E+04  0.12471829371E+04  0.12500000000E+03 0.  0.
         25    1    1    2    0    0 -0.17172485442E+02 -0.67265823582E+02 -0.56544953186E+03  0.58324759610E+03  0.12500000000E+03 0.  0.
         25    1    1    2    0    0  0.11814108111E+02  0.53930184006E+02 -0.37754429399E+03  0.40151305312E+03  0.12500000000E+03 0.  0.
</event>
<event>
 5    0  0.5568866E-005  0.2788883E+03  0.7546771E-02  0.1096298E+00
         21   -1    0    0  502  501  0.00000000000E+00  0.00000000000E+00  0.68722496053E+03  0.68722496053E+03  0.00000000000E+00 0.  1.
         21   -1    0    0  501  502 -0.00000000000E+00 -0.00000000000E+00 -0.11317787376E+03  0.11317787376E+03  0.00000000000E+00 0.  1.
         25    1    1    2    0    0  0.10329594206E+03  0.65468912927E+02  0.15478897386E+03  0.23353983950E+03  0.12500000000E+03 0.  0.
         25    1    1    2    0    0 -0.15360566811E+03  0.49780988699E+02  0.22251344832E+03  0.30201007069E+03  0.12500000000E+03 0.  0.
         25    1    1    2    0    0  0.50309726047E+02 -0.11524990163E+03  0.19674466459E+03  0.26485292410E+03  0.12500000000E+03 0.  0.
</event>
<event>
 5    0  0.5568866E-005  0.4248789E+03  0.7546771E-02  0.1035490E+00
         21   -1    0    0  502  501  0.00000000000E+00  0.00000000000E+00  0.43893234460E+03  0.43893234460E+03  0.00000000000E+00 0.  1.
         21   -1    0    0  501  502 -0.00000000000E+00 -0.00000000000E+00 -0.41127537090E+03  0.41127537090E+03  0.00000000000E+00 0.  1.
         25    1    1    2    0    0  0.75637015796E+02  0.64369786203E+01  0.19882629584E+03  0.24681833151E+03  0.12500000000E+03 0.  0.
         25    1    1    2    0    0 -0.25097279949E+03  0.12316044221E+03 -0.13153716231E+02  0.30651894046E+03  0.12500000000E+03 0.  0.
         25    1    1    2    0    0  0.17533578369E+03 -0.12959742083E+03 -0.15801560591E+03  0.29687044353E+03  0.12500000000E+03 0.  0.
</event>
<event>
 5    0  0.5568866E-005  0.2510403E+03  0.7546771E-02  0.1112649E+00
         21   -1    0    0  502  501  0.00000000000E+00  0.00000000000E+00  0.27629206245E+03  0.27629206245E+03  0.00000000000E+00 0. -1.
         21   -1    0    0  501  502 -0.00000000000E+00 -0.00000000000E+00 -0.22809636081E+03  0.22809636081E+03  0.00000000000E+00 0. -1.
         25    1    1    2    0    0 -0.80951511646E+02 -0.40366967050E+02 -0.48696816079E+02  0.16179931756E+03  0.12500000000E+03 0.  0.
         25    1    1    2    0    0 -0.41346529655E+02  0.73055326120E+02  0.49133241114E+02  0.15838463174E+03  0.12500000000E+03 0.  0.
         25    1    1    2    0    0  0.12229804130E+03 -0.32688359070E+02  0.47759276601E+02  0.18420447396E+03  0.12500000000E+03 0.  0.
</event>
<event>
 5    0  0.5568866E-005  0.3444501E+03  0.7546771E-02  0.1064916E+00
         21   -1    0    0  502  501  0.00000000000E+00  0.00000000000E+00  0.64759324298E+03  0.64759324298E+03  0.00000000000E+00 0.  1.
         21   -1    0    0  501  502 -0.00000000000E+00 -0.00000000000E+00 -0.18321047509E+03  0.18321047509E+03  0.00000000000E+00 0.  1.
         25    1    1    2    0    0  0.73322278093E+02  0.16407777479E+03  0.40825401024E+03  0.46324292712E+03  0.12500000000E+03 0.  0.
         25    1    1    2    0    0 -0.24996223322E+02  0.21357743403E+02  0.50295122142E+02  0.13869233467E+03  0.12500000000E+03 0.  0.
         25    1    1    2    0    0 -0.48326054771E+02 -0.18543551820E+03  0.58336355097E+01  0.22886845628E+03  0.12500000000E+03 0.  0.
</event>
<event>
 5    0  0.5568866E-005  0.3208242E+03  0.7546771E-02  0.1075271E+00
         21   -1    0    0  502  501  0.00000000000E+00  0.00000000000E+00  0.17917742802E+04  0.17917742802E+04  0.00000000000E+00 0.  1.
         21   -1    0    0  501  502 -0.00000000000E+00 -0.00000000000E+00 -0.57444843026E+02  0.57444843026E+02  0.00000000000E+00 0.  1.
         25    1    1    2    0    0 -0.59046989658E+02 -0.29408577340E+02  0.33379553060E+03  0.36248567924E+03  0.12500000000E+03 0.  0.
         25    1    1    2    0    0  0.12719113987E+03 -0.19733655407E+02  0.17049671108E+03  0.24750986184E+03  0.12500000000E+03 0.  0.
         25    1    1    2    0    0 -0.68144150209E+02  0.49142232747E+02  0.12300371955E+04  0.12392235821E+04  0.12500000000E+03 0.  0.
</event>
<event>
 5    0  0.5568866E-005  0.3120318E+03  0.7546771E-02  0.1079376E+00
         21   -1    0    0  502  501  0.00000000000E+00  0.00000000000E+00  0.37525459743E+03  0.37525459743E+03  0.00000000000E+00 0. -1.
         21   -1    0    0  501  502 -0.00000000000E+00 -0.00000000000E+00 -0.25946071861E+03  0.25946071861E+03  0.00000000000E+00 0. -1.
         25    1    1    2    0    0 -0.10815455963E+03  0.69261862484E+01  0.98483065062E+02  0.19253387995E+03  0.12500000000E+03 0.  0.
         25    1    1    2    0    0  0.15365642812E+03 -0.39286876662E+02  0.14998023906E+03  0.25154090858E+03  0.12500000000E+03 0.  0.
         25    1    1    2    0    0 -0.45501868492E+02  0.32360690414E+02 -0.13266942529E+03  0.19064052751E+03  0.12500000000E+03 0.  0.
</event>
<event>
 5    0  0.6097753E-005  0.3032336E+03  0.7546771E-02  0.1083635E+00
         21   -1    0    0  502  501  0.00000000000E+00  0.00000000000E+00  0.42038969267E+03  0.42038969267E+03  0.00000000000E+00 0. -1.
         21   -1    0    0  501  502 -0.00000000000E+00 -0.00000000000E+00 -0.21872708538E+03  0.21872708538E+03  0.00000000000E+00 0. -1.
         25    1    1    2    0    0 -0.14096211811E+03 -0.90768103454E+01 -0.94801164360E+01  0.18885862393E+03  0.12500000000E+03 0.  0.
         25    1    1    2    0    0  0.99554308808E+02 -0.58161786736E+02  0.24532810227E+03  0.29850415676E+03  0.12500000000E+03 0.  0.
         25    1    1    2    0    0  0.41407809297E+02  0.67238597081E+02 -0.34185378548E+02  0.15175399736E+03  0.12500000000E+03 0.  0.
</event>
<event>
 5    0  0.5568866E-005  0.3085569E+03  0.7546771E-02  0.1081040E+00
         21   -1    0    0  502  501  0.00000000000E+00  0.00000000000E+00  0.39588889782E+03  0.39588889782E+03  0.00000000000E+00 0.  1.
         21   -1    0    0  501  502 -0.00000000000E+00 -0.00000000000E+00 -0.24049009097E+03  0.24049009097E+03  0.00000000000E+00 0.  1.
         25    1    1    2    0    0  0.12631367953E+03 -0.99384056838E+02  0.23758664997E+03  0.31289735159E+03  0.12500000000E+03 0.  0.
         25    1    1    2    0    0 -0.18624813616E+02  0.57564875127E+02 -0.61987948711E+02  0.15207926984E+03  0.12500000000E+03 0.  0.
         25    1    1    2    0    0 -0.10768886592E+03  0.41819181712E+02 -0.20199894409E+02  0.17140236736E+03  0.12500000000E+03 0.  0.
</event>
<event>
 5    0  0.5568866E-005  0.2966582E+03  0.7546771E-02  0.1086923E+00
         21   -1    0    0  502  501  0.00000000000E+00  0.00000000000E+00  0.73294814365E+02  0.73294814365E+02  0.00000000000E+00 0. -1.
         21   -1    0    0  501  502 -0.00000000000E+00 -0.00000000000E+00 -0.12007134969E+04  0.12007134969E+04  0.00000000000E+00 0. -1.
         25    1    1    2    0    0  0.36503898539E+02 -0.40420067566E+02 -0.55278872549E+03  0.56935638356E+03  0.12500000000E+03 0.  0.
         25    1    1    2    0    0  0.10868276336E+03 -0.59299669123E+02 -0.16318661161E+03  0.23996513084E+03  0.12500000000E+03 0.  0.
         25    1    1    2    0    0 -0.14518666190E+03  0.99719736690E+02 -0.41144334542E+03  0.46468679685E+03  0.12500000000E+03 0.  0.
</event>
<event>
 5    0  0.5568866E-005  0.3401781E+03  0.7546771E-02  0.1066720E+00
         21   -1    0    0  502  501  0.00000000000E+00  0.00000000000E+00  0.53716040476E+03  0.53716040476E+03  0.00000000000E+00 0.  1.
         21   -1    0    0  501  502 -0.00000000000E+00 -0.00000000000E+00 -0.21543123781E+03  0.21543123781E+03  0.00000000000E+00 0.  1.
         25    1    1    2    0    0  0.82975116104E+02 -0.16853662169E+02  0.27572825699E+03  0.31435646570E+03  0.12500000000E+03 0.  0.
         25    1    1    2    0    0  0.43635945604E+02  0.22772537151E+02  0.17338165668E+03  0.21933737272E+03  0.12500000000E+03 0.  0.
         25    1    1    2    0    0 -0.12661106171E+03 -0.59188749819E+01 -0.12738074673E+03  0.21889780416E+03  0.12500000000E+03 0.  0.
</event>
<event>
 5    0  0.5568866E-005  0.2918519E+03  0.7546771E-02  0.1089386E+00
         21   -1    0    0  502  501  0.00000000000E+00  0.00000000000E+00  0.98364745535E+03  0.98364745535E+03  0.00000000000E+00 0. -1.
         21   -1    0    0  501  502 -0.00000000000E+00 -0.00000000000E+00 -0.86593577645E+02  0.86593577645E+02  0.00000000000E+00 0. -1.
         25    1    1    2    0    0  0.90344573015E+02 -0.19354849246E+02  0.35225875558E+03  0.38502984683E+03  0.12500000000E+03 0.  0.
         25    1    1    2    0    0 -0.18697158366E+02  0.90755214076E+02  0.49191925688E+03  0.51594151597E+03  0.12500000000E+03 0.  0.
         25    1    1    2    0    0 -0.71647414649E+02 -0.71400364830E+02  0.52875865242E+02  0.16926967020E+03  0.12500000000E+03 0.  0.
</event>
<event>
 5    0  0.5568866E-005  0.2726413E+03  0.7546771E-02  0.1099777E+00
         21   -1    0    0  502  501  0.00000000000E+00  0.00000000000E+00  0.70023008924E+02  0.70023008924E+02  0.00000000000E+00 0. -1.
         21   -1    0    0  501  502 -0.00000000000E+00 -0.00000000000E+00 -0.10615549237E+04  0.10615549237E+04  0.00000000000E+00 0. -1.
         25    1    1    2    0    0  0.30203141179E+02  0.48496461869E+01 -0.26287206539E+03  0.29268151901E+03  0.12500000000E+03 0.  0.
         25    1    1    2    0    0  0.12644773429E+03 -0.36432892388E+02 -0.18749990443E+03  0.26095516726E+03  0.12500000000E+03 0.  0.
         25    1    1    2    0    0 -0.15665087547E+03  0.31583246201E+02 -0.54115994492E+03  0.57794124633E+03  0.12500000000E+03 0.  0.
</event>
<event>
 5    0  0.5568866E-005  0.5300897E+03  0.7546771E-02  0.1006210E+00
         21   -1    0    0  502  501  0.00000000000E+00  0.00000000000E+00  0.62251342196E+03  0.62251342196E+03  0.00000000000E+00 0. -1.
         21   -1    0    0  501  502 -0.00000000000E+00 -0.00000000000E+00 -0.45138806477E+03  0.45138806477E+03  0.00000000000E+00 0. -1.
         25    1    1    2    0    0  0.17765690674E+03  0.26552137673E+03  0.50211739622E+02  0.34671284488E+03  0.12500000000E+03 0.  0.
         25    1    1    2    0    0  0.64638195469E+02  0.15868817907E+03  0.50531284450E+02  0.21803312867E+03  0.12500000000E+03 0.  0.
         25    1    1    2    0    0 -0.24229510221E+03 -0.42420955579E+03  0.70382333122E+02  0.50915551318E+03  0.12500000000E+03 0.  0.
</event>
<event>
 5    0  0.5568866E-005  0.2356449E+03  0.7546771E-02  0.1122729E+00
         21   -1    0    0  502  501  0.00000000000E+00  0.00000000000E+00  0.14301143149E+04  0.14301143149E+04  0.00000000000E+00 0.  1.
         21   -1    0    0  501  502 -0.00000000000E+00 -0.00000000000E+00 -0.38828020890E+02  0.38828020890E+02  0.00000000000E+00 0.  1.
         25    1    1    2    0    0  0.92302148237E+02 -0.12594344259E+02  0.53000720623E+03  0.55245899643E+03  0.12500000000E+03 0.  0.
         25    1    1    2    0    0  0.84853054201E+01  0.59501377983E+02  0.29437916641E+03  0.32541743654E+03  0.12500000000E+03 0.  0.
         25    1    1    2    0    0 -0.10078745366E+03 -0.46907033724E+02  0.56689992134E+03  0.59106590279E+03  0.12500000000E+03 0.  0.
</event>
<event>
 5    0  0.5568866E-005  0.3186786E+03  0.7546771E-02  0.1076259E+00
         21   -1    0    0  502  501  0.00000000000E+00  0.00000000000E+00  0.74212589827E+02  0.74212589827E+02  0.00000000000E+00 0. -1.
         21   -1    0    0  501  502 -0.00000000000E+00 -0.00000000000E+00 -0.13684474192E+04  0.13684474192E+04  0.00000000000E+00 0. -1.
         25    1    1    2    0    0  0.10269463000E+03  0.11070699427E+03 -0.28114245908E+03  0.34273649924E+03  0.12500000000E+03 0.  0.
         25    1    1    2    0    0 -0.12115402917E+03  0.16806575131E+02 -0.19315913739E+03  0.26056901602E+03  0.12500000000E+03 0.  0.
         25    1    1    2    0    0  0.18459399164E+02 -0.12751356940E+03 -0.81993323294E+03  0.83935449381E+03  0.12500000000E+03 0.  0.
</event>
<event>
 5    0  0.5568866E-005  0.2456036E+03  0.7546771E-02  0.1116115E+00
         21   -1    0    0  502  501  0.00000000000E+00  0.00000000000E+00  0.75817326620E+03  0.75817326620E+03  0.00000000000E+00 0.  1.
         21   -1    0    0  501  502 -0.00000000000E+00 -0.00000000000E+00 -0.79561113556E+02  0.79561113556E+02  0.00000000000E+00 0.  1.
         25    1    1    2    0    0  0.33349616007E+02  0.19184569991E+02  0.21343263176E+03  0.25031726451E+03  0.12500000000E+03 0.  0.
         25    1    1    2    0    0 -0.25657067130E+02  0.77946241351E+01  0.43823875887E+03  0.45650547755E+03  0.12500000000E+03 0.  0.
         25    1    1    2    0    0 -0.76925488762E+01 -0.26979194126E+02  0.26940762011E+02  0.13091163769E+03  0.12500000000E+03 0.  0.
</event>
<event>
 5    0  0.5568866E-005  0.3366605E+03  0.7546771E-02  0.1068227E+00
         21   -1    0    0  502  501  0.00000000000E+00  0.00000000000E+00  0.10000055386E+04  0.10000055386E+04  0.00000000000E+00 0. -1.
         21   -1    0    0  501  502 -0.00000000000E+00 -0.00000000000E+00 -0.11333965371E+03  0.11333965371E+03  0.00000000000E+00 0. -1.
         25    1    1    2    0    0  0.13750080367E+03 -0.19135850712E+03  0.55243991175E+03  0.61346508079E+03  0.12500000000E+03 0.  0.
         25    1    1    2    0    0 -0.10597355954E+03  0.15091700032E+03  0.27069038838E+03  0.35057755585E+03  0.12500000000E+03 0.  0.
         25    1    1    2    0    0 -0.31527244135E+02  0.40441506800E+02  0.63535584744E+02  0.14930255565E+03  0.12500000000E+03 0.  0.
</event>
<event>
 5    0  0.5568866E-005  0.3248312E+03  0.7546771E-02  0.1073447E+00
         21   -1    0    0  502  501  0.00000000000E+00  0.00000000000E+00  0.53656970228E+03  0.53656970228E+03  0.00000000000E+00 0.  1.
         21   -1    0    0  501  502 -0.00000000000E+00 -0.00000000000E+00 -0.19664792251E+03  0.19664792251E+03  0.00000000000E+00 0.  1.
         25    1    1    2    0    0 -0.70498692730E+02 -0.20011553337E+03  0.13664316095E+03  0.28162500920E+03  0.12500000000E+03 0.  0.
         25    1    1    2    0    0  0.10778415866E+03  0.22211933096E+01  0.10045800249E+03  0.19323345679E+03  0.12500000000E+03 0.  0.
         25    1    1    2    0    0 -0.37285465930E+02  0.19789434006E+03  0.10282061632E+03  0.25835915880E+03  0.12500000000E+03 0.  0.
</event>
<event>
 5    0  0.6196594E-005  0.4093236E+03  0.7546771E-02  0.1040598E+00
         21   -1    0    0  502  501  0.00000000000E+00  0.00000000000E+00  0.91365177329E+03  0.91365177329E+03  0.00000000000E+00 0. -1.
         21   -1    0    0  501  502 -0.00000000000E+00 -0.00000000000E+00 -0.18338035921E+03  0.18338035921E+03  0.00000000000E+00 0. -1.
         25    1    1    2    0    0 -0.61812722933E+02  0.11486127799E+03 -0.69322485222E+02  0.19350589876E+03  0.12500000000E+03 0.  0.
         25    1    1    2    0    0 -0.56238276928E+02  0.51862685497E+02  0.49392182819E+03  0.51520506043E+03  0.12500000000E+03 0.  0.
         25    1    1    2    0    0  0.11805099986E+03 -0.16672396349E+03  0.30567207112E+03  0.38832117330E+03  0.12500000000E+03 0.  0.
</event>
<event>
 5    0  0.5568866E-005  0.3037464E+03  0.7546771E-02  0.1083383E+00
         21   -1    0    0  502  501  0.00000000000E+00  0.00000000000E+00  0.28804657097E+03  0.28804657097E+03  0.00000000000E+00 0. -1.
         21   -1    0    0  501  502 -0.00000000000E+00 -0.00000000000E+00 -0.32030202964E+03  0.32030202964E+03  0.00000000000E+00 0. -1.
         25    1    1    2    0    0  0.18688704005E+03 -0.63935560893E+02 -0.11002888016E+02  0.23400979730E+03  0.12500000000E+03 0.  0.
         25    1    1    2    0    0 -0.68713682545E+02 -0.25462532466E+02  0.69014619160E+02  0.16049276740E+03  0.12500000000E+03 0.  0.
         25    1    1    2    0    0 -0.11817335751E+03  0.89398093358E+02 -0.90267189808E+02  0.21384603592E+03  0.12500000000E+03 0.  0.
</event>
<event>
 5    0  0.5568866E-005  0.3461322E+03  0.7546771E-02  0.1064214E+00
         21   -1    0    0  502  501  0.00000000000E+00  0.00000000000E+00  0.22497603561E+03  0.22497603561E+03  0.00000000000E+00 0.  1.
         21   -1    0    0  501  502 -0.00000000000E+00 -0.00000000000E+00 -0.53253452738E+03  0.53253452738E+03  0.00000000000E+00 0.  1.
         25    1    1    2    0    0  0.11315352703E+02  0.26812400745E+02  0.44015090302E+02  0.13568076582E+03  0.12500000000E+03 0.  0.
         25    1    1    2    0    0 -0.16530405033E+03  0.46018023849E+02 -0.35139440583E+03  0.41054368345E+03  0.12500000000E+03 0.  0.
         25    1    1    2    0    0  0.15398869763E+03 -0.72830424594E+02 -0.17917623692E+00  0.21128611371E+03  0.12500000000E+03 0.  0.
</event>
<event>
 5    0  0.5568866E-005  0.3404474E+03  0.7546771E-02  0.1066606E+00
         21   -1    0    0  502  501  0.00000000000E+00  0.00000000000E+00  0.16240505084E+03  0.16240505084E+03  0.00000000000E+00 0.  1.
         21   -1    0    0  501  502 -0.00000000000E+00 -0.00000000000E+00 -0.71367521151E+03  0.71367521151E+03  0.00000000000E+00 0.  1.
         25    1    1    2    0    0  0.42195540206E+02  0.22505331549E+02 -0.84405239247E+02  0.15822830965E+03  0.12500000000E+03 0.  0.
         25    1    1    2    0    0 -0.22270718013E+02 -0.11238472668E+03 -0.52529004296E+03  0.55197911274E+03  0.12500000000E+03 0.  0.
         25    1    1    2    0    0 -0.19924822194E+02  0.89879395128E+02  0.58425121539E+02  0.16587283996E+03  0.12500000000E+03 0.  0.
</event>
<event>
 5    0  0.5568866E-005  0.2606449E+03  0.7546771E-02  0.1106756E+00
         21   -1    0    0  502  501  0.00000000000E+00  0.00000000000E+00  0.37103581804E+03  0.37103581804E+03  0.00000000000E+00 0.  1.
         21   -1    0    0  501  502 -0.00000000000E+00 -0.00000000000E+00 -0.18309757687E+03  0.18309757687E+03  0.00000000000E+00 0.  1.
         25    1    1    2    0    0 -0.35726696173E+02 -0.87089114251E+02  0.46233979452E+02  0.16316706621E+03  0.12500000000E+03 0.  0.
         25    1    1    2    0    0  0.11752501666E+03  0.43550697410E+02  0.15434441203E+03  0.23485312498E+03  0.12500000000E+03 0.  0.
         25    1    1    2    0    0 -0.81798320485E+02  0.43538416841E+02 -0.12640150324E+02  0.15611320372E+03  0.12500000000E+03 0.  0.
</event>
<event>
 5    0  0.5568866E-005  0.3200043E+03  0.7546771E-02  0.1075647E+00
         21   -1    0    0  502  501  0.00000000000E+00  0.00000000000E+00  0.12104360139E+04  0.12104360139E+04  0.00000000000E+00 0. -1.
         21   -1    0    0  501  502 -0.00000000000E+00 -0.00000000000E+00 -0.84599913703E+02  0.84599913703E+02  0.00000000000E+00 0. -1.
         25    1    1    2    0    0 -0.79647955332E+02 -0.12339008943E+03  0.36318927514E+03  0.41121814227E+03  0.12500000000E+03 0.  0.
         25    1    1    2    0    0  0.11830998801E+03  0.19849079401E+03  0.30817400928E+03  0.40495934187E+03  0.12500000000E+03 0.  0.
         25    1    1    2    0    0 -0.38662032676E+02 -0.75100704581E+02  0.45447281577E+03  0.47885844346E+03  0.12500000000E+03 0.  0.
</event>
<event>
 5    0  0.5568866E-005  0.3380846E+03  0.7546771E-02  0.1067615E+00
         21   -1    0    0  502  501  0.00000000000E+00  0.00000000000E+00  0.19828010289E+03  0.19828010289E+03  0.00000000000E+00 0. -1.
         21   -1    0    0  501  502 -0.00000000000E+00 -0.00000000000E+00 -0.57646316633E+03  0.57646316633E+03  0.00000000000E+00 0. -1.
         25    1    1    2    0    0 -0.83077698550E+02  0.22258844572E+03 -0.21537030625E+03  0.34417566587E+03  0.12500000000E+03 0.  0.
         25    1    1    2    0    0  0.10181358438E+03 -0.18258760353E+03 -0.34391155639E+02  0.24599185051E+03  0.12500000000E+03 0.  0.
         25    1    1    2    0    0 -0.18735885831E+02 -0.40000842186E+02 -0.12842160156E+03  0.18457575285E+03  0.12500000000E+03 0.  0.
</event>
<event>
 5    0  0.5568866E-005  0.2233985E+03  0.7546771E-02  0.1131374E+00
         21   -1    0    0  502  501  0.00000000000E+00  0.00000000000E+00  0.77453043997E+02  0.77453043997E+02  0.00000000000E+00 0.  1.
         21   -1    0    0  501  502 -0.00000000000E+00 -0.00000000000E+00 -0.64435039019E+03  0.64435039019E+03  0.00000000000E+00 0.  1.
         25    1    1    2    0    0  0.72183057976E+01  0.71667070147E+02 -0.95630433853E+02  0.17308510265E+03  0.12500000000E+03 0.  0.
         25    1    1    2    0    0  0.34212134388E+02 -0.11034926892E+02 -0.27983449630E+03  0.30858481017E+03  0.12500000000E+03 0.  0.
         25    1    1    2    0    0 -0.41430440186E+02 -0.60632143255E+02 -0.19143241604E+03  0.24013352136E+03  0.12500000000E+03 0.  0.
</event>
<event>
 5    0  0.5568866E-005  0.2735458E+03  0.7546771E-02  0.1099267E+00
         21   -1    0    0  502  501  0.00000000000E+00  0.00000000000E+00  0.42430214506E+03  0.42430214506E+03  0.00000000000E+00 0. -1.
         21   -1    0    0  501  502 -0.00000000000E+00 -0.00000000000E+00 -0.17635383814E+03  0.17635383814E+03  0.00000000000E+00 0. -1.
         25    1    1    2    0    0 -0.43728368494E+02  0.50403587136E+02  0.33568324193E+02  0.14561773311E+03  0.12500000000E+03 0.  0.
         25    1    1    2    0    0 -0.83014766567E+02  0.43597919564E+02 -0.62306966743E+01  0.15638430752E+03  0.12500000000E+03 0.  0.
         25    1    1    2    0    0  0.12674313506E+03 -0.94001506701E+02  0.22061067940E+03  0.29865394257E+03  0.12500000000E+03 0.  0.
</event>
<event>
 5    0  0.5568866E-005  0.3070302E+03  0.7546771E-02  0.1081778E+00
         21   -1    0    0  502  501  0.00000000000E+00  0.00000000000E+00  0.44445239422E+03  0.44445239422E+03  0.00000000000E+00 0. -1.
         21   -1    0    0  501  502 -0.00000000000E+00 -0.00000000000E+00 -0.21209823390E+03  0.21209823390E+03  0.00000000000E+00 0. -1.
         25    1    1    2    0    0 -0.11683085761E+03  0.74664439603E+02  0.11352586793E+03  0.21848878808E+03  0.12500000000E+03 0.  0.
         25    1    1    2    0    0 -0.71301316836E+02  0.44841096464E+02 -0.11572762536E+02  0.15117384214E+03  0.12500000000E+03 0.  0.
         25    1    1    2    0    0  0.18813217444E+03 -0.11950553607E+03  0.13040105493E+03  0.28688799790E+03  0.12500000000E+03 0.  0.
</event>
<event>
 5    0  0.5568866E-005  0.2790532E+03  0.7546771E-02  0.1096207E+00
         21   -1    0    0  502  501  0.00000000000E+00  0.00000000000E+00  0.36358450222E+03  0.36358450222E+03  0.00000000000E+00 0. -1.
         21   -1    0    0  501  502 -0.00000000000E+00 -0.00000000000E+00 -0.21417486955E+03  0.21417486955E+03  0.00000000000E+00 0. -1.
         25    1    1    2    0    0 -0.12065498483E+03 -0.17727587396E+02  0.57826060484E+02  0.18395854422E+03  0.12500000000E+03 0.  0.
         25    1    1    2    0    0 -0.78572746425E+01 -0.97829716832E+02  0.85401195337E+02  0.18041827631E+03  0.12500000000E+03 0.  0.
         25    1    1    2    0    0  0.12851225947E+03  0.11555730423E+03  0.61823768423E+01  0.21338255125E+03  0.12500000000E+03 0.  0.
</event>
<event>
 5    0  0.5568866E-005  0.3374843E+03  0.7546771E-02  0.1067872E+00
         21   -1    0    0  502  501  0.00000000000E+00  0.00000000000E+00  0.20540832117E+03  0.20540832117E+03  0.00000000000E+00 0. -1.
         21   -1    0    0  501  502 -0.00000000000E+00 -0.00000000000E+00 -0.55448405138E+03  0.55448405138E+03  0.00000000000E+00 0. -1.
         25    1    1    2    0    0  0.50481756663E+02 -0.22738116469E+03 -0.95775095284E+02  0.28115559871E+03  0.12500000000E+03 0.  0.
         25    1    1    2    0    0 -0.61420186266E+02  0.41878248615E+02 -0.66574729455E+01  0.14558691196E+03  0.12500000000E+03 0.  0.
         25    1    1    2    0    0  0.10938429603E+02  0.18550291607E+03 -0.24664316199E+03  0.33314986188E+03  0.12500000000E+03 0.  0.
</event>
<event>
 5    0  0.5684075E-005  0.3058960E+03  0.7546771E-02  0.1082330E+00
         21   -1    0    0  502  501  0.00000000000E+00  0.00000000000E+00  0.17924009398E+03  0.17924009398E+03  0.00000000000E+00 0. -1.
         21   -1    0    0  501  502 -0.00000000000E+00 -0.00000000000E+00 -0.52205046357E+03  0.52205046357E+03  0.00000000000E+00 0. -1.
         25    1    1    2    0    0  0.65725187345E+02 -0.15111931485E+03 -0.13647261774E+03  0.24780359756E+03  0.12500000000E+03 0.  0.
         25    1    1    2    0    0  0.37655252212E+01  0.18882332257E+02 -0.22469122171E+03  0.25784077793E+03  0.12500000000E+03 0.  0.
         25    1    1    2    0    0 -0.69490712566E+02  0.13223698259E+03  0.18353469852E+02  0.19564618206E+03  0.12500000000E+03 0.  0.
</event>
<event>
 5    0  0.5568866E-005  0.3504265E+03  0.7546771E-02  0.1062440E+00
         21   -1    0    0  502  501  0.00000000000E+00  0.00000000000E+00  0.21015577254E+03  0.21015577254E+03  0.00000000000E+00 0. -1.
         21   -1    0    0  501  502 -0.00000000000E+00 -0.00000000000E+00 -0.58432239348E+03  0.58432239348E+03  0.00000000000E+00 0. -1.
         25    1    1    2    0    0 -0.57070393202E+02 -0.23232190501E+02 -0.25132710819E+03  0.28737967877E+03  0.12500000000E+03 0.  0.
         25    1    1    2    0    0  0.12733532475E+03  0.88109857542E+02  0.10898680960E+03  0.22689371210E+03  0.12500000000E+03 0.  0.
         25    1    1    2    0    0 -0.70264931544E+02 -0.64877667041E+02 -0.23182632235E+03  0.28020477515E+03  0.12500000000E+03 0.  0.
</event>
<event>
 5    0  0.5568866E-005  0.3537493E+03  0.7546771E-02  0.1061087E+00
         21   -1    0    0  502  501  0.00000000000E+00  0.00000000000E+00  0.21820503665E+03  0.21820503665E+03  0.00000000000E+00 0.  1.
         21   -1    0    0  501  502 -0.00000000000E+00 -0.00000000000E+00 -0.57349059483E+03  0.57349059483E+03  0.00000000000E+00 0.  1.
         25    1    1    2    0    0 -0.40504313598E+02  0.10566629547E+03 -0.10638475325E+03  0.19937071285E+03  0.12500000000E+03 0.  0.
         25    1    1    2    0    0  0.20335404938E+03 -0.19117227026E+03 -0.19758273202E+03  0.36409290340E+03  0.12500000000E+03 0.  0.
         25    1    1    2    0    0 -0.16284973578E+03  0.85505974789E+02 -0.51318072902E+02  0.22823201523E+03  0.12500000000E+03 0.  0.
</event>
<event>
 5    0  0.5568866E-005  0.2438042E+03  0.7546771E-02  0.1117284E+00
         21   -1    0    0  502  501  0.00000000000E+00  0.00000000000E+00  0.43868483677E+03  0.43868483677E+03  0.00000000000E+00 0.  1.
         21   -1    0    0  501  502 -0.00000000000E+00 -0.00000000000E+00 -0.13549705906E+03  0.13549705906E+03  0.00000000000E+00 0.  1.
         25    1    1    2    0    0 -0.48556312971E+02  0.11166517669E+03  0.68396807117E+02  0.18742985471E+03  0.12500000000E+03 0.  0.
         25    1    1    2    0    0  0.63455624229E+02 -0.48763343230E+01  0.86133498706E+02  0.16460368915E+03  0.12500000000E+03 0.  0.
         25    1    1    2    0    0 -0.14899311258E+02 -0.10678884237E+03  0.14865747189E+03  0.22214835196E+03  0.12500000000E+03 0.  0.
</event>
<event>
 5    0  0.5568866E-005  0.4764353E+03  0.7546771E-02  0.1020119E+00
         21   -1    0    0  502  501  0.00000000000E+00  0.00000000000E+00  0.67579027240E+03  0.67579027240E+03  0.00000000000E+00 0.  1.
         21   -1    0    0  501  502 -0.00000000000E+00 -0.00000000000E+00 -0.33588914656E+03  0.33588914656E+03  0.00000000000E+00 0.  1.
         25    1    1    2    0    0  0.36495257091E+02  0.14448855586E+03  0.11303539604E+03  0.22496854741E+03  0.12500000000E+03 0.  0.
         25    1    1    2    0    0  0.64604563191E+02  0.16904348542E+03  0.35008323102E+03  0.41344010230E+03  0.12500000000E+03 0.  0.
         25    1    1    2    0    0 -0.10109982028E+03 -0.31353204128E+03 -0.12321750122E+03  0.37327076925E+03  0.12500000000E+03 0.  0.
</event>
<event>
 5    0  0.5568866E-005  0.5212158E+03  0.7546771E-02  0.1008385E+00
         21   -1    0    0  502  501  0.00000000000E+00  0.00000000000E+00  0.94981284566E+03  0.94981284566E+03  0.00000000000E+00 0.  1.
         21   -1    0    0  501  502 -0.00000000000E+00 -0.00000000000E+00 -0.28602046880E+03  0.28602046880E+03  0.00000000000E+00 0.  1.
         25    1    1    2    0    0 -0.14571377403E+02  0.41959824369E+02 -0.91330013654E+02  0.16105627369E+03  0.12500000000E+03 0.  0.
         25    1    1    2    0    0  0.28101444055E+02  0.59617035194E+02  0.86684537878E+03  0.87828798965E+03  0.12500000000E+03 0.  0.
         25    1    1    2    0    0 -0.13530066652E+02 -0.10157685956E+03 -0.11172298827E+03  0.19648905112E+03  0.12500000000E+03 0.  0.
</event>
<event>
 5    0  0.5568866E-005  0.4512352E+03  0.7546771E-02  0.1027354E+00
         21   -1    0    0  502  501  0.00000000000E+00  0.00000000000E+00  0.10920730710E+04  0.10920730710E+04  0.00000000000E+00 0.  1.
         21   -1    0    0  501  502 -0.00000000000E+00 -0.00000000000E+00 -0.18644647044E+03  0.18644647044E+03  0.00000000000E+00 0.  1.
         25    1    1    2    0    0  0.12827180498E+03  0.28790546565E+03  0.36001001595E+03  0.49454567503E+03  0.12500000000E+03 0.  0.
         25    1    1    2    0    0 -0.91285482311E+02  0.73313240561E+02  0.11142754819E+03  0.20432564454E+03  0.12500000000E+03 0.  0.
         25    1    1    2    0    0 -0.36986322666E+02 -0.36121870621E+03  0.43418903643E+03  0.57964822189E+03  0.12500000000E+03 0.  0.
</event>
<event>
 5    0  0.5568866E-005  0.3229987E+03  0.7546771E-02  0.1074277E+00
         21   -1    0    0  502  501  0.00000000000E+00  0.00000000000E+00  0.48322431020E+03  0.48322431020E+03  0.00000000000E+00 0. -1.
         21   -1    0    0  501  502 -0.00000000000E+00 -0.00000000000E+00 -0.21590006500E+03  0.21590006500E+03  0.00000000000E+00 0. -1.
         25    1    1    2    0    0 -0.13862038521E+02 -0.94199870795E+02  0.21052338757E+03  0.26269919772E+03  0.12500000000E+03 0.  0.
         25    1    1    2    0    0 -0.42300407223E+02  0.14691294680E+02 -0.13385034549E+03  0.18853666375E+03  0.12500000000E+03 0.  0.
         25    1    1    2    0    0  0.56162445744E+02  0.79508576114E+02  0.19065120313E+03  0.24788851373E+03  0.12500000000E+03 0.  0.
</event>
<event>
 5    0  0.5568866E-005  0.4653421E+03  0.7546771E-02  0.1023243E+00
         21   -1    0    0  502  501  0.00000000000E+00  0.00000000000E+00  0.12050676533E+03  0.12050676533E+03  0.00000000000E+00 0. -1.
         21   -1    0    0  501  502 -0.00000000000E+00 -0.00000000000E+00 -0.17969390450E+04  0.17969390450E+04  0.00000000000E+00 0. -1.
         25    1    1    2    0    0  0.12684325541E+02  0.24168431707E+03 -0.10932723159E+03  0.29351259735E+03  0.12500000000E+03 0.  0.
         25    1    1    2    0    0  0.91774575786E+02 -0.69079496579E+02 -0.42947913738E+03  0.46181368435E+03  0.12500000000E+03 0.  0.
         25    1    1    2    0    0 -0.10445890133E+03 -0.17260482050E+03 -0.11376259107E+04  0.11621195286E+04  0.12500000000E+03 0.  0.
</event>
<event>
 5    0  0.5568866E-005  0.4829397E+03  0.7546771E-02  0.1018330E+00
         21   -1    0    0  502  501  0.00000000000E+00  0.00000000000E+00  0.43876489342E+03  0.43876489342E+03  0.00000000000E+00 0.  1.
         21   -1    0    0  501  502 -0.00000000000E+00 -0.00000000000E+00 -0.53156206799E+03  0.53156206799E+03  0.00000000000E+00 0.  1.
         25    1    1    2    0    0  0.62856612471E+02  0.19702420291E+03  0.12981626881E+02  0.24199796053E+03  0.12500000000E+03 0.  0.
         25    1    1    2    0    0  0.23868862592E+03 -0.24292052975E+03  0.45529600295E+02  0.36562356108E+03  0.12500000000E+03 0.  0.
         25    1    1    2    0    0 -0.30154523839E+03  0.45896326840E+02 -0.15130840175E+03  0.36270543979E+03  0.12500000000E+03 0.  0.
</event>
<event>
 5    0  0.5568866E-005  0.3852862E+03  0.7546771E-02  0.1048997E+00
         21   -1    0    0  502  501  0.00000000000E+00  0.00000000000E+00  0.66082809809E+03  0.66082809809E+03  0.00000000000E+00 0.  1.
         21   -1    0    0  501  502 -0.00000000000E+00 -0.00000000000E+00 -0.22463548211E+03  0.22463548211E+03  0.00000000000E+00 0.  1.
         25    1    1    2    0    0  0.32363100281E+02  0.18707418277E+03  0.31112543811E+03  0.38531566067E+03  0.12500000000E+03 0.  0.
         25    1    1    2    0    0  0.15214947991E+03 -0.16544099949E+03  0.38363910125E+02  0.26003264823E+03  0.12500000000E+03 0.  0.
         25    1    1    2    0    0 -0.18451258019E+03 -0.21633183285E+02  0.86703267749E+02  0.24011527129E+03  0.12500000000E+03 0.  0.
</event>
<event>
 5    0  0.5568866E-005  0.3599305E+03  0.7546771E-02  0.1058611E+00
         21   -1    0    0  502  501  0.00000000000E+00  0.00000000000E+00  0.12636566115E+03  0.12636566115E+03  0.00000000000E+00 0. -1.
         21   -1    0    0  501  502 -0.00000000000E+00 -0.00000000000E+00 -0.10251992695E+04  0.10251992695E+04  0.00000000000E+00 0.  1.
         25    1    1    2    0    0 -0.21141549287E+03  0.41331352832E+02 -0.46223462481E+03  0.52506251030E+03  0.12500000000E+03 0.  0.
         25    1    1    2    0    0 -0.39097684671E+02 -0.89319784692E+01 -0.34972801013E+02  0.13585472387E+03  0.12500000000E+03 0.  0.
         25    1    1    2    0    0  0.25051317754E+03 -0.32399374363E+02 -0.40162618251E+03  0.49064769647E+03  0.12500000000E+03 0.  0.
</event>
<event>
 5    0  0.5568866E-005  0.2706220E+03  0.7546771E-02  0.1100924E+00
         21   -1    0    0  502  501  0.00000000000E+00  0.00000000000E+00  0.30702549083E+02  0.30702549083E+02  0.00000000000E+00 0.  1.
         21   -1    0    0  501  502 -0.00000000000E+00 -0.00000000000E+00 -0.23853478993E+04  0.23853478993E+04  0.00000000000E+00 0.  1.
         25    1    1    2    0    0 -0.49866365479E+02  0.39397638004E+02 -0.71718133586E+03  0.73076186052E+03  0.12500000000E+03 0.  0.
         25    1    1    2    0    0  0.53598688648E+02  0.19988156239E+01 -0.20041577251E+03  0.24221539290E+03  0.12500000000E+03 0.  0.
         25    1    1    2    0    0 -0.37323231693E+01 -0.41396453628E+02 -0.14370482418E+04  0.14430731949E+04  0.12500000000E+03 0.  0.
</event>
<event>
 5    0  0.5568866E-005  0.2575928E+03  0.7546771E-02  0.1108598E+00
         21   -1    0    0  502  501  0.00000000000E+00  0.00000000000E+00  0.84764849413E+03  0.84764849413E+03  0.00000000000E+00 0.  1.
         21   -1    0    0  501  502 -0.00000000000E+00 -0.00000000000E+00 -0.78280123314E+02  0.78280123314E+02  0.00000000000E+00 0.  1.
         25    1    1    2    0    0  0.21701269243E+02  0.51465244498E+02  0.79564623719E+02  0.15835133667E+03  0.12500000000E+03 0.  0.
         25    1    1    2    0    0 -0.64817276934E+02  0.64300581847E+02  0.39660581460E+03  0.42574289940E+03  0.12500000000E+03 0.  0.
         25    1    1    2    0    0  0.43116007691E+02 -0.11576582634E+03  0.29319793249E+03  0.34183438137E+03  0.12500000000E+03 0.  0.
</event>
<event>
 5    0  0.5568866E-005  0.3610519E+03  0.7546771E-02  0.1058168E+00
         21   -1    0    0  502  501  0.00000000000E+00  0.00000000000E+00  0.62196278996E+03  0.62196278996E+03  0.00000000000E+00 0.  1.
         21   -1    0    0  501  502 -0.00000000000E+00 -0.00000000000E+00 -0.20959207093E+03  0.20959207093E+03  0.00000000000E+00 0.  1.
         25    1    1    2    0    0  0.28839519253E+02  0.58247232805E+02 -0.10371088264E+03  0.17494400584E+03  0.12500000000E+03 0.  0.
         25    1    1    2    0    0 -0.13395168997E+03 -0.78207369752E+02  0.13255569166E+03  0.23928113031E+03  0.12500000000E+03 0.  0.
         25    1    1    2    0    0  0.10511217072E+03  0.19960136947E+02  0.38352591001E+03  0.41732972474E+03  0.12500000000E+03 0.  0.
</event>
<event>
 5    0  0.5568866E-005  0.3097419E+03  0.7546771E-02  0.1080470E+00
         21   -1    0    0  502  501  0.00000000000E+00  0.00000000000E+00  0.97249533488E+03  0.97249533488E+03  0.00000000000E+00 0.  1.
         21   -1    0    0  501  502 -0.00000000000E+00 -0.00000000000E+00 -0.98653443798E+02  0.98653443798E+02  0.00000000000E+00 0.  1.
         25    1    1    2    0    0  0.19721924044E+03  0.40281575567E+02  0.32953370035E+03  0.40587620502E+03  0.12500000000E+03 0.  0.
         25    1    1    2    0    0 -0.19571488261E+03 -0.45727196574E+02  0.24398395890E+03  0.33992420329E+03  0.12500000000E+03 0.  0.
         25    1    1    2    0    0 -0.15043578357E+01  0.54456210064E+01  0.30032423183E+03  0.32534837038E+03  0.12500000000E+03 0.  0.
</event>
<event>
 5    0  0.5568866E-005  0.2132108E+03  0.7546771E-02  0.1139048E+00
         21   -1    0    0  502  501  0.00000000000E+00  0.00000000000E+00  0.38163295065E+02  0.38163295065E+02  0.00000000000E+00 0. -1.
         21   -1    0    0  501  502 -0.00000000000E+00 -0.00000000000E+00 -0.11911669213E+04  0.11911669213E+04  0.00000000000E+00 0. -1.
         25    1    1    2    0    0  0.15351729487E+02  0.45090833311E+02 -0.24456196955E+03  0.27875511797E+03  0.12500000000E+03 0.  0.
         25    1    1    2    0    0 -0.39479039735E+02 -0.50074591328E+02 -0.33596433490E+03  0.36409214987E+03  0.12500000000E+03 0.  0.
         25    1    1    2    0    0  0.24127310248E+02  0.49837580171E+01 -0.57247732182E+03  0.58648294855E+03  0.12500000000E+03 0.  0.
</event>
<event>
 5    0  0.5568866E-005  0.2377293E+03  0.7546771E-02  0.1121315E+00
         21   -1    0    0  502  501  0.00000000000E+00  0.00000000000E+00  0.24167117515E+03  0.24167117515E+03  0.00000000000E+00 0.  1.
         21   -1    0    0  501  502 -0.00000000000E+00 -0.00000000000E+00 -0.23385178209E+03  0.23385178209E+03  0.00000000000E+00 0.  1.
         25    1    1    2    0    0 -0.18603232144E+02  0.27298410437E+02  0.79550648469E+02  0.15180444371E+03  0.12500000000E+03 0.  0.
         25    1    1    2    0    0  0.30518558776E+02  0.48176611594E+02 -0.10567483403E+03  0.17333360575E+03  0.12500000000E+03 0.  0.
         25    1    1    2    0    0 -0.11915326632E+02 -0.75475022031E+02  0.33943578620E+02  0.15038490778E+03  0.12500000000E+03 0.  0.
</event>
<event>
 5    0  0.5568866E-005  0.2949626E+03  0.7546771E-02  0.1087786E+00
         21   -1    0    0  502  501  0.00000000000E+00  0.00000000000E+00  0.67741853404E+02  0.67741853404E+02  0.00000000000E+00 0. -1.
         21   -1    0    0  501  502 -0.00000000000E+00 -0.00000000000E+00 -0.12843307692E+04  0.12843307692E+04  0.00000000000E+00 0. -1.
         25    1    1    2    0    0  0.65236910279E+01  0.44190825406E+02 -0.16803453943E+03  0.21414012711E+03  0.12500000000E+03 0.  0.
         25    1    1    2    0    0  0.14522132842E+03 -0.10322940473E+03 -0.37274695420E+03  0.43163738959E+03  0.12500000000E+03 0.  0.
         25    1    1    2    0    0 -0.15174501944E+03  0.59038579328E+02 -0.67580742214E+03  0.70629510588E+03  0.12500000000E+03 0.  0.
</event>
<event>
 5    0  0.5568866E-005  0.2347673E+03  0.7546771E-02  0.1123329E+00
         21   -1    0    0  502  501  0.00000000000E+00  0.00000000000E+00  0.80540027618E+02  0.80540027618E+02  0.00000000000E+00 0.  1.
         21   -1    0    0  501  502 -0.00000000000E+00 -0.00000000000E+00 -0.68432643964E+03  0.68432643964E+03  0.00000000000E+00 0.  1.
         25    1    1    2    0    0  0.56678317439E+02  0.64213504094E+02 -0.18903769018E+03  0.24227268538E+03  0.12500000000E+03 0.  0.
         25    1    1    2    0    0 -0.76436030262E+02 -0.68452538493E+02 -0.11871077822E+03  0.20061272546E+03  0.12500000000E+03 0.  0.
         25    1    1    2    0    0  0.19757712822E+02  0.42390343987E+01 -0.29603794363E+03  0.32198105642E+03  0.12500000000E+03 0.  0.
</event>
<event>
 5    0  0.5598064E-005  0.2653820E+03  0.7546771E-02  0.1103952E+00
         21   -1    0    0  502  501  0.00000000000E+00  0.00000000000E+00  0.76941744467E+03  0.76941744467E+03  0.00000000000E+00 0. -1.
         21   -1    0    0  501  502 -0.00000000000E+00 -0.00000000000E+00 -0.91533672008E+02  0.91533672008E+02  0.00000000000E+00 0. -1.
         25    1    1    2    0    0  0.11587764093E+02 -0.10397085357E+03  0.14209598666E+03  0.21624172607E+03  0.12500000000E+03 0.  0.
         25    1    1    2    0    0 -0.92591893226E+02  0.13256632111E+03  0.34479565326E+03  0.40081932425E+03  0.12500000000E+03 0.  0.
         25    1    1    2    0    0  0.81004129133E+02 -0.28595467544E+02  0.19099213275E+03  0.24389006637E+03  0.12500000000E+03 0.  0.
</event>
<event>
 5    0  0.5568866E-005  0.3740324E+03  0.7546771E-02  0.1053162E+00
         21   -1    0    0  502  501  0.00000000000E+00  0.00000000000E+00  0.64547936466E+03  0.64547936466E+03  0.00000000000E+00 0. -1.
         21   -1    0    0  501  502 -0.00000000000E+00 -0.00000000000E+00 -0.21673856751E+03  0.21673856751E+03  0.00000000000E+00 0. -1.
         25    1    1    2    0    0 -0.10746261076E+03  0.62041415746E+01  0.35628818817E+03  0.39262319992E+03  0.12500000000E+03 0.  0.
         25    1    1    2    0    0  0.48550543774E+02  0.46981422571E+02  0.21913652060E+03  0.26117087133E+03  0.12500000000E+03 0.  0.
         25    1    1    2    0    0  0.58912066989E+02 -0.53185564145E+02 -0.14668391162E+03  0.20842386092E+03  0.12500000000E+03 0.  0.
</event>
<event>
 5    0  0.5709458E-005  0.3556339E+03  0.7546771E-02  0.1060326E+00
         21   -1    0    0  502  501  0.00000000000E+00  0.00000000000E+00  0.32313592011E+03  0.32313592011E+03  0.00000000000E+00 0.  1.
         21   -1    0    0  501  502 -0.00000000000E+00 -0.00000000000E+00 -0.39140017175E+03  0.39140017175E+03  0.00000000000E+00 0.  1.
         25    1    1    2    0    0 -0.29311599354E+02  0.11159955258E+02 -0.21577469398E+03  0.25133132121E+03  0.12500000000E+03 0.  0.
         25    1    1    2    0    0 -0.41354253581E+01  0.17266743889E+03  0.88056122223E+02  0.23067298684E+03  0.12500000000E+03 0.  0.
         25    1    1    2    0    0  0.33447024712E+02 -0.18382739415E+03  0.59454320109E+02  0.23253178381E+03  0.12500000000E+03 0.  0.
</event>
<event>
 5    0  0.5568866E-005  0.3696212E+03  0.7546771E-02  0.1054838E+00
         21   -1    0    0  502  501  0.00000000000E+00  0.00000000000E+00  0.45595920620E+02  0.45595920620E+02  0.00000000000E+00 0.  1.
         21   -1    0    0  501  502 -0.00000000000E+00 -0.00000000000E+00 -0.29963161933E+04  0.29963161933E+04  0.00000000000E+00 0.  1.
         25    1    1    2    0    0  0.20722156359E+03  0.23048511035E+02 -0.74424238297E+03  0.78293916423E+03  0.12500000000E+03 0.  0.
         25    1    1    2    0    0  0.52014191260E+02  0.60431594166E+02 -0.37683916603E+03  0.40495704799E+03  0.12500000000E+03 0.  0.
         25    1    1    2    0    0 -0.25923575485E+03 -0.83480105201E+02 -0.18296387237E+04  0.18540159017E+04  0.12500000000E+03 0.  0.
</event>
<event>
 5    0  0.5568866E-005  0.3504595E+03  0.7546771E-02  0.1062427E+00
         21   -1    0    0  502  501  0.00000000000E+00  0.00000000000E+00  0.97840091745E+03  0.97840091745E+03  0.00000000000E+00 0. -1.
         21   -1    0    0  501  502 -0.00000000000E+00 -0.00000000000E+00 -0.12553327890E+03  0.12553327890E+03  0.00000000000E+00 0. -1.
         25    1    1    2    0    0  0.32257960995E+02 -0.13069632228E+03  0.15892226408E+03  0.24290613563E+03  0.12500000000E+03 0.  0.
         25    1    1    2    0    0  0.19251822602E+03  0.52624484754E+02  0.26197526314E+03  0.35226217827E+03  0.12500000000E+03 0.  0.
         25    1    1    2    0    0 -0.22477618701E+03  0.78071837522E+02  0.43197011133E+03  0.50876588245E+03  0.12500000000E+03 0.  0.
</event>
<event>
 5    0  0.5568866E-005  0.2979095E+03  0.7546771E-02  0.1086290E+00
         21   -1    0    0  502  501  0.00000000000E+00  0.00000000000E+00  0.67046164582E+03  0.67046164582E+03  0.00000000000E+00 0.  1.
         21   -1    0    0  501  502 -0.00000000000E+00 -0.00000000000E+00 -0.13237156484E+03  0.13237156484E+03  0.00000000000E+00 0.  1.
         25    1    1    2    0    0  0.44422035359E+02  0.11167340370E+03  0.26713755004E+03  0.31848349559E+03  0.12500000000E+03 0.  0.
         25    1    1    2    0    0 -0.56785397422E+02  0.83581335006E+02  0.62911493796E+02  0.17260729119E+03  0.12500000000E+03 0.  0.
         25    1    1    2    0    0  0.12363362063E+02 -0.19525473870E+03  0.20804103715E+03  0.31174242388E+03  0.12500000000E+03 0.  0.
</event>
<event>
 5    0  0.5568866E-005  0.4443657E+03  0.7546771E-02  0.1029416E+00
         21   -1    0    0  502  501  0.00000000000E+00  0.00000000000E+00  0.12070895223E+03  0.12070895223E+03  0.00000000000E+00 0.  1.
         21   -1    0    0  501  502 -0.00000000000E+00 -0.00000000000E+00 -0.16358428527E+04  0.16358428527E+04  0.00000000000E+00 0.  1.
         25    1    1    2    0    0  0.17268259644E+03  0.77586352316E+02 -0.26308979615E+02  0.22837706449E+03  0.12500000000E+03 0.  0.
         25    1    1    2    0    0 -0.53017586580E+02  0.23068993558E+02 -0.75886910124E+03  0.77126542498E+03  0.12500000000E+03 0.  0.
         25    1    1    2    0    0 -0.11966500985E+03 -0.10065534587E+03 -0.72995581957E+03  0.75690931542E+03  0.12500000000E+03 0.  0.
</event>
<event>
 5    0  0.5568866E-005  0.2573505E+03  0.7546771E-02  0.1108746E+00
         21   -1    0    0  502  501  0.00000000000E+00  0.00000000000E+00  0.68901351858E+02  0.68901351858E+02  0.00000000000E+00 0.  1.
         21   -1    0    0  501  502 -0.00000000000E+00 -0.00000000000E+00 -0.96121891989E+03  0.96121891989E+03  0.00000000000E+00 0.  1.
         25    1    1    2    0    0 -0.54498760234E+02  0.38385028102E+02 -0.29787275107E+03  0.32984344935E+03  0.12500000000E+03 0.  0.
         25    1    1    2    0    0 -0.44427546659E+02 -0.55025473039E+02 -0.48595919225E+03  0.50673755152E+03  0.12500000000E+03 0.  0.
         25    1    1    2    0    0  0.98926306893E+02  0.16640444937E+02 -0.10848562471E+03  0.19353927088E+03  0.12500000000E+03 0.  0.
</event>
<event>
 5    0  0.5568866E-005  0.3283854E+03  0.7546771E-02  0.1071854E+00
         21   -1    0    0  502  501  0.00000000000E+00  0.00000000000E+00  0.29128225321E+03  0.29128225321E+03  0.00000000000E+00 0.  1.
         21   -1    0    0  501  502 -0.00000000000E+00 -0.00000000000E+00 -0.37021461182E+03  0.37021461182E+03  0.00000000000E+00 0.  1.
         25    1    1    2    0    0 -0.83344659200E+02 -0.13460073926E+03 -0.22020807690E+03  0.29863068891E+03  0.12500000000E+03 0.  0.
         25    1    1    2    0    0  0.79051960484E+02  0.84890005844E+02  0.39401268863E+01  0.17057564348E+03  0.12500000000E+03 0.  0.
         25    1    1    2    0    0  0.42926987158E+01  0.49710733413E+02  0.13733559141E+03  0.19229053265E+03  0.12500000000E+03 0.  0.
</event>
<event>
 5    0  0.5568866E-005  0.3271959E+03  0.7546771E-02  0.1072384E+00
         21   -1    0    0  502  501  0.00000000000E+00  0.00000000000E+00  0.11218626821E+03  0.11218626821E+03  0.00000000000E+00 0.  1.
         21   -1    0    0  501  502 -0.00000000000E+00 -0.00000000000E+00 -0.95428058636E+03  0.95428058636E+03  0.00000000000E+00 0.  1.
         25    1    1    2    0    0 -0.11757437247E+03  0.18354906836E+03 -0.31757302071E+03  0.40495878437E+03  0.12500000000E+03 0.  0.
         25    1    1    2    0    0  0.16665641786E+03 -0.53582540585E+02 -0.30479079622E+03  0.37305211396E+03  0.12500000000E+03 0.  0.
         25    1    1    2    0    0 -0.49082045394E+02 -0.12996652777E+03 -0.21973050122E+03  0.28845595623E+03  0.12500000000E+03 0.  0.
</event>
<event>
 5    0  0.5568866E-005  0.2914249E+03  0.7546771E-02  0.1089608E+00
         21   -1    0    0  502  501  0.00000000000E+00  0.00000000000E+00  0.10248025056E+04  0.10248025056E+04  0.00000000000E+00 0. -1.
         21   -1    0    0  501  502 -0.00000000000E+00 -0.00000000000E+00 -0.82872996548E+02  0.82872996548E+02  0.00000000000E+00 0. -1.
         25    1    1    2    0    0  0.62318746279E+02 -0.15343477591E+03  0.36218376927E+03  0.41740620421E+03  0.12500000000E+03 0.  0.
         25    1    1    2    0    0 -0.56607498685E+02 -0.39688908894E+01  0.39132259179E+03  0.41470294410E+03  0.12500000000E+03 0.  0.
         25    1    1    2    0    0 -0.57112475938E+01  0.15740366680E+03  0.18842314804E+03  0.27556635387E+03  0.12500000000E+03 0.  0.
</event>
<event>
 5    0  0.5836873E-005  0.2943561E+03  0.7546771E-02  0.1088096E+00
         21   -1    0    0  502  501  0.00000000000E+00  0.00000000000E+00  0.41272756483E+03  0.41272756483E+03  0.00000000000E+00 0. -1.
         21   -1    0    0  501  502 -0.00000000000E+00 -0.00000000000E+00 -0.20993384962E+03  0.20993384962E+03  0.00000000000E+00 0. -1.
         25    1    1    2    0    0  0.78924200832E+02  0.18550674911E+02  0.11688109192E+03  0.18936564278E+03  0.12500000000E+03 0.  0.
         25    1    1    2    0    0  0.11165778459E+03  0.68005871956E+02  0.38320041931E+02  0.18489371296E+03  0.12500000000E+03 0.  0.
         25    1    1    2    0    0 -0.19058198542E+03 -0.86556546867E+02  0.47592581359E+02  0.24840205871E+03  0.12500000000E+03 0.  0.
</event>
<event>
 5    0  0.5787478E-005  0.4773500E+03  0.7546771E-02  0.1019866E+00
         21   -1    0    0  502  501  0.00000000000E+00  0.00000000000E+00  0.40936845649E+03  0.40936845649E+03  0.00000000000E+00 0. -1.
         21   -1    0    0  501  502 -0.00000000000E+00 -0.00000000000E+00 -0.55662095513E+03  0.55662095513E+03  0.00000000000E+00 0. -1.
         25    1    1    2    0    0  0.12429444586E+03 -0.33461307931E+02  0.26016830574E+03  0.31604005397E+03  0.12500000000E+03 0.  0.
         25    1    1    2    0    0  0.60158065990E+02 -0.11839147296E+03 -0.31669412799E+03  0.36545273904E+03  0.12500000000E+03 0.  0.
         25    1    1    2    0    0 -0.18445251185E+03  0.15185278089E+03 -0.90726676397E+02  0.28449661861E+03  0.12500000000E+03 0.  0.
</event>
<event>
 5    0  0.5568866E-005  0.2753057E+03  0.7546771E-02  0.1098281E+00
         21   -1    0    0  502  501  0.00000000000E+00  0.00000000000E+00  0.99045819533E+02  0.99045819533E+02  0.00000000000E+00 0. -1.
         21   -1    0    0  501  502 -0.00000000000E+00 -0.00000000000E+00 -0.76523401209E+03  0.76523401209E+03  0.00000000000E+00 0. -1.
         25    1    1    2    0    0 -0.45110849029E+02 -0.88556376853E+02 -0.24031100060E+03  0.28853352940E+03  0.12500000000E+03 0.  0.
         25    1    1    2    0    0 -0.95729024652E+02 -0.36085177036E+02 -0.17142435310E+03  0.23553661074E+03  0.12500000000E+03 0.  0.
         25    1    1    2    0    0  0.14083987368E+03  0.12464155389E+03 -0.25445283885E+03  0.34020969148E+03  0.12500000000E+03 0.  0.
</event>
<event>
 5    0  0.5568866E-005  0.2482540E+03  0.7546771E-02  0.1114413E+00
         21   -1    0    0  502  501  0.00000000000E+00  0.00000000000E+00  0.18400492039E+03  0.18400492039E+03  0.00000000000E+00 0.  1.
         21   -1    0    0  501  502 -0.00000000000E+00 -0.00000000000E+00 -0.33493697564E+03  0.33493697564E+03  0.00000000000E+00 0.  1.
         25    1    1    2    0    0  0.55729184767E+02  0.84164684088E+02 -0.45061491330E+02  0.16686813382E+03  0.12500000000E+03 0.  0.
         25    1    1    2    0    0 -0.53413523445E+02  0.33941178414E+02  0.16385685105E+02  0.14106203868E+03  0.12500000000E+03 0.  0.
         25    1    1    2    0    0 -0.23156613212E+01 -0.11810586250E+03 -0.12225624903E+03  0.21101172354E+03  0.12500000000E+03 0.  0.
</event>
<event>
 5    0  0.5568866E-005  0.3442300E+03  0.7546771E-02  0.1065009E+00
         21   -1    0    0  502  501  0.00000000000E+00  0.00000000000E+00  0.10611659870E+03  0.10611659870E+03  0.00000000000E+00 0. -1.
         21   -1    0    0  501  502 -0.00000000000E+00 -0.00000000000E+00 -0.11166420912E+04  0.11166420912E+04  0.00000000000E+00 0. -1.
         25    1    1    2    0    0 -0.84367206829E+02  0.10343725653E+03 -0.35228579802E+03  0.39692237920E+03  0.12500000000E+03 0.  0.
         25    1    1    2    0    0  0.13588147207E+03  0.80738256647E+02 -0.52266849232E+03  0.56016943276E+03  0.12500000000E+03 0.  0.
         25    1    1    2    0    0 -0.51514265243E+02 -0.18417551318E+03 -0.13557120216E+03  0.26566687794E+03  0.12500000000E+03 0.  0.
</event>
<event>
 5    0  0.5568866E-005  0.4460523E+03  0.7546771E-02  0.1028906E+00
         21   -1    0    0  502  501  0.00000000000E+00  0.00000000000E+00  0.17865040718E+03  0.17865040718E+03  0.00000000000E+00 0.  1.
         21   -1    0    0  501  502 -0.00000000000E+00 -0.00000000000E+00 -0.11136981184E+04  0.11136981184E+04  0.00000000000E+00 0.  1.
         25    1    1    2    0    0 -0.18025113577E+03 -0.79280594211E+01 -0.12244452846E+03  0.25133839465E+03  0.12500000000E+03 0.  0.
         25    1    1    2    0    0  0.34992070883E+03 -0.12059178357E+03 -0.39263345791E+03  0.55387084505E+03  0.12500000000E+03 0.  0.
         25    1    1    2    0    0 -0.16966957305E+03  0.12851984299E+03 -0.41996972489E+03  0.48713928592E+03  0.12500000000E+03 0.  0.
</event>
<event>
 5    0  0.5568866E-005  0.3223553E+03  0.7546771E-02  0.1074570E+00
         21   -1    0    0  502  501  0.00000000000E+00  0.00000000000E+00  0.93189853762E+02  0.93189853762E+02  0.00000000000E+00 0. -1.
         21   -1    0    0  501  502 -0.00000000000E+00 -0.00000000000E+00 -0.11150673863E+04  0.11150673863E+04  0.00000000000E+00 0. -1.
         25    1    1    2    0    0 -0.79570476229E+02 -0.64263416519E+02 -0.48972892699E+02  0.16877378828E+03  0.12500000000E+03 0.  0.
         25    1    1    2    0    0 -0.59211760292E+02  0.52861446532E+02 -0.64654278109E+03  0.66328194070E+03  0.12500000000E+03 0.  0.
         25    1    1    2    0    0  0.13878223652E+03  0.11401969986E+02 -0.32636185876E+03  0.37620151109E+03  0.12500000000E+03 0.  0.
</event>
<event>
 5    0  0.5568866E-005  0.2599048E+03  0.7546771E-02  0.1107200E+00
         21   -1    0    0  502  501  0.00000000000E+00  0.00000000000E+00  0.73524281073E+03  0.73524281073E+03  0.00000000000E+00 0.  1.
         21   -1    0    0  501  502 -0.00000000000E+00 -0.00000000000E+00 -0.91875088114E+02  0.91875088114E+02  0.00000000000E+00 0.  1.
         25    1    1    2    0    0  0.71814758040E+02  0.10108530115E+03  0.20184247155E+03  0.26784506884E+03  0.12500000000E+03 0.  0.
         25    1    1    2    0    0 -0.12906387916E+03 -0.96973365437E+02  0.28954137420E+03  0.35428876059E+03  0.12500000000E+03 0.  0.
         25    1    1    2    0    0  0.57249121124E+02 -0.41119357129E+01  0.15198387687E+03  0.20498406941E+03  0.12500000000E+03 0.  0.
</event>
<event>
 5    0  0.5568866E-005  0.2476298E+03  0.7546771E-02  0.1114812E+00
         21   -1    0    0  502  501  0.00000000000E+00  0.00000000000E+00  0.42353938899E+03  0.42353938899E+03  0.00000000000E+00 0. -1.
         21   -1    0    0  501  502 -0.00000000000E+00 -0.00000000000E+00 -0.14478117933E+03  0.14478117933E+03  0.00000000000E+00 0. -1.
         25    1    1    2    0    0 -0.27697286762E+02 -0.63555553714E+02  0.22175111396E+03  0.26382760402E+03  0.12500000000E+03 0.  0.
         25    1    1    2    0    0 -0.36472751392E+01  0.10277681388E+03  0.50764820495E+02  0.16964210293E+03  0.12500000000E+03 0.  0.
         25    1    1    2    0    0  0.31344561901E+02 -0.39221260167E+02  0.62422752102E+01  0.13485086136E+03  0.12500000000E+03 0.  0.
</event>
<event>
 5    0  0.5568866E-005  0.2470826E+03  0.7546771E-02  0.1115163E+00
         21   -1    0    0  502  501  0.00000000000E+00  0.00000000000E+00  0.75219470356E+02  0.75219470356E+02  0.00000000000E+00 0. -1.
         21   -1    0    0  501  502 -0.00000000000E+00 -0.00000000000E+00 -0.81162260103E+03  0.81162260103E+03  0.00000000000E+00 0. -1.
         25    1    1    2    0    0  0.44238882410E+01 -0.16471173766E+02 -0.20360339375E+03  0.23952079722E+03  0.12500000000E+03 0.  0.
         25    1    1    2    0    0 -0.30624432903E+02 -0.46021223557E+02 -0.52494191156E+02  0.14641191554E+03  0.12500000000E+03 0.  0.
         25    1    1    2    0    0  0.26200544662E+02  0.62492397324E+02 -0.48030554576E+03  0.50090935862E+03  0.12500000000E+03 0.  0.
</event>
<event>
 5    0  0.5568866E-005  0.6436090E+03  0.7546771E-02  0.9818846E-01
         21   -1    0    0  502  501  0.00000000000E+00  0.00000000000E+00  0.56412108888E+03  0.56412108888E+03  0.00000000000E+00 0.  1.
         21   -1    0    0  501  502 -0.00000000000E+00 -0.00000000000E+00 -0.73429729638E+03  0.73429729638E+03  0.00000000000E+00 0.  1.
         25    1    1    2    0    0  0.17935956412E+03 -0.30290929345E+03 -0.24002153243E+03  0.44402615838E+03  0.12500000000E+03 0.  0.
         25    1    1    2    0    0 -0.55922357277E+02  0.64285847823E+02 -0.32631426150E+03  0.35967482193E+03  0.12500000000E+03 0.  0.
         25    1    1    2    0    0 -0.12343720684E+03  0.23862344563E+03  0.39615958643E+03  0.49471740494E+03  0.12500000000E+03 0.  0.
</event>
<event>
 5    0  0.5568866E-005  0.4560756E+03  0.7546771E-02  0.1025926E+00
         21   -1    0    0  502  501  0.00000000000E+00  0.00000000000E+00  0.23204124764E+03  0.23204124764E+03  0.00000000000E+00 0. -1.
         21   -1    0    0  501  502 -0.00000000000E+00 -0.00000000000E+00 -0.89641388373E+03  0.89641388373E+03  0.00000000000E+00 0. -1.
         25    1    1    2    0    0  0.18789946208E+03  0.11091251619E+03  0.81649665050E+02  0.26438506369E+03  0.12500000000E+03 0.  0.
         25    1    1    2    0    0  0.31901447215E+02 -0.58613508692E+02 -0.44735744514E+03  0.46926211168E+03  0.12500000000E+03 0.  0.
         25    1    1    2    0    0 -0.21980090930E+03 -0.52299007499E+02 -0.29866485599E+03  0.39480795600E+03  0.12500000000E+03 0.  0.
</event>
<event>
 5    0  0.5568866E-005  0.2050526E+03  0.7546771E-02  0.1145545E+00
         21   -1    0    0  502  501  0.00000000000E+00  0.00000000000E+00  0.93587971176E+03  0.93587971176E+03  0.00000000000E+00 0. -1.
         21   -1    0    0  501  502 -0.00000000000E+00 -0.00000000000E+00 -0.44927314343E+02  0.44927314343E+02  0.00000000000E+00 0. -1.
         25    1    1    2    0    0 -0.19893420112E+02  0.10432044976E+02  0.34783217993E+03  0.37029285858E+03  0.12500000000E+03 0.  0.
         25    1    1    2    0    0  0.40634860350E+02 -0.52558007461E+02  0.32913230552E+03  0.35828286390E+03  0.12500000000E+03 0.  0.
         25    1    1    2    0    0 -0.20741440237E+02  0.42125962485E+02  0.21398791197E+03  0.25223130362E+03  0.12500000000E+03 0.  0.
</event>
<event>
 5    0  0.6332619E-005  0.2800504E+03  0.7546771E-02  0.1095661E+00
         21   -1    0    0  502  501  0.00000000000E+00  0.00000000000E+00  0.49486199140E+03  0.49486199140E+03  0.00000000000E+00 0.  1.
         21   -1    0    0  501  502 -0.00000000000E+00 -0.00000000000E+00 -0.15848508507E+03  0.15848508507E+03  0.00000000000E+00 0.  1.
         25    1    1    2    0    0  0.73083613286E+02 -0.58908505522E+02  0.65420524505E+02  0.16945876071E+03  0.12500000000E+03 0.  0.
         25    1    1    2    0    0  0.45417066962E+01  0.46568399753E+02 -0.40268275867E+02  0.13941225555E+03  0.12500000000E+03 0.  0.
         25    1    1    2    0    0 -0.77625319983E+02  0.12340105769E+02  0.31122465769E+03  0.34447606023E+03  0.12500000000E+03 0.  0.
</event>
<event>
 5    0  0.5568866E-005  0.4328538E+03  0.7546771E-02  0.1032962E+00
         21   -1    0    0  502  501  0.00000000000E+00  0.00000000000E+00  0.15692748310E+03  0.15692748310E+03  0.00000000000E+00 0.  1.
         21   -1    0    0  501  502 -0.00000000000E+00 -0.00000000000E+00 -0.11939426561E+04  0.11939426561E+04  0.00000000000E+00 0.  1.
         25    1    1    2    0    0 -0.13628805934E+03 -0.34748326553E+02 -0.54690601996E+03  0.57837105390E+03  0.12500000000E+03 0.  0.
         25    1    1    2    0    0  0.18410957521E+03 -0.10132733279E+03 -0.52437741152E+03  0.57858468159E+03  0.12500000000E+03 0.  0.
         25    1    1    2    0    0 -0.47821515877E+02  0.13607565934E+03  0.34268258437E+02  0.19391440375E+03  0.12500000000E+03 0.  0.
</event>
<event>
 5    0  0.5568866E-005  0.3731703E+03  0.7546771E-02  0.1053487E+00
         21   -1    0    0  502  501  0.00000000000E+00  0.00000000000E+00  0.18573679091E+03  0.18573679091E+03  0.00000000000E+00 0. -1.
         21   -1    0    0  501  502 -0.00000000000E+00 -0.00000000000E+00 -0.74974967722E+03  0.74974967722E+03  0.00000000000E+00 0. -1.
         25    1    1    2    0    0  0.11434018033E+03 -0.21561639434E+03 -0.16858408178E+03  0.32188460506E+03  0.12500000000E+03 0.  0.
         25    1    1    2    0    0 -0.20106366994E+03  0.80876490872E+02 -0.29534657685E+03  0.38706873627E+03  0.12500000000E+03 0.  0.
         25    1    1    2    0    0  0.86723489607E+02  0.13473990346E+03 -0.10008222768E+03  0.22653312679E+03  0.12500000000E+03 0.  0.
</event>
<event>
 5    0  0.5568866E-005  0.2127795E+03  0.7546771E-02  0.1139384E+00
         21   -1    0    0  502  501  0.00000000000E+00  0.00000000000E+00  0.96957568330E+02  0.96957568330E+02  0.00000000000E+00 0. -1.
         21   -1    0    0  501  502 -0.00000000000E+00 -0.00000000000E+00 -0.46695808157E+03  0.46695808157E+03  0.00000000000E+00 0. -1.
         25    1    1    2    0    0 -0.42003568451E+02  0.74811713598E+02 -0.15094561644E+03  0.21394081279E+03  0.12500000000E+03 0.  0.
         25    1    1    2    0    0  0.30543469799E+02 -0.59593459129E+02 -0.83333365600E+02  0.16448019255E+03  0.12500000000E+03 0.  0.
         25    1    1    2    0    0  0.11460098652E+02 -0.15218254469E+02 -0.13572153119E+03  0.18549464456E+03  0.12500000000E+03 0.  0.
</event>
<event>
 5    0  0.5568866E-005  0.2780326E+03  0.7546771E-02  0.1096768E+00
         21   -1    0    0  502  501  0.00000000000E+00  0.00000000000E+00  0.13447011644E+04  0.13447011644E+04  0.00000000000E+00 0.  1.
         21   -1    0    0  501  502 -0.00000000000E+00 -0.00000000000E+00 -0.57486488825E+02  0.57486488825E+02  0.00000000000E+00 0.  1.
         25    1    1    2    0    0  0.99265977805E+02  0.66958640724E+02  0.56685874279E+03  0.59269809195E+03  0.12500000000E+03 0.  0.
         25    1    1    2    0    0  0.17123779426E+02 -0.11889668653E+03  0.23265883840E+03  0.29014613727E+03  0.12500000000E+03 0.  0.
         25    1    1    2    0    0 -0.11638975723E+03  0.51938045802E+02  0.48769709439E+03  0.51934342402E+03  0.12500000000E+03 0.  0.
</event>
<event>
 5    0  0.5568866E-005  0.3320373E+03  0.7546771E-02  0.1070239E+00
         21   -1    0    0  502  501  0.00000000000E+00  0.00000000000E+00  0.35235153525E+03  0.35235153525E+03  0.00000000000E+00 0.  1.
         21   -1    0    0  501  502 -0.00000000000E+00 -0.00000000000E+00 -0.31289425321E+03  0.31289425321E+03  0.00000000000E+00 0.  1.
         25    1    1    2    0    0  0.41017545051E+02 -0.18307032442E+03 -0.10367872488E+03  0.24813597215E+03  0.12500000000E+03 0.  0.
         25    1    1    2    0    0 -0.58409304879E+01  0.17182788119E+03  0.18334022861E+03  0.28070906051E+03  0.12500000000E+03 0.  0.
         25    1    1    2    0    0 -0.35176614563E+02  0.11242443227E+02 -0.40204221693E+02  0.13640075580E+03  0.12500000000E+03 0.  0.
</event>
<event>
 5    0  0.5568866E-005  0.3240558E+03  0.7546771E-02  0.1073798E+00
         21   -1    0    0  502  501  0.00000000000E+00  0.00000000000E+00  0.35945964256E+03  0.35945964256E+03  0.00000000000E+00 0. -1.
         21   -1    0    0  501  502 -0.00000000000E+00 -0.00000000000E+00 -0.29213898181E+03  0.29213898181E+03  0.00000000000E+00 0. -1.
         25    1    1    2    0    0  0.32903636807E+02 -0.74535211191E+02  0.54797651981E+02  0.15895260201E+03  0.12500000000E+03 0.  0.
         25    1    1    2    0    0  0.81691720602E+02  0.14775863617E+03  0.15358516023E+03  0.26022980848E+03  0.12500000000E+03 0.  0.
         25    1    1    2    0    0 -0.11459535741E+03 -0.73223424975E+02 -0.14106215146E+03  0.23241621389E+03  0.12500000000E+03 0.  0.
</event>
<event>
 5    0  0.5568866E-005  0.2908090E+03  0.7546771E-02  0.1089928E+00
         21   -1    0    0  502  501  0.00000000000E+00  0.00000000000E+00  0.95685862074E+03  0.95685862074E+03  0.00000000000E+00 0.  1.
         21   -1    0    0  501  502 -0.00000000000E+00 -0.00000000000E+00 -0.88382822150E+02  0.88382822150E+02  0.00000000000E+00 0.  1.
         25    1    1    2    0    0 -0.63752264014E+02  0.16924259869E+03  0.30221069542E+03  0.37371608582E+03  0.12500000000E+03 0.  0.
         25    1    1    2    0    0  0.61891164416E+02 -0.18845622764E+03  0.36480864123E+03  0.43365494427E+03  0.12500000000E+03 0.  0.
         25    1    1    2    0    0  0.18610995977E+01  0.19213628953E+02  0.20145646193E+03  0.23787041280E+03  0.12500000000E+03 0.  0.
</event>
<event>
 5    0  0.5568866E-005  0.2878212E+03  0.7546771E-02  0.1091492E+00
         21   -1    0    0  502  501  0.00000000000E+00  0.00000000000E+00  0.67628583777E+03  0.67628583777E+03  0.00000000000E+00 0. -1.
         21   -1    0    0  501  502 -0.00000000000E+00 -0.00000000000E+00 -0.12249412837E+03  0.12249412837E+03  0.00000000000E+00 0. -1.
         25    1    1    2    0    0 -0.76730036861E+01  0.65755124675E+02 -0.41621967847E+02  0.14744490366E+03  0.12500000000E+03 0.  0.
         25    1    1    2    0    0  0.17975401095E+02 -0.98655766721E+01  0.29276017328E+03  0.31898897114E+03  0.12500000000E+03 0.  0.
         25    1    1    2    0    0 -0.10302397409E+02 -0.55889548003E+02  0.30265350397E+03  0.33234609134E+03  0.12500000000E+03 0.  0.
</event>
<event>
 5    0  0.5568866E-005  0.2952787E+03  0.7546771E-02  0.1087625E+00
         21   -1    0    0  502  501  0.00000000000E+00  0.00000000000E+00  0.85034393749E+02  0.85034393749E+02  0.00000000000E+00 0. -1.
         21   -1    0    0  501  502 -0.00000000000E+00 -0.00000000000E+00 -0.10253439639E+04  0.10253439639E+04  0.00000000000E+00 0. -1.
         25    1    1    2    0    0 -0.14876458349E+03  0.63474015161E+02 -0.44343726433E+03  0.48828419931E+03  0.12500000000E+03 0.  0.
         25    1    1    2    0    0  0.13186532879E+03 -0.12457920861E+03 -0.21773565212E+03  0.30974547351E+03  0.12500000000E+03 0.  0.
         25    1    1    2    0    0  0.16899254693E+02  0.61105193450E+02 -0.27913665372E+03  0.31234868485E+03  0.12500000000E+03 0.  0.
</event>
<event>
 5    0  0.5829517E-005  0.4458497E+03  0.7546771E-02  0.1028967E+00
         21   -1    0    0  502  501  0.00000000000E+00  0.00000000000E+00  0.82014081088E+03  0.82014081088E+03  0.00000000000E+00 0.  1.
         21   -1    0    0  501  502 -0.00000000000E+00 -0.00000000000E+00 -0.24237540241E+03  0.24237540241E+03  0.00000000000E+00 0.  1.
         25    1    1    2    0    0 -0.26228569982E+03 -0.58019123082E+02  0.14362969430E+03  0.32926356624E+03  0.12500000000E+03 0.  0.
         25    1    1    2    0    0 -0.23645275584E+01 -0.87802211889E+02  0.36962165259E+03  0.39994997870E+03  0.12500000000E+03 0.  0.
         25    1    1    2    0    0  0.26465022737E+03  0.14582133497E+03  0.64514061578E+02  0.33330266834E+03  0.12500000000E+03 0.  0.
</event>
<event>
 5    0  0.5568866E-005  0.2543865E+03  0.7546771E-02  0.1110564E+00
         21   -1    0    0  502  501  0.00000000000E+00  0.00000000000E+00  0.53157126508E+03  0.53157126508E+03  0.00000000000E+00 0. -1.
         21   -1    0    0  501  502 -0.00000000000E+00 -0.00000000000E+00 -0.12173810365E+03  0.12173810365E+03  0.00000000000E+00 0. -1.
         25    1    1    2    0    0 -0.36762447372E+02  0.28272502977E+02  0.70931525514E+02  0.15102017505E+03  0.12500000000E+03 0.  0.
         25    1    1    2    0    0  0.15226408868E+03  0.48389011105E+01  0.17044038813E+03  0.26054307431E+03  0.12500000000E+03 0.  0.
         25    1    1    2    0    0 -0.11550164131E+03 -0.33111404088E+02  0.16846124778E+03  0.24174611936E+03  0.12500000000E+03 0.  0.
</event>
<event>
 5    0  0.5658970E-005  0.2845427E+03  0.7546771E-02  0.1093233E+00
         21   -1    0    0  502  501  0.00000000000E+00  0.00000000000E+00  0.96199392059E+03  0.96199392059E+03  0.00000000000E+00 0.  1.
         21   -1    0    0  501  502 -0.00000000000E+00 -0.00000000000E+00 -0.84163239113E+02  0.84163239113E+02  0.00000000000E+00 0.  1.
         25    1    1    2    0    0 -0.82082186651E+02  0.74298714790E+02  0.33353140388E+03  0.37299595408E+03  0.12500000000E+03 0.  0.
         25    1    1    2    0    0 -0.76048727774E+02  0.26765810181E+01  0.36281956066E+03  0.39122066239E+03  0.12500000000E+03 0.  0.
         25    1    1    2    0    0  0.15813091443E+03 -0.76975295808E+02  0.18147971694E+03  0.28194054324E+03  0.12500000000E+03 0.  0.
</event>
<event>
 5    0  0.5568866E-005  0.4346458E+03  0.7546771E-02  0.1032402E+00
         21   -1    0    0  502  501  0.00000000000E+00  0.00000000000E+00  0.16404075265E+03  0.16404075265E+03  0.00000000000E+00 0. -1.
         21   -1    0    0  501  502 -0.00000000000E+00 -0.00000000000E+00 -0.11516466088E+04  0.11516466088E+04  0.00000000000E+00 0. -1.
         25    1    1    2    0    0  0.35046553519E+03 -0.74224539467E+02 -0.28461093720E+03  0.47430344632E+03  0.12500000000E+03 0.  0.
         25    1    1    2    0    0 -0.62015943415E+02  0.32930955443E+02 -0.18500305835E+03  0.23405460188E+03  0.12500000000E+03 0.  0.
         25    1    1    2    0    0 -0.28844959178E+03  0.41293584024E+02 -0.51799186056E+03  0.60732931321E+03  0.12500000000E+03 0.  0.
</event>
<event>
 5    0  0.5568866E-005  0.3858522E+03  0.7546771E-02  0.1048792E+00
         21   -1    0    0  502  501  0.00000000000E+00  0.00000000000E+00  0.25337810463E+03  0.25337810463E+03  0.00000000000E+00 0.  1.
         21   -1    0    0  501  502 -0.00000000000E+00 -0.00000000000E+00 -0.58758802275E+03  0.58758802275E+03  0.00000000000E+00 0. -1.
         25    1    1    2    0    0  0.48605595138E+02  0.23267003533E+03  0.47858220572E+02  0.27278793686E+03  0.12500000000E+03 0.  0.
         25    1    1    2    0    0 -0.26403794496E+02 -0.20197316580E+03 -0.10335917289E+03  0.26038133322E+03  0.12500000000E+03 0.  0.
         25    1    1    2    0    0 -0.22201800643E+02 -0.30696869526E+02 -0.27870896580E+03  0.30779685730E+03  0.12500000000E+03 0.  0.
</event>
<event>
 5    0  0.5568866E-005  0.2077715E+03  0.7546771E-02  0.1143343E+00
         21   -1    0    0  502  501  0.00000000000E+00  0.00000000000E+00  0.66547186339E+03  0.66547186339E+03  0.00000000000E+00 0.  1.
         21   -1    0    0  501  502 -0.00000000000E+00 -0.00000000000E+00 -0.64869772868E+02  0.64869772868E+02  0.00000000000E+00 0.  1.
         25    1    1    2    0    0  0.30402574666E+02 -0.12794755312E+02  0.27545818355E+03  0.30428643282E+03  0.12500000000E+03 0.  0.
         25    1    1    2    0    0 -0.21621040828E+02  0.48780705373E+02  0.21986795851E+03  0.25848393722E+03  0.12500000000E+03 0.  0.
         25    1    1    2    0    0 -0.87815338383E+01 -0.35985950061E+02  0.10527594846E+03  0.16757126622E+03  0.12500000000E+03 0.  0.
</event>
<event>
 5    0  0.5568866E-005  0.2848931E+03  0.7546771E-02  0.1093046E+00
         21   -1    0    0  502  501  0.00000000000E+00  0.00000000000E+00  0.20230917815E+03  0.20230917815E+03  0.00000000000E+00 0. -1.
         21   -1    0    0  501  502 -0.00000000000E+00 -0.00000000000E+00 -0.40118832437E+03  0.40118832437E+03  0.00000000000E+00 0. -1.
         25    1    1    2    0    0 -0.16563623675E+02 -0.19854600750E+02 -0.12716271074E+03  0.18017745088E+03  0.12500000000E+03 0.  0.
         25    1    1    2    0    0 -0.69342530540E+02 -0.65141610877E+02  0.94054129840E+02  0.18309285991E+03  0.12500000000E+03 0.  0.
         25    1    1    2    0    0  0.85906154215E+02  0.84996211627E+02 -0.16577056532E+03  0.24022719173E+03  0.12500000000E+03 0.  0.
</event>
<event>
 5    0  0.5568866E-005  0.1968813E+03  0.7546771E-02  0.1152397E+00
         21   -1    0    0  502  501  0.00000000000E+00  0.00000000000E+00  0.19482235730E+04  0.19482235730E+04  0.00000000000E+00 0. -1.
         21   -1    0    0  501  502 -0.00000000000E+00 -0.00000000000E+00 -0.19896200695E+02  0.19896200695E+02  0.00000000000E+00 0. -1.
         25    1    1    2    0    0  0.20921339690E+01 -0.12868678217E+02  0.75185599003E+03  0.76228761609E+03  0.12500000000E+03 0.  0.
         25    1    1    2    0    0  0.17639566973E+02  0.44732792430E+02  0.60712296268E+03  0.62171976714E+03  0.12500000000E+03 0.  0.
         25    1    1    2    0    0 -0.19731700942E+02 -0.31864114214E+02  0.56934841963E+03  0.58411239050E+03  0.12500000000E+03 0.  0.
</event>
<event>
 5    0  0.5568866E-005  0.3913714E+03  0.7546771E-02  0.1046809E+00
         21   -1    0    0  502  501  0.00000000000E+00  0.00000000000E+00  0.23681555884E+04  0.23681555884E+04  0.00000000000E+00 0.  1.
         21   -1    0    0  501  502 -0.00000000000E+00 -0.00000000000E+00 -0.64679687754E+02  0.64679687754E+02  0.00000000000E+00 0.  1.
         25    1    1    2    0    0  0.20181534453E+03 -0.67705304762E+02  0.74004828610E+03  0.78013454439E+03  0.12500000000E+03 0.  0.
         25    1    1    2    0    0 -0.91482579343E+02  0.21379976053E+03  0.48978624799E+03  0.55641258851E+03  0.12500000000E+03 0.  0.
         25    1    1    2    0    0 -0.11033276519E+03 -0.14609445577E+03  0.10736413665E+04  0.10962881432E+04  0.12500000000E+03 0.  0.
</event>
<event>
 5    0  0.5568866E-005  0.4774477E+03  0.7546771E-02  0.1019839E+00
         21   -1    0    0  502  501  0.00000000000E+00  0.00000000000E+00  0.15469763632E+03  0.15469763632E+03  0.00000000000E+00 0.  1.
         21   -1    0    0  501  502 -0.00000000000E+00 -0.00000000000E+00 -0.14735605778E+04  0.14735605778E+04  0.00000000000E+00 0.  1.
         25    1    1    2    0    0  0.17505500932E+03 -0.93374695489E+02 -0.21271073131E+03  0.31659744987E+03  0.12500000000E+03 0.  0.
         25    1    1    2    0    0 -0.20772106541E+02 -0.14929566196E+03 -0.93329123237E+03  0.95361323371E+03  0.12500000000E+03 0.  0.
         25    1    1    2    0    0 -0.15428290278E+03  0.24267035745E+03 -0.17286097777E+03  0.35804753052E+03  0.12500000000E+03 0.  0.
</event>
<event>
 5    0  0.5568866E-005  0.4172874E+03  0.7546771E-02  0.1037953E+00
         21   -1    0    0  502  501  0.00000000000E+00  0.00000000000E+00  0.80568661284E+03  0.80568661284E+03  0.00000000000E+00 0.  1.
         21   -1    0    0  501  502 -0.00000000000E+00 -0.00000000000E+00 -0.21612470258E+03  0.21612470258E+03  0.00000000000E+00 0.  1.
         25    1    1    2    0    0  0.80722663411E+02  0.20401349103E+01  0.35636078143E+03  0.38618430455E+03  0.12500000000E+03 0.  0.
         25    1    1    2    0    0 -0.94524315409E+02 -0.20132465082E+03 -0.57381914071E+02  0.26150362386E+03  0.12500000000E+03 0.  0.
         25    1    1    2    0    0  0.13801651998E+02  0.19928451591E+03  0.29058304290E+03  0.37412338700E+03  0.12500000000E+03 0.  0.
</event>
<event>
 5    0  0.5568866E-005  0.3674276E+03  0.7546771E-02  0.1055681E+00
         21   -1    0    0  502  501  0.00000000000E+00  0.00000000000E+00  0.51792604359E+03  0.51792604359E+03  0.00000000000E+00 0.  1.
         21   -1    0    0  501  502 -0.00000000000E+00 -0.00000000000E+00 -0.26066089727E+03  0.26066089727E+03  0.00000000000E+00 0.  1.
         25    1    1    2    0    0 -0.48062662090E+02  0.94233553605E+02  0.37451407469E+03  0.40874903579E+03  0.12500000000E+03 0.  0.
         25    1    1    2    0    0 -0.32041466223E+02 -0.14450966168E+03 -0.72087500682E+02  0.20671551860E+03  0.12500000000E+03 0.  0.
         25    1    1    2    0    0  0.80104128314E+02  0.50276108074E+02 -0.45161427701E+02  0.16312238647E+03  0.12500000000E+03 0.  0.
</event>
<event>
 5    0  0.5600252E-005  0.3488312E+03  0.7546771E-02  0.1063096E+00
         21   -1    0    0  502  501  0.00000000000E+00  0.00000000000E+00  0.55270919782E+03  0.55270919782E+03  0.00000000000E+00 0. -1.
         21   -1    0    0  501  502 -0.00000000000E+00 -0.00000000000E+00 -0.22015772346E+03  0.22015772346E+03  0.00000000000E+00 0. -1.
         25    1    1    2    0    0 -0.86358385180E+01 -0.10259784234E+03  0.14232865660E+03  0.21559995698E+03  0.12500000000E+03 0.  0.
         25    1    1    2    0    0  0.12596459400E+03  0.17440992360E+03 -0.49735457644E+02  0.25374104150E+03  0.12500000000E+03 0.  0.
         25    1    1    2    0    0 -0.11732875548E+03 -0.71812081261E+02  0.23995827540E+03  0.30352592280E+03  0.12500000000E+03 0.  0.
</event>
<event>
 5    0  0.5568866E-005  0.3701102E+03  0.7546771E-02  0.1054651E+00
         21   -1    0    0  502  501  0.00000000000E+00  0.00000000000E+00  0.49597264101E+03  0.49597264101E+03  0.00000000000E+00 0. -1.
         21   -1    0    0  501  502 -0.00000000000E+00 -0.00000000000E+00 -0.27618776974E+03  0.27618776974E+03  0.00000000000E+00 0. -1.
         25    1    1    2    0    0 -0.63591632184E+02 -0.12303660074E+03  0.31465970673E+02  0.18920097282E+03  0.12500000000E+03 0.  0.
         25    1    1    2    0    0  0.13798814198E+03 -0.14771800918E+03  0.12726693048E+03  0.26959823656E+03  0.12500000000E+03 0.  0.
         25    1    1    2    0    0 -0.74396509800E+02  0.27075460992E+03  0.61051970111E+02  0.31336120136E+03  0.12500000000E+03 0.  0.
</event>
<event>
 5    0  0.5568866E-005  0.4204087E+03  0.7546771E-02  0.1036933E+00
         21   -1    0    0  502  501  0.00000000000E+00  0.00000000000E+00  0.81022369698E+03  0.81022369698E+03  0.00000000000E+00 0. -1.
         21   -1    0    0  501  502 -0.00000000000E+00 -0.00000000000E+00 -0.21814158350E+03  0.21814158350E+03  0.00000000000E+00 0. -1.
         25    1    1    2    0    0  0.30835995157E+02 -0.15462130962E+03  0.25285666504E+01  0.20122127530E+03  0.12500000000E+03 0.  0.
         25    1    1    2    0    0  0.14809698997E+03 -0.37849160261E+02  0.34530163758E+02  0.20045600410E+03  0.12500000000E+03 0.  0.
         25    1    1    2    0    0 -0.17893298513E+03  0.19247046988E+03  0.55502338307E+03  0.62668800108E+03  0.12500000000E+03 0.  0.
</event>
<event>
 5    0  0.5568866E-005  0.2621338E+03  0.7546771E-02  0.1105868E+00
         21   -1    0    0  502  501  0.00000000000E+00  0.00000000000E+00  0.63808710094E+03  0.63808710094E+03  0.00000000000E+00 0.  1.
         21   -1    0    0  501  502 -0.00000000000E+00 -0.00000000000E+00 -0.10768771593E+03  0.10768771593E+03  0.00000000000E+00 0.  1.
         25    1    1    2    0    0  0.25770589056E+02  0.56807536811E+02  0.40727678835E+03  0.43057008934E+03  0.12500000000E+03 0.  0.
         25    1    1    2    0    0 -0.79616737753E+02 -0.25466101119E+02  0.68419113495E+02  0.16520751293E+03  0.12500000000E+03 0.  0.
         25    1    1    2    0    0  0.53846148697E+02 -0.31341435692E+02  0.54703483162E+02  0.14999721461E+03  0.12500000000E+03 0.  0.
</event>
<event>
 5    0  0.5568866E-005  0.2457831E+03  0.7546771E-02  0.1115999E+00
         21   -1    0    0  502  501  0.00000000000E+00  0.00000000000E+00  0.73352953589E+02  0.73352953589E+02  0.00000000000E+00 0. -1.
         21   -1    0    0  501  502 -0.00000000000E+00 -0.00000000000E+00 -0.82354321405E+03  0.82354321405E+03  0.00000000000E+00 0. -1.
         25    1    1    2    0    0  0.27682305582E+02  0.61609448878E+02 -0.11607698947E+03  0.18346907565E+03  0.12500000000E+03 0.  0.
         25    1    1    2    0    0  0.33694443267E+02 -0.10973667310E+03 -0.42489812547E+03  0.45753783446E+03  0.12500000000E+03 0.  0.
         25    1    1    2    0    0 -0.61376748849E+02  0.48127224217E+02 -0.20921514552E+03  0.25588925754E+03  0.12500000000E+03 0.  0.
</event>
<event>
 5    0  0.6305460E-005  0.2876477E+03  0.7546771E-02  0.1091584E+00
         21   -1    0    0  502  501  0.00000000000E+00  0.00000000000E+00  0.21657612767E+03  0.21657612767E+03  0.00000000000E+00 0. -1.
         21   -1    0    0  501  502 -0.00000000000E+00 -0.00000000000E+00 -0.38204210288E+03  0.38204210288E+03  0.00000000000E+00 0. -1.
         25    1    1    2    0    0  0.41279366741E+02 -0.30623624338E+02 -0.17057253161E+03  0.21762762009E+03  0.12500000000E+03 0.  0.
         25    1    1    2    0    0 -0.13581892940E+02  0.49356763993E+02 -0.13451473754E+03  0.19062993622E+03  0.12500000000E+03 0.  0.
         25    1    1    2    0    0 -0.27697473800E+02 -0.18733139655E+02  0.13962129394E+03  0.19036067424E+03  0.12500000000E+03 0.  0.
</event>
<event>
 5    0  0.5568866E-005  0.4254400E+03  0.7546771E-02  0.1035310E+00
         21   -1    0    0  502  501  0.00000000000E+00  0.00000000000E+00  0.21455996824E+03  0.21455996824E+03  0.00000000000E+00 0.  1.
         21   -1    0    0  501  502 -0.00000000000E+00 -0.00000000000E+00 -0.84358304639E+03  0.84358304639E+03  0.00000000000E+00 0.  1.
         25    1    1    2    0    0 -0.33510210118E+02 -0.47608160815E+02 -0.34471403006E+02  0.14213637389E+03  0.12500000000E+03 0.  0.
         25    1    1    2    0    0 -0.71591248219E+01  0.26376639216E+03 -0.59526653096E+03  0.66301674608E+03  0.12500000000E+03 0.  0.
         25    1    1    2    0    0  0.40669334940E+02 -0.21615823134E+03  0.71485581692E+00  0.25298989466E+03  0.12500000000E+03 0.  0.
</event>
<event>
 5    0  0.5568866E-005  0.3959515E+03  0.7546771E-02  0.1045191E+00
         21   -1    0    0  502  501  0.00000000000E+00  0.00000000000E+00  0.34095234781E+03  0.34095234781E+03  0.00000000000E+00 0.  1.
         21   -1    0    0  501  502 -0.00000000000E+00 -0.00000000000E+00 -0.45982252208E+03  0.45982252208E+03  0.00000000000E+00 0.  1.
         25    1    1    2    0    0  0.40578977866E+02 -0.94405999507E+02 -0.79593918406E+01  0.16201079626E+03  0.12500000000E+03 0.  0.
         25    1    1    2    0    0  0.14406677488E+03  0.20118851777E+03 -0.23382036570E+03  0.36266929664E+03  0.12500000000E+03 0.  0.
         25    1    1    2    0    0 -0.18464575275E+03 -0.10678251826E+03  0.12290958327E+03  0.27609477698E+03  0.12500000000E+03 0.  0.
</event>
<event>
 5    0  0.5568866E-005  0.5687911E+03  0.7546771E-02  0.9972357E-01
         21   -1    0    0  502  501  0.00000000000E+00  0.00000000000E+00  0.22384117350E+04  0.22384117350E+04  0.00000000000E+00 0. -1.
         21   -1    0    0  501  502 -0.00000000000E+00 -0.00000000000E+00 -0.14453252404E+03  0.14453252404E+03  0.00000000000E+00 0. -1.
         25    1    1    2    0    0  0.71206579845E+02  0.16401113218E+03  0.19061213314E+02  0.21899396874E+03  0.12500000000E+03 0.  0.
         25    1    1    2    0    0 -0.21658241052E+03 -0.25978076778E+03  0.89644435255E+03  0.96624606860E+03  0.12500000000E+03 0.  0.
         25    1    1    2    0    0  0.14537583067E+03  0.95769635599E+02  0.11783736451E+04  0.11977042217E+04  0.12500000000E+03 0.  0.
</event>
<event>
 5    0  0.5568866E-005  0.2681345E+03  0.7546771E-02  0.1102352E+00
         21   -1    0    0  502  501  0.00000000000E+00  0.00000000000E+00  0.10288932984E+03  0.10288932984E+03  0.00000000000E+00 0. -1.
         21   -1    0    0  501  502 -0.00000000000E+00 -0.00000000000E+00 -0.69877105848E+03  0.69877105848E+03  0.00000000000E+00 0. -1.
         25    1    1    2    0    0  0.54944596724E+02  0.26097642680E+02 -0.45910534007E+03  0.47969022186E+03  0.12500000000E+03 0.  0.
         25    1    1    2    0    0 -0.81771612602E+02 -0.10536103048E+02 -0.25770351931E+02  0.15194313783E+03  0.12500000000E+03 0.  0.
         25    1    1    2    0    0  0.26827015878E+02 -0.15561539632E+02 -0.11100603664E+03  0.17002702864E+03  0.12500000000E+03 0.  0.
</event>
<event>
 5    0  0.5568866E-005  0.2839711E+03  0.7546771E-02  0.1093540E+00
         21   -1    0    0  502  501  0.00000000000E+00  0.00000000000E+00  0.23494425844E+03  0.23494425844E+03  0.00000000000E+00 0.  1.
         21   -1    0    0  501  502 -0.00000000000E+00 -0.00000000000E+00 -0.34322870641E+03  0.34322870641E+03  0.00000000000E+00 0.  1.
         25    1    1    2    0    0 -0.78300827604E+02  0.27622426505E+02 -0.58308212307E+02  0.16099337152E+03  0.12500000000E+03 0.  0.
         25    1    1    2    0    0  0.10057152079E+03  0.12610470424E+03 -0.72432200388E+02  0.21653741219E+03  0.12500000000E+03 0.  0.
         25    1    1    2    0    0 -0.22270693186E+02 -0.15372713074E+03  0.22455964724E+02  0.20064218114E+03  0.12500000000E+03 0.  0.
</event>
<event>
 5    0  0.5568866E-005  0.5997652E+03  0.7546771E-02  0.9905893E-01
         21   -1    0    0  502  501  0.00000000000E+00  0.00000000000E+00  0.26599557030E+03  0.26599557030E+03  0.00000000000E+00 0.  1.
         21   -1    0    0  501  502 -0.00000000000E+00 -0.00000000000E+00 -0.13523468689E+04  0.13523468689E+04  0.00000000000E+00 0.  1.
         25    1    1    2    0    0  0.34836017333E+03 -0.15934934652E+03 -0.24392977781E+03  0.47103477696E+03  0.12500000000E+03 0.  0.
         25    1    1    2    0    0  0.13177023932E+03  0.20546252778E+03 -0.23094086887E+03  0.35852047530E+03  0.12500000000E+03 0.  0.
         25    1    1    2    0    0 -0.48013041265E+03 -0.46113181262E+02 -0.61148065195E+03  0.78878718698E+03  0.12500000000E+03 0.  0.
</event>
<event>
 5    0  0.5568866E-005  0.2560392E+03  0.7546771E-02  0.1109547E+00
         21   -1    0    0  502  501  0.00000000000E+00  0.00000000000E+00  0.51085301334E+03  0.51085301334E+03  0.00000000000E+00 0.  1.
         21   -1    0    0  501  502 -0.00000000000E+00 -0.00000000000E+00 -0.12832671389E+03  0.12832671389E+03  0.00000000000E+00 0.  1.
         25    1    1    2    0    0  0.11869358723E+03  0.76573530152E+02  0.20970423719E+03  0.28205059876E+03  0.12500000000E+03 0.  0.
         25    1    1    2    0    0 -0.93788602272E+02 -0.94351305636E+02  0.11720573815E+03  0.21693468106E+03  0.12500000000E+03 0.  0.
         25    1    1    2    0    0 -0.24904984955E+02  0.17777775484E+02  0.55616324104E+02  0.14019444741E+03  0.12500000000E+03 0.  0.
</event>
<event>
 5    0  0.5568866E-005  0.2606783E+03  0.7546771E-02  0.1106736E+00
         21   -1    0    0  502  501  0.00000000000E+00  0.00000000000E+00  0.37967603030E+03  0.37967603030E+03  0.00000000000E+00 0.  1.
         21   -1    0    0  501  502 -0.00000000000E+00 -0.00000000000E+00 -0.17897677723E+03  0.17897677723E+03  0.00000000000E+00 0.  1.
         25    1    1    2    0    0  0.11873984511E+02 -0.53308471718E+01 -0.58305889367E+02  0.13854236238E+03  0.12500000000E+03 0.  0.
         25    1    1    2    0    0  0.60610120919E+02  0.87537676057E+02  0.13804954238E+03  0.21452064619E+03  0.12500000000E+03 0.  0.
         25    1    1    2    0    0 -0.72484105429E+02 -0.82206828885E+02  0.12095560005E+03  0.20558979897E+03  0.12500000000E+03 0.  0.
</event>
<event>
 5    0  0.5568866E-005  0.2548773E+03  0.7546771E-02  0.1110261E+00
         21   -1    0    0  502  501  0.00000000000E+00  0.00000000000E+00  0.16324300990E+03  0.16324300990E+03  0.00000000000E+00 0.  1.
         21   -1    0    0  501  502 -0.00000000000E+00 -0.00000000000E+00 -0.39794919736E+03  0.39794919736E+03  0.00000000000E+00 0.  1.
         25    1    1    2    0    0 -0.12709943073E+03  0.32841898350E+02 -0.70128311770E+02  0.19436006712E+03  0.12500000000E+03 0.  0.
         25    1    1    2    0    0  0.10341064391E+03 -0.26351246458E+02 -0.17367760763E+03  0.23911725336E+03  0.12500000000E+03 0.  0.
         25    1    1    2    0    0  0.23688786816E+02 -0.64906518921E+01  0.90997319409E+01  0.12771488678E+03  0.12500000000E+03 0.  0.
</event>
<event>
 5    0  0.5568866E-005  0.2972978E+03  0.7546771E-02  0.1086599E+00
         21   -1    0    0  502  501  0.00000000000E+00  0.00000000000E+00  0.64573570072E+02  0.64573570072E+02  0.00000000000E+00 0. -1.
         21   -1    0    0  501  502 -0.00000000000E+00 -0.00000000000E+00 -0.13687636962E+04  0.13687636962E+04  0.00000000000E+00 0. -1.
         25    1    1    2    0    0  0.28487314948E+02  0.53304703091E+02 -0.70500156633E+03  0.71854375441E+03  0.12500000000E+03 0.  0.
         25    1    1    2    0    0  0.33894911101E+02  0.95045181371E+02 -0.14264498719E+03  0.21483724973E+03  0.12500000000E+03 0.  0.
         25    1    1    2    0    0 -0.62382226049E+02 -0.14834988446E+03 -0.45654357258E+03  0.49995626210E+03  0.12500000000E+03 0.  0.
</event>
<event>
 5    0  0.5568866E-005  0.3859442E+03  0.7546771E-02  0.1048758E+00
         21   -1    0    0  502  501  0.00000000000E+00  0.00000000000E+00  0.73756647949E+03  0.73756647949E+03  0.00000000000E+00 0. -1.
         21   -1    0    0  501  502 -0.00000000000E+00 -0.00000000000E+00 -0.20195190411E+03  0.20195190411E+03  0.00000000000E+00 0. -1.
         25    1    1    2    0    0  0.86839120032E+02 -0.14450316017E+02  0.14913988151E+03  0.21358265065E+03  0.12500000000E+03 0.  0.
         25    1    1    2    0    0 -0.31196278624E+03 -0.21573841349E+02  0.30257389282E+03  0.45272748011E+03  0.12500000000E+03 0.  0.
         25    1    1    2    0    0  0.22512366621E+03  0.36024157366E+02  0.83900801056E+02  0.27320825284E+03  0.12500000000E+03 0.  0.
</event>
<event>
 5    0  0.5568866E-005  0.2587772E+03  0.7546771E-02  0.1107880E+00
         21   -1    0    0  502  501  0.00000000000E+00  0.00000000000E+00  0.12266376592E+03  0.12266376592E+03  0.00000000000E+00 0.  1.
         21   -1    0    0  501  502 -0.00000000000E+00 -0.00000000000E+00 -0.54592835604E+03  0.54592835604E+03  0.00000000000E+00 0.  1.
         25    1    1    2    0    0 -0.30689615622E+02  0.76773671063E+02 -0.20983932546E+03  0.25786351348E+03  0.12500000000E+03 0.  0.
         25    1    1    2    0    0  0.20214953786E+02 -0.66513818386E+01 -0.23342020106E+03  0.26563673598E+03  0.12500000000E+03 0.  0.
         25    1    1    2    0    0  0.10474661836E+02 -0.70122289224E+02  0.19994936392E+02  0.14509187251E+03  0.12500000000E+03 0.  0.
</event>
<event>
 5    0  0.5568866E-005  0.2803544E+03  0.7546771E-02  0.1095496E+00
         21   -1    0    0  502  501  0.00000000000E+00  0.00000000000E+00  0.48860501019E+02  0.48860501019E+02  0.00000000000E+00 0. -1.
         21   -1    0    0  501  502 -0.00000000000E+00 -0.00000000000E+00 -0.16086321473E+04  0.16086321473E+04  0.00000000000E+00 0. -1.
         25    1    1    2    0    0 -0.67506208290E+02  0.16073025642E+03 -0.46639879762E+03  0.51336550518E+03  0.12500000000E+03 0.  0.
         25    1    1    2    0    0 -0.34624435274E+02 -0.50252351794E+02 -0.39007881674E+03  0.41413842330E+03  0.12500000000E+03 0.  0.
         25    1    1    2    0    0  0.10213064356E+03 -0.11047790463E+03 -0.70329403194E+03  0.72998871986E+03  0.12500000000E+03 0.  0.
</event>
<event>
 5    0  0.5568866E-005  0.3777703E+03  0.7546771E-02  0.1051761E+00
         21   -1    0    0  502  501  0.00000000000E+00  0.00000000000E+00  0.70172414930E+03  0.70172414930E+03  0.00000000000E+00 0.  1.
         21   -1    0    0  501  502 -0.00000000000E+00 -0.00000000000E+00 -0.20337105980E+03  0.20337105980E+03  0.00000000000E+00 0.  1.
         25    1    1    2    0    0  0.44857911227E+02 -0.17139991837E+03  0.20265821089E+03  0.29679203941E+03  0.12500000000E+03 0.  0.
         25    1    1    2    0    0 -0.19859058447E+02  0.30950790039E+03  0.13351305067E+03  0.36005590858E+03  0.12500000000E+03 0.  0.
         25    1    1    2    0    0 -0.24998852779E+02 -0.13810798201E+03  0.16218182795E+03  0.24824726112E+03  0.12500000000E+03 0.  0.
</event>
<event>
 5    0  0.5568866E-005  0.4317896E+03  0.7546771E-02  0.1033296E+00
         21   -1    0    0  502  501  0.00000000000E+00  0.00000000000E+00  0.12104407477E+03  0.12104407477E+03  0.00000000000E+00 0. -1.
         21   -1    0    0  501  502 -0.00000000000E+00 -0.00000000000E+00 -0.15402841775E+04  0.15402841775E+04  0.00000000000E+00 0. -1.
         25    1    1    2    0    0  0.12867132829E+03 -0.69632863711E+00 -0.32340061854E+03  0.36982395226E+03  0.12500000000E+03 0.  0.
         25    1    1    2    0    0  0.27421961981E+02  0.26587737117E+03 -0.26447357636E+03  0.39624993766E+03  0.12500000000E+03 0.  0.
         25    1    1    2    0    0 -0.15609329027E+03 -0.26518104254E+03 -0.83136590783E+03  0.89525436234E+03  0.12500000000E+03 0.  0.
</event>
<event>
 5    0  0.5568866E-005  0.3709494E+03  0.7546771E-02  0.1054331E+00
         21   -1    0    0  502  501  0.00000000000E+00  0.00000000000E+00  0.58779296005E+03  0.58779296005E+03  0.00000000000E+00 0.  1.
         21   -1    0    0  501  502 -0.00000000000E+00 -0.00000000000E+00 -0.23410185777E+03  0.23410185777E+03  0.00000000000E+00 0.  1.
         25    1    1    2    0    0  0.91472293794E+02 -0.10119786916E+03  0.38979739388E+03  0.43148024002E+03  0.12500000000E+03 0.  0.
         25    1    1    2    0    0 -0.18097164206E+03  0.60859237217E+02 -0.38984679322E+01  0.22824280939E+03  0.12500000000E+03 0.  0.
         25    1    1    2    0    0  0.89499348268E+02  0.40338631942E+02 -0.32207823660E+02  0.16217176842E+03  0.12500000000E+03 0.  0.
</event>
<event>
 5    0  0.5568866E-005  0.3329172E+03  0.7546771E-02  0.1069853E+00
         21   -1    0    0  502  501  0.00000000000E+00  0.00000000000E+00  0.27157528042E+04  0.27157528042E+04  0.00000000000E+00 0. -1.
         21   -1    0    0  501  502 -0.00000000000E+00 -0.00000000000E+00 -0.40811463826E+02  0.40811463826E+02  0.00000000000E+00 0. -1.
         25    1    1    2    0    0  0.84684165751E+02 -0.30328749278E+02  0.16265529243E+04  0.16338269971E+04  0.12500000000E+03 0.  0.
         25    1    1    2    0    0 -0.10405083881E+03  0.14539244146E+03  0.72243200622E+03  0.75465127224E+03  0.12500000000E+03 0.  0.
         25    1    1    2    0    0  0.19366673062E+02 -0.11506369218E+03  0.32595640980E+03  0.36808599861E+03  0.12500000000E+03 0.  0.
</event>
<event>
 5    0  0.5837464E-005  0.2751093E+03  0.7546771E-02  0.1098391E+00
         21   -1    0    0  502  501  0.00000000000E+00  0.00000000000E+00  0.21221548959E+03  0.21221548959E+03  0.00000000000E+00 0. -1.
         21   -1    0    0  501  502 -0.00000000000E+00 -0.00000000000E+00 -0.35664281320E+03  0.35664281320E+03  0.00000000000E+00 0. -1.
         25    1    1    2    0    0 -0.30221486534E+02  0.53821581435E+01  0.81670125370E+02  0.15243790622E+03  0.12500000000E+03 0.  0.
         25    1    1    2    0    0  0.10866489048E+03  0.27877671849E+01 -0.26039282930E+02  0.16768683408E+03  0.12500000000E+03 0.  0.
         25    1    1    2    0    0 -0.78443403949E+02 -0.81699253284E+01 -0.20005816605E+03  0.24873356248E+03  0.12500000000E+03 0.  0.
</event>
<event>
 5    0  0.5568866E-005  0.4041857E+03  0.7546771E-02  0.1042340E+00
         21   -1    0    0  502  501  0.00000000000E+00  0.00000000000E+00  0.12215570287E+03  0.12215570287E+03  0.00000000000E+00 0.  1.
         21   -1    0    0  501  502 -0.00000000000E+00 -0.00000000000E+00 -0.13373591562E+04  0.13373591562E+04  0.00000000000E+00 0.  1.
         25    1    1    2    0    0  0.85715980689E+02  0.18212988730E+03 -0.10855156307E+03  0.26062802427E+03  0.12500000000E+03 0.  0.
         25    1    1    2    0    0 -0.14902830150E+03 -0.20771982193E+03 -0.92655856826E+03  0.96927433655E+03  0.12500000000E+03 0.  0.
         25    1    1    2    0    0  0.63312320816E+02  0.25589934634E+02 -0.18009332195E+03  0.22961249821E+03  0.12500000000E+03 0.  0.
</event>
<event>
 5    0  0.5568866E-005  0.2107987E+03  0.7546771E-02  0.1140935E+00
         21   -1    0    0  502  501  0.00000000000E+00  0.00000000000E+00  0.20339200958E+03  0.20339200958E+03  0.00000000000E+00 0.  1.
         21   -1    0    0  501  502 -0.00000000000E+00 -0.00000000000E+00 -0.21847515626E+03  0.21847515626E+03  0.00000000000E+00 0.  1.
         25    1    1    2    0    0 -0.23317045801E+02  0.58964247076E+02 -0.32491376978E+02  0.14387896523E+03  0.12500000000E+03 0.  0.
         25    1    1    2    0    0  0.24105399375E+02 -0.51407318524E+02 -0.35863517400E+02  0.14189776093E+03  0.12500000000E+03 0.  0.
         25    1    1    2    0    0 -0.78835357354E+00 -0.75569285514E+01  0.53271747693E+02  0.13609043968E+03  0.12500000000E+03 0.  0.
</event>
<event>
 5    0  0.5568866E-005  0.4112615E+03  0.7546771E-02  0.1039949E+00
         21   -1    0    0  502  501  0.00000000000E+00  0.00000000000E+00  0.68553207806E+03  0.68553207806E+03  0.00000000000E+00 0. -1.
         21   -1    0    0  501  502 -0.00000000000E+00 -0.00000000000E+00 -0.24672227588E+03  0.24672227588E+03  0.00000000000E+00 0. -1.
         25    1    1    2    0    0 -0.33763654525E+02  0.89444188224E+01  0.27199553340E+03  0.30137444680E+03  0.12500000000E+03 0.  0.
         25    1    1    2    0    0  0.92076231645E+02  0.26135075766E+03  0.65530860930E+02  0.31096871980E+03  0.12500000000E+03 0.  0.
         25    1    1    2    0    0 -0.58312577119E+02 -0.27029517648E+03  0.10128340786E+03  0.31991118734E+03  0.12500000000E+03 0.  0.
</event>
<event>
 5    0  0.5568866E-005  0.3005663E+03  0.7546771E-02  0.1084958E+00
         21   -1    0    0  502  501  0.00000000000E+00  0.00000000000E+00  0.13354662092E+04  0.13354662092E+04  0.00000000000E+00 0.  1.
         21   -1    0    0  501  502 -0.00000000000E+00 -0.00000000000E+00 -0.67646885683E+02  0.67646885683E+02  0.00000000000E+00 0.  1.
         25    1    1    2    0    0 -0.17118343398E+03 -0.74786186001E+02  0.55419614077E+03  0.59804272768E+03  0.12500000000E+03 0.  0.
         25    1    1    2    0    0  0.17812971222E+03  0.42795844901E+02  0.30925972461E+03  0.38056307754E+03  0.12500000000E+03 0.  0.
         25    1    1    2    0    0 -0.69462782452E+01  0.31990341100E+02  0.40436345811E+03  0.42450728964E+03  0.12500000000E+03 0.  0.
</event>
<event>
 5    0  0.5568866E-005  0.3355555E+03  0.7546771E-02  0.1068705E+00
         21   -1    0    0  502  501  0.00000000000E+00  0.00000000000E+00  0.22780567595E+03  0.22780567595E+03  0.00000000000E+00 0. -1.
         21   -1    0    0  501  502 -0.00000000000E+00 -0.00000000000E+00 -0.49426977756E+03  0.49426977756E+03  0.00000000000E+00 0. -1.
         25    1    1    2    0    0  0.91760396070E+02 -0.20764547861E+03 -0.75059299521E+02  0.26980643713E+03  0.12500000000E+03 0.  0.
         25    1    1    2    0    0 -0.53891397889E+02  0.15222886801E+02  0.19456010390E+02  0.13834578197E+03  0.12500000000E+03 0.  0.
         25    1    1    2    0    0 -0.37868998180E+02  0.19242259181E+03 -0.21086081248E+03  0.31392323440E+03  0.12500000000E+03 0.  0.
</event>
<event>
 5    0  0.5568866E-005  0.5204455E+03  0.7546771E-02  0.1008576E+00
         21   -1    0    0  502  501  0.00000000000E+00  0.00000000000E+00  0.79203626101E+03  0.79203626101E+03  0.00000000000E+00 0. -1.
         21   -1    0    0  501  502 -0.00000000000E+00 -0.00000000000E+00 -0.34198372467E+03  0.34198372467E+03  0.00000000000E+00 0. -1.
         25    1    1    2    0    0  0.39726752650E+01 -0.41538948608E+03  0.24562304528E+03  0.49851769042E+03  0.12500000000E+03 0.  0.
         25    1    1    2    0    0  0.61667162008E+02  0.26212386471E+03  0.28552021884E+03  0.41189629118E+03  0.12500000000E+03 0.  0.
         25    1    1    2    0    0 -0.65639837273E+02  0.15326562136E+03 -0.81090727778E+02  0.22360600408E+03  0.12500000000E+03 0.  0.
</event>
<event>
 5    0  0.5568866E-005  0.2110140E+03  0.7546771E-02  0.1140766E+00
         21   -1    0    0  502  501  0.00000000000E+00  0.00000000000E+00  0.22090204373E+03  0.22090204373E+03  0.00000000000E+00 0. -1.
         21   -1    0    0  501  502 -0.00000000000E+00 -0.00000000000E+00 -0.20156851909E+03  0.20156851909E+03  0.00000000000E+00 0. -1.
         25    1    1    2    0    0 -0.55508910975E+02 -0.23110086237E+02  0.44641080359E+02  0.14571596117E+03  0.12500000000E+03 0.  0.
         25    1    1    2    0    0  0.72516654279E+02 -0.83985733340E+01 -0.27269962920E+01  0.14478134442E+03  0.12500000000E+03 0.  0.
         25    1    1    2    0    0 -0.17007743305E+02  0.31508659571E+02 -0.22580559427E+02  0.13197325723E+03  0.12500000000E+03 0.  0.
</event>
<event>
 5    0  0.5568866E-005  0.2734943E+03  0.7546771E-02  0.1099296E+00
         21   -1    0    0  502  501  0.00000000000E+00  0.00000000000E+00  0.24242955162E+03  0.24242955162E+03  0.00000000000E+00 0. -1.
         21   -1    0    0  501  502 -0.00000000000E+00 -0.00000000000E+00 -0.30853969225E+03  0.30853969225E+03  0.00000000000E+00 0. -1.
         25    1    1    2    0    0  0.62867183165E+02 -0.44050218853E+02 -0.12907438412E+03  0.19539166087E+03  0.12500000000E+03 0.  0.
         25    1    1    2    0    0 -0.10882851251E+03  0.68170178016E+02 -0.42276945523E+02  0.18412810331E+03  0.12500000000E+03 0.  0.
         25    1    1    2    0    0  0.45961329340E+02 -0.24119959163E+02  0.10524118901E+03  0.17144947970E+03  0.12500000000E+03 0.  0.
</event>
<event>
 5    0  0.5568866E-005  0.2757691E+03  0.7546771E-02  0.1098022E+00
         21   -1    0    0  502  501  0.00000000000E+00  0.00000000000E+00  0.65471035826E+02  0.65471035826E+02  0.00000000000E+00 0.  1.
         21   -1    0    0  501  502 -0.00000000000E+00 -0.00000000000E+00 -0.11615607403E+04  0.11615607403E+04  0.00000000000E+00 0.  1.
         25    1    1    2    0    0 -0.64738997046E+02  0.10589154604E+03 -0.32470548894E+03  0.36940873272E+03  0.12500000000E+03 0.  0.
         25    1    1    2    0    0  0.13272841597E+03 -0.13833672338E+03 -0.46998675037E+03  0.52274891388E+03  0.12500000000E+03 0.  0.
         25    1    1    2    0    0 -0.67989418922E+02  0.32445177337E+02 -0.30139746519E+03  0.33487412954E+03  0.12500000000E+03 0.  0.
</event>
<event>
 5    0  0.5568866E-005  0.2554380E+03  0.7546771E-02  0.1109916E+00
         21   -1    0    0  502  501  0.00000000000E+00  0.00000000000E+00  0.80106055554E+03  0.80106055554E+03  0.00000000000E+00 0.  1.
         21   -1    0    0  501  502 -0.00000000000E+00 -0.00000000000E+00 -0.81452711426E+02  0.81452711426E+02  0.00000000000E+00 0.  1.
         25    1    1    2    0    0 -0.81611452811E+02 -0.11774525169E+03  0.16826692075E+03  0.25389590415E+03  0.12500000000E+03 0.  0.
         25    1    1    2    0    0 -0.50875319689E+01  0.49769837895E+02  0.22520176153E+03  0.26238093136E+03  0.12500000000E+03 0.  0.
         25    1    1    2    0    0  0.86698984780E+02  0.67975413798E+02  0.32613916183E+03  0.36623643146E+03  0.12500000000E+03 0.  0.
</event>
<event>
 5    0  0.5568866E-005  0.2182233E+03  0.7546771E-02  0.1135215E+00
         21   -1    0    0  502  501  0.00000000000E+00  0.00000000000E+00  0.52972309947E+03  0.52972309947E+03  0.00000000000E+00 0.  1.
         21   -1    0    0  501  502 -0.00000000000E+00 -0.00000000000E+00 -0.89898695992E+02  0.89898695992E+02  0.00000000000E+00 0.  1.
         25    1    1    2    0    0 -0.56587308577E+02 -0.41407256878E+02  0.23928267538E+03  0.27892271896E+03  0.12500000000E+03 0.  0.
         25    1    1    2    0    0  0.21805787253E+01  0.18164589987E+02  0.14327481986E+03  0.19101670413E+03  0.12500000000E+03 0.  0.
         25    1    1    2    0    0  0.54406729852E+02  0.23242666891E+02  0.57266908232E+02  0.14968237236E+03  0.12500000000E+03 0.  0.
</event>
<event>
 5    0  0.5568866E-005  0.4564133E+03  0.7546771E-02  0.1025827E+00
         21   -1    0    0  502  501  0.00000000000E+00  0.00000000000E+00  0.13765061257E+03  0.13765061257E+03  0.00000000000E+00 0. -1.
         21   -1    0    0  501  502 -0.00000000000E+00 -0.00000000000E+00 -0.15133467705E+04  0.15133467705E+04  0.00000000000E+00 0. -1.
         25    1    1    2    0    0  0.79490823320E+02 -0.47928402267E+01 -0.26394538072E+03  0.30271096166E+03  0.12500000000E+03 0.  0.
         25    1    1    2    0    0 -0.30161134364E+03 -0.17534915130E+03 -0.29417146186E+03  0.47315808822E+03  0.12500000000E+03 0.  0.
         25    1    1    2    0    0  0.22212052032E+03  0.18014199153E+03 -0.81757931535E+03  0.87512833319E+03  0.12500000000E+03 0.  0.
</event>
<event>
 5    0  0.5568866E-005  0.2594881E+03  0.7546771E-02  0.1107451E+00
         21   -1    0    0  502  501  0.00000000000E+00  0.00000000000E+00  0.56582492951E+03  0.56582492951E+03  0.00000000000E+00 0.  1.
         21   -1    0    0  501  502 -0.00000000000E+00 -0.00000000000E+00 -0.11900159467E+03  0.11900159467E+03  0.00000000000E+00 0.  1.
         25    1    1    2    0    0  0.13428624009E+02  0.38801215717E+02 -0.34342391766E+02  0.13597890335E+03  0.12500000000E+03 0.  0.
         25    1    1    2    0    0  0.21967633181E+02 -0.14624455374E+02  0.18829352025E+03  0.22754318573E+03  0.12500000000E+03 0.  0.
         25    1    1    2    0    0 -0.35396257191E+02 -0.24176760343E+02  0.29287220635E+03  0.32130443510E+03  0.12500000000E+03 0.  0.
</event>
<event>
 5    0  0.5568866E-005  0.3651030E+03  0.7546771E-02  0.1056581E+00
         21   -1    0    0  502  501  0.00000000000E+00  0.00000000000E+00  0.22582134712E+04  0.22582134712E+04  0.00000000000E+00 0. -1.
         21   -1    0    0  501  502 -0.00000000000E+00 -0.00000000000E+00 -0.59029067164E+02  0.59029067164E+02  0.00000000000E+00 0. -1.
         25    1    1    2    0    0 -0.10110743399E+03 -0.82225766565E+02  0.14190379185E+03  0.22966383267E+03  0.12500000000E+03 0.  0.
         25    1    1    2    0    0  0.96305565265E+02 -0.53049969371E+02  0.82833545640E+03  0.84489862675E+03  0.12500000000E+03 0.  0.
         25    1    1    2    0    0  0.48018687259E+01  0.13527573594E+03  0.12289451558E+04  0.12426800790E+04  0.12500000000E+03 0.  0.
</event>
<event>
 5    0  0.5940549E-005  0.4239312E+03  0.7546771E-02  0.1035794E+00
         21   -1    0    0  502  501  0.00000000000E+00  0.00000000000E+00  0.67396884715E+03  0.67396884715E+03  0.00000000000E+00 0.  1.
         21   -1    0    0  501  502 -0.00000000000E+00 -0.00000000000E+00 -0.26665567886E+03  0.26665567886E+03  0.00000000000E+00 0.  1.
         25    1    1    2    0    0  0.33852125914E+02 -0.26576082466E+03  0.18357806081E+03  0.34799523957E+03  0.12500000000E+03 0.  0.
         25    1    1    2    0    0  0.12044978739E+03  0.14996957977E+03 -0.50399354424E+02  0.23487043463E+03  0.12500000000E+03 0.  0.
         25    1    1    2    0    0 -0.15430191330E+03  0.11579124489E+03  0.27413446191E+03  0.35775885181E+03  0.12500000000E+03 0.  0.
</event>
<event>
 5    0  0.5568866E-005  0.2691599E+03  0.7546771E-02  0.1101761E+00
         21   -1    0    0  502  501  0.00000000000E+00  0.00000000000E+00  0.13901082035E+03  0.13901082035E+03  0.00000000000E+00 0.  1.
         21   -1    0    0  501  502 -0.00000000000E+00 -0.00000000000E+00 -0.52116131007E+03  0.52116131007E+03  0.00000000000E+00 0.  1.
         25    1    1    2    0    0  0.74176452589E+02 -0.27414422754E+01  0.45223623487E+02  0.15224926189E+03  0.12500000000E+03 0.  0.
         25    1    1    2    0    0  0.51174035733E+01  0.83214271022E+01 -0.17487739953E+03  0.21518024732E+03  0.12500000000E+03 0.  0.
         25    1    1    2    0    0 -0.79293856162E+02 -0.55799848268E+01 -0.25249671368E+03  0.29274262121E+03  0.12500000000E+03 0.  0.
</event>
<event>
 5    0  0.5568866E-005  0.2517744E+03  0.7546771E-02  0.1112189E+00
         21   -1    0    0  502  501  0.00000000000E+00  0.00000000000E+00  0.78366908751E+03  0.78366908751E+03  0.00000000000E+00 0. -1.
         21   -1    0    0  501  502 -0.00000000000E+00 -0.00000000000E+00 -0.80889177029E+02  0.80889177029E+02  0.00000000000E+00 0. -1.
         25    1    1    2    0    0 -0.24900005629E+02  0.57614326755E+02  0.21753504199E+03  0.25862311463E+03  0.12500000000E+03 0.  0.
         25    1    1    2    0    0  0.64604872102E+02 -0.14661470300E+03  0.24812872515E+03  0.32072188089E+03  0.12500000000E+03 0.  0.
         25    1    1    2    0    0 -0.39704866472E+02  0.89000376246E+02  0.23711614335E+03  0.28521326903E+03  0.12500000000E+03 0.  0.
</event>
<event>
 5    0  0.5568866E-005  0.5092828E+03  0.7546771E-02  0.1011384E+00
         21   -1    0    0  502  501  0.00000000000E+00  0.00000000000E+00  0.15404062103E+03  0.15404062103E+03  0.00000000000E+00 0. -1.
         21   -1    0    0  501  502 -0.00000000000E+00 -0.00000000000E+00 -0.16837702453E+04  0.16837702453E+04  0.00000000000E+00 0. -1.
         25    1    1    2    0    0 -0.30390825195E+03  0.50518775984E+00 -0.13158517648E+03  0.35397759744E+03  0.12500000000E+03 0.  0.
         25    1    1    2    0    0  0.11501916206E+02 -0.69175691141E+02 -0.22802633236E+03  0.26932986944E+03  0.12500000000E+03 0.  0.
         25    1    1    2    0    0  0.29240633575E+03  0.68670503382E+02 -0.11701181154E+04  0.12145033995E+04  0.12500000000E+03 0.  0.
</event>
<event>
 5    0  0.5568866E-005  0.2426172E+03  0.7546771E-02  0.1118062E+00
         21   -1    0    0  502  501  0.00000000000E+00  0.00000000000E+00  0.47139532016E+03  0.47139532016E+03  0.00000000000E+00 0.  1.
         21   -1    0    0  501  502 -0.00000000000E+00 -0.00000000000E+00 -0.12486993162E+03  0.12486993162E+03  0.00000000000E+00 0.  1.
         25    1    1    2    0    0  0.43173299146E+02  0.56048458764E+02  0.97676299337E+02  0.17369807984E+03  0.12500000000E+03 0.  0.
         25    1    1    2    0    0 -0.84455218575E+02 -0.18714863426E+02  0.24172458220E+03  0.28554982700E+03  0.12500000000E+03 0.  0.
         25    1    1    2    0    0  0.41281919429E+02 -0.37333595338E+02  0.71245070011E+01  0.13701734493E+03  0.12500000000E+03 0.  0.
</event>
<event>
 5    0  0.5568866E-005  0.4072381E+03  0.7546771E-02  0.1041302E+00
         21   -1    0    0  502  501  0.00000000000E+00  0.00000000000E+00  0.66981020001E+03  0.66981020001E+03  0.00000000000E+00 0.  1.
         21   -1    0    0  501  502 -0.00000000000E+00 -0.00000000000E+00 -0.24759685974E+03  0.24759685974E+03  0.00000000000E+00 0.  1.
         25    1    1    2    0    0  0.30046936384E+02  0.12819089617E+03  0.14201044770E+03  0.23049445005E+03  0.12500000000E+03 0.  0.
         25    1    1    2    0    0 -0.18233668265E+03  0.13050367769E+03  0.25326956162E+03  0.36062216595E+03  0.12500000000E+03 0.  0.
         25    1    1    2    0    0  0.15228974626E+03 -0.25869457387E+03  0.26933330959E+02  0.32629044375E+03  0.12500000000E+03 0.  0.
</event>
<event>
 5    0  0.5568866E-005  0.2726976E+03  0.7546771E-02  0.1099746E+00
         21   -1    0    0  502  501  0.00000000000E+00  0.00000000000E+00  0.14039867712E+03  0.14039867712E+03  0.00000000000E+00 0.  1.
         21   -1    0    0  501  502 -0.00000000000E+00 -0.00000000000E+00 -0.52966311023E+03  0.52966311023E+03  0.00000000000E+00 0.  1.
         25    1    1    2    0    0 -0.87692251551E+02  0.35571136669E+02  0.10372908551E+02  0.15712362642E+03  0.12500000000E+03 0.  0.
         25    1    1    2    0    0 -0.11024699936E+02  0.49325979319E+02 -0.22171532148E+03  0.25949427744E+03  0.12500000000E+03 0.  0.
         25    1    1    2    0    0  0.98716951487E+02 -0.84897115988E+02 -0.17792202019E+03  0.25344388350E+03  0.12500000000E+03 0.  0.
</event>
<event>
 5    0  0.5568866E-005  0.2259042E+03  0.7546771E-02  0.1129556E+00
         21   -1    0    0  502  501  0.00000000000E+00  0.00000000000E+00  0.18608936835E+03  0.18608936835E+03  0.00000000000E+00 0.  1.
         21   -1    0    0  501  502 -0.00000000000E+00 -0.00000000000E+00 -0.27423763936E+03  0.27423763936E+03  0.00000000000E+00 0.  1.
         25    1    1    2    0    0  0.90739662334E+02 -0.12991320990E+02 -0.92817279816E+02  0.18067237801E+03  0.12500000000E+03 0.  0.
         25    1    1    2    0    0 -0.69350315630E+02  0.32123194294E+02 -0.23389890245E+02  0.14836931238E+03  0.12500000000E+03 0.  0.
         25    1    1    2    0    0 -0.21389346704E+02 -0.19131873304E+02  0.28058899048E+02  0.13128531732E+03  0.12500000000E+03 0.  0.
</event>
<event>
 5    0  0.5568866E-005  0.2606975E+03  0.7546771E-02  0.1106725E+00
         21   -1    0    0  502  501  0.00000000000E+00  0.00000000000E+00  0.13110156730E+03  0.13110156730E+03  0.00000000000E+00 0. -1.
         21   -1    0    0  501  502 -0.00000000000E+00 -0.00000000000E+00 -0.51840110698E+03  0.51840110698E+03  0.00000000000E+00 0. -1.
         25    1    1    2    0    0  0.10692057572E+03  0.80003019839E+02 -0.17685979343E+03  0.25443443012E+03  0.12500000000E+03 0.  0.
         25    1    1    2    0    0 -0.12059409718E+03 -0.10326683322E+03 -0.15942971539E+03  0.25739038302E+03  0.12500000000E+03 0.  0.
         25    1    1    2    0    0  0.13673521467E+02  0.23263813376E+02 -0.51010030853E+02  0.13767786115E+03  0.12500000000E+03 0.  0.
</event>
<event>
 5    0  0.5568866E-005  0.4459141E+03  0.7546771E-02  0.1028948E+00
         21   -1    0    0  502  501  0.00000000000E+00  0.00000000000E+00  0.10921163333E+04  0.10921163333E+04  0.00000000000E+00 0. -1.
         21   -1    0    0  501  502 -0.00000000000E+00 -0.00000000000E+00 -0.18206798831E+03  0.18206798831E+03  0.00000000000E+00 0. -1.
         25    1    1    2    0    0  0.28058947865E+03  0.15438961196E+03  0.40831326027E+03  0.53377085563E+03  0.12500000000E+03 0.  0.
         25    1    1    2    0    0  0.13106593313E+02  0.38342363627E+02  0.22668730609E+02  0.13334463238E+03  0.12500000000E+03 0.  0.
         25    1    1    2    0    0 -0.29369607196E+03 -0.19273197559E+03  0.47906635415E+03  0.60706883364E+03  0.12500000000E+03 0.  0.
</event>
<event>
 5    0  0.5568866E-005  0.2841449E+03  0.7546771E-02  0.1093446E+00
         21   -1    0    0  502  501  0.00000000000E+00  0.00000000000E+00  0.26446386875E+03  0.26446386875E+03  0.00000000000E+00 0.  1.
         21   -1    0    0  501  502 -0.00000000000E+00 -0.00000000000E+00 -0.30529048964E+03  0.30529048964E+03  0.00000000000E+00 0.  1.
         25    1    1    2    0    0 -0.13782993199E+03 -0.83793830006E+02  0.12951679530E+02  0.20447797461E+03  0.12500000000E+03 0.  0.
         25    1    1    2    0    0  0.28288481072E+02 -0.47732385821E+02 -0.68222857385E+02  0.15283316750E+03  0.12500000000E+03 0.  0.
         25    1    1    2    0    0  0.10954145092E+03  0.13152621583E+03  0.14444556966E+02  0.21244321628E+03  0.12500000000E+03 0.  0.
</event>
<event>
 5    0  0.5568866E-005  0.4181897E+03  0.7546771E-02  0.1037657E+00
         21   -1    0    0  502  501  0.00000000000E+00  0.00000000000E+00  0.20572444641E+04  0.20572444641E+04  0.00000000000E+00 0. -1.
         21   -1    0    0  501  502 -0.00000000000E+00 -0.00000000000E+00 -0.85008183764E+02  0.85008183764E+02  0.00000000000E+00 0. -1.
         25    1    1    2    0    0  0.69825448578E+02  0.21786352029E+03  0.79884533221E+03  0.84030885485E+03  0.12500000000E+03 0.  0.
         25    1    1    2    0    0 -0.22489981571E+03  0.61927841501E+00  0.67609625057E+03  0.72340268913E+03  0.12500000000E+03 0.  0.
         25    1    1    2    0    0  0.15507436713E+03 -0.21848279870E+03  0.49729469761E+03  0.57854110393E+03  0.12500000000E+03 0.  0.
</event>
<event>
 5    0  0.5568866E-005  0.2671912E+03  0.7546771E-02  0.1102898E+00
         21   -1    0    0  502  501  0.00000000000E+00  0.00000000000E+00  0.40165063765E+03  0.40165063765E+03  0.00000000000E+00 0.  1.
         21   -1    0    0  501  502 -0.00000000000E+00 -0.00000000000E+00 -0.17774434509E+03  0.17774434509E+03  0.00000000000E+00 0.  1.
         25    1    1    2    0    0 -0.14212470859E+03  0.26304649219E+02  0.47942079178E+02  0.19701474645E+03  0.12500000000E+03 0.  0.
         25    1    1    2    0    0  0.91767401606E+02  0.43753503298E+02  0.16191538150E+02  0.16193452676E+03  0.12500000000E+03 0.  0.
         25    1    1    2    0    0  0.50357306983E+02 -0.70058152517E+02  0.15977267523E+03  0.22044570953E+03  0.12500000000E+03 0.  0.
</event>
<event>
 5    0  0.5568866E-005  0.3764352E+03  0.7546771E-02  0.1052259E+00
         21   -1    0    0  502  501  0.00000000000E+00  0.00000000000E+00  0.45829878889E+03  0.45829878889E+03  0.00000000000E+00 0. -1.
         21   -1    0    0  501  502 -0.00000000000E+00 -0.00000000000E+00 -0.30919442137E+03  0.30919442137E+03  0.00000000000E+00 0. -1.
         25    1    1    2    0    0 -0.28122768096E+02  0.97411410187E+02  0.40612607152E+02  0.16599474925E+03  0.12500000000E+03 0.  0.
         25    1    1    2    0    0 -0.11650688339E+03  0.18399568076E+03  0.36091095918E+02  0.25368451198E+03  0.12500000000E+03 0.  0.
         25    1    1    2    0    0  0.14462965149E+03 -0.28140709094E+03  0.72400664447E+02  0.34781394902E+03  0.12500000000E+03 0.  0.
</event>
<event>
 5    0  0.5568866E-005  0.2104865E+03  0.7546771E-02  0.1141181E+00
         21   -1    0    0  502  501  0.00000000000E+00  0.00000000000E+00  0.17317124447E+03  0.17317124447E+03  0.00000000000E+00 0. -1.
         21   -1    0    0  501  502 -0.00000000000E+00 -0.00000000000E+00 -0.25584254626E+03  0.25584254626E+03  0.00000000000E+00 0. -1.
         25    1    1    2    0    0 -0.38238437803E+02 -0.57405879007E+02  0.50745817879E+01  0.14285784700E+03  0.12500000000E+03 0.  0.
         25    1    1    2    0    0  0.36992668987E+02  0.59594736338E+02 -0.71185317001E+02  0.16003855634E+03  0.12500000000E+03 0.  0.
         25    1    1    2    0    0  0.12457688156E+01 -0.21888573316E+01 -0.16560566582E+02  0.12611738739E+03  0.12500000000E+03 0.  0.
</event>
<event>
 5    0  0.5568866E-005  0.2163471E+03  0.7546771E-02  0.1136636E+00
         21   -1    0    0  502  501  0.00000000000E+00  0.00000000000E+00  0.22490086039E+03  0.22490086039E+03  0.00000000000E+00 0.  1.
         21   -1    0    0  501  502 -0.00000000000E+00 -0.00000000000E+00 -0.20811858593E+03  0.20811858593E+03  0.00000000000E+00 0.  1.
         25    1    1    2    0    0  0.67007669773E+02 -0.60972891466E+02  0.24584590241E+02  0.15632377740E+03  0.12500000000E+03 0.  0.
         25    1    1    2    0    0 -0.57889119080E+02  0.18870250332E+02  0.23026245796E+02  0.14093418482E+03  0.12500000000E+03 0.  0.
         25    1    1    2    0    0 -0.91185506934E+01  0.42102641134E+02 -0.30828561584E+02  0.13576148411E+03  0.12500000000E+03 0.  0.
</event>
<event>
 5    0  0.5568866E-005  0.3322180E+03  0.7546771E-02  0.1070160E+00
         21   -1    0    0  502  501  0.00000000000E+00  0.00000000000E+00  0.80825881063E+03  0.80825881063E+03  0.00000000000E+00 0.  1.
         21   -1    0    0  501  502 -0.00000000000E+00 -0.00000000000E+00 -0.13655134417E+03  0.13655134417E+03  0.00000000000E+00 0.  1.
         25    1    1    2    0    0 -0.14595329059E+03  0.58752251367E+02  0.43033324644E+03  0.47493777810E+03  0.12500000000E+03 0.  0.
         25    1    1    2    0    0  0.15692171030E+03  0.17091844942E+02  0.25235815391E+03  0.32284081553E+03  0.12500000000E+03 0.  0.
         25    1    1    2    0    0 -0.10968419708E+02 -0.75844096309E+02 -0.10983933887E+02  0.14703156117E+03  0.12500000000E+03 0.  0.
</event>
<event>
 5    0  0.5568866E-005  0.2403196E+03  0.7546771E-02  0.1119580E+00
         21   -1    0    0  502  501  0.00000000000E+00  0.00000000000E+00  0.94188751947E+03  0.94188751947E+03  0.00000000000E+00 0.  1.
         21   -1    0    0  501  502 -0.00000000000E+00 -0.00000000000E+00 -0.61316785051E+02  0.61316785051E+02  0.00000000000E+00 0.  1.
         25    1    1    2    0    0  0.44746416325E+02  0.53883889111E+02  0.35012510047E+03  0.37830979536E+03  0.12500000000E+03 0.  0.
         25    1    1    2    0    0 -0.10494017768E+03 -0.64001132571E+02  0.38813240056E+03  0.42588771552E+03  0.12500000000E+03 0.  0.
         25    1    1    2    0    0  0.60193761357E+02  0.10117243460E+02  0.14231323338E+03  0.19900679364E+03  0.12500000000E+03 0.  0.
</event>
<event>
 5    0  0.5568866E-005  0.2575523E+03  0.7546771E-02  0.1108623E+00
         21   -1    0    0  502  501  0.00000000000E+00  0.00000000000E+00  0.14211855338E+03  0.14211855338E+03  0.00000000000E+00 0.  1.
         21   -1    0    0  501  502 -0.00000000000E+00 -0.00000000000E+00 -0.46674534411E+03  0.46674534411E+03  0.00000000000E+00 0.  1.
         25    1    1    2    0    0  0.58107747382E+02  0.92452802553E+01 -0.27938290119E+03  0.31167577864E+03  0.12500000000E+03 0.  0.
         25    1    1    2    0    0 -0.85780315523E+01 -0.72902593524E+02 -0.22720337605E+02  0.14672963064E+03  0.12500000000E+03 0.  0.
         25    1    1    2    0    0 -0.49529715830E+02  0.63657313269E+02 -0.22523551939E+02  0.15045848821E+03  0.12500000000E+03 0.  0.
</event>
<event>
 5    0  0.5568866E-005  0.2550198E+03  0.7546771E-02  0.1110173E+00
         21   -1    0    0  502  501  0.00000000000E+00  0.00000000000E+00  0.26661744003E+03  0.26661744003E+03  0.00000000000E+00 0.  1.
         21   -1    0    0  501  502 -0.00000000000E+00 -0.00000000000E+00 -0.24392655410E+03  0.24392655410E+03  0.00000000000E+00 0.  1.
         25    1    1    2    0    0 -0.73486968569E+02  0.37584403481E+02 -0.11803394368E+03  0.19070902914E+03  0.12500000000E+03 0.  0.
         25    1    1    2    0    0  0.42867108924E+00  0.20036301733E+02  0.92244661158E+02  0.15663880317E+03  0.12500000000E+03 0.  0.
         25    1    1    2    0    0  0.73058297480E+02 -0.57620705214E+02  0.48480168455E+02  0.16319616182E+03  0.12500000000E+03 0.  0.
</event>
<event>
 5    0  0.5568866E-005  0.2275244E+03  0.7546771E-02  0.1128394E+00
         21   -1    0    0  502  501  0.00000000000E+00  0.00000000000E+00  0.98249670906E+02  0.98249670906E+02  0.00000000000E+00 0.  1.
         21   -1    0    0  501  502 -0.00000000000E+00 -0.00000000000E+00 -0.52689579227E+03  0.52689579227E+03  0.00000000000E+00 0.  1.
         25    1    1    2    0    0 -0.26217220510E+02  0.19989447743E+02 -0.16408831694E+03  0.20889446242E+03  0.12500000000E+03 0.  0.
         25    1    1    2    0    0  0.93078117811E+02  0.21298236625E+02 -0.70404318036E+02  0.17233374277E+03  0.12500000000E+03 0.  0.
         25    1    1    2    0    0 -0.66860897301E+02 -0.41287684368E+02 -0.19415348638E+03  0.24391725799E+03  0.12500000000E+03 0.  0.
</event>
<event>
 5    0  0.5568866E-005  0.3602030E+03  0.7546771E-02  0.1058504E+00
         21   -1    0    0  502  501  0.00000000000E+00  0.00000000000E+00  0.60776275645E+03  0.60776275645E+03  0.00000000000E+00 0. -1.
         21   -1    0    0  501  502 -0.00000000000E+00 -0.00000000000E+00 -0.21348167628E+03  0.21348167628E+03  0.00000000000E+00 0. -1.
         25    1    1    2    0    0  0.22702104591E+03  0.82617055575E+02  0.14104619552E+03  0.30640359402E+03  0.12500000000E+03 0.  0.
         25    1    1    2    0    0 -0.11814063542E+03 -0.33057364885E+02  0.28922060564E+03  0.33811766863E+03  0.12500000000E+03 0.  0.
         25    1    1    2    0    0 -0.10888041049E+03 -0.49559690691E+02 -0.35985721003E+02  0.17672317008E+03  0.12500000000E+03 0.  0.
</event>
<event>
 5    0  0.5568866E-005  0.2140236E+03  0.7546771E-02  0.1138419E+00
         21   -1    0    0  502  501  0.00000000000E+00  0.00000000000E+00  0.60179387030E+03  0.60179387030E+03  0.00000000000E+00 0.  1.
         21   -1    0    0  501  502 -0.00000000000E+00 -0.00000000000E+00 -0.76115948833E+02  0.76115948833E+02  0.00000000000E+00 0.  1.
         25    1    1    2    0    0 -0.67759442375E+02  0.45926545507E+02  0.14246334659E+03  0.20644949681E+03  0.12500000000E+03 0.  0.
         25    1    1    2    0    0  0.60339308850E+02 -0.44615492662E+02  0.16779600826E+03  0.22228781966E+03  0.12500000000E+03 0.  0.
         25    1    1    2    0    0  0.74201335250E+01 -0.13110528443E+01  0.21541856662E+03  0.24917250266E+03  0.12500000000E+03 0.  0.
</event>
<event>
 5    0  0.5568866E-005  0.3815007E+03  0.7546771E-02  0.1050380E+00
         21   -1    0    0  502  501  0.00000000000E+00  0.00000000000E+00  0.13008265492E+04  0.13008265492E+04  0.00000000000E+00 0. -1.
         21   -1    0    0  501  502 -0.00000000000E+00 -0.00000000000E+00 -0.11188485911E+03  0.11188485911E+03  0.00000000000E+00 0. -1.
         25    1    1    2    0    0 -0.10170609899E+03  0.13688765972E+03  0.20297352935E+03  0.29309659768E+03  0.12500000000E+03 0.  0.
         25    1    1    2    0    0 -0.93177168079E+01  0.82082325049E+02  0.74324172129E+02  0.16725253509E+03  0.12500000000E+03 0.  0.
         25    1    1    2    0    0  0.11102381579E+03 -0.21896998477E+03  0.91164398857E+03  0.95236227550E+03  0.12500000000E+03 0.  0.
</event>
<event>
 5    0  0.5568866E-005  0.5149132E+03  0.7546771E-02  0.1009958E+00
         21   -1    0    0  502  501  0.00000000000E+00  0.00000000000E+00  0.59504151968E+03  0.59504151968E+03  0.00000000000E+00 0. -1.
         21   -1    0    0  501  502 -0.00000000000E+00 -0.00000000000E+00 -0.44557497269E+03  0.44557497269E+03  0.00000000000E+00 0. -1.
         25    1    1    2    0    0 -0.13561067381E+03 -0.71663444578E+02 -0.26719151786E+02  0.19966175701E+03  0.12500000000E+03 0.  0.
         25    1    1    2    0    0 -0.22392515045E+03 -0.21061646540E+03  0.15584857495E+03  0.36662725870E+03  0.12500000000E+03 0.  0.
         25    1    1    2    0    0  0.35953582426E+03  0.28227990998E+03  0.20337123829E+02  0.47432747666E+03  0.12500000000E+03 0.  0.
</event>
<event>
 5    0  0.5568866E-005  0.2261853E+03  0.7546771E-02  0.1129354E+00
         21   -1    0    0  502  501  0.00000000000E+00  0.00000000000E+00  0.16703235303E+03  0.16703235303E+03  0.00000000000E+00 0.  1.
         21   -1    0    0  501  502 -0.00000000000E+00 -0.00000000000E+00 -0.30628663979E+03  0.30628663979E+03  0.00000000000E+00 0.  1.
         25    1    1    2    0    0 -0.10850923412E+02 -0.25206548198E+02 -0.18499660761E+01  0.12799037067E+03  0.12500000000E+03 0.  0.
         25    1    1    2    0    0 -0.72355915599E+02 -0.39055005474E+02 -0.92620425138E+02  0.17596651706E+03  0.12500000000E+03 0.  0.
         25    1    1    2    0    0  0.83206839011E+02  0.64261553672E+02 -0.44783895537E+02  0.16936210508E+03  0.12500000000E+03 0.  0.
</event>
<event>
 5    0  0.5568866E-005  0.5111624E+03  0.7546771E-02  0.1010906E+00
         21   -1    0    0  502  501  0.00000000000E+00  0.00000000000E+00  0.80847101796E+03  0.80847101796E+03  0.00000000000E+00 0.  1.
         21   -1    0    0  501  502 -0.00000000000E+00 -0.00000000000E+00 -0.32318663789E+03  0.32318663789E+03  0.00000000000E+00 0.  1.
         25    1    1    2    0    0  0.72283414218E+02 -0.44855477522E+02  0.12622598512E+03  0.19696422303E+03  0.12500000000E+03 0.  0.
         25    1    1    2    0    0  0.27592465449E+03  0.95169913565E+02 -0.10922878711E+03  0.33577917645E+03  0.12500000000E+03 0.  0.
         25    1    1    2    0    0 -0.34820806871E+03 -0.50314436043E+02  0.46828718206E+03  0.59891425636E+03  0.12500000000E+03 0.  0.
</event>
<event>
 5    0  0.5568866E-005  0.2745989E+03  0.7546771E-02  0.1098676E+00
         21   -1    0    0  502  501  0.00000000000E+00  0.00000000000E+00  0.29362040853E+03  0.29362040853E+03  0.00000000000E+00 0. -1.
         21   -1    0    0  501  502 -0.00000000000E+00 -0.00000000000E+00 -0.25680959627E+03  0.25680959627E+03  0.00000000000E+00 0. -1.
         25    1    1    2    0    0  0.11402021974E+03 -0.36171385329E+02 -0.44733758327E+02  0.17870391367E+03  0.12500000000E+03 0.  0.
         25    1    1    2    0    0 -0.17081292462E+03 -0.97812370514E+01  0.15110124023E+02  0.21242891438E+03  0.12500000000E+03 0.  0.
         25    1    1    2    0    0  0.56792704879E+02  0.45952622380E+02  0.66434446570E+02  0.15929717676E+03  0.12500000000E+03 0.  0.
</event>
<event>
 5    0  0.5568866E-005  0.2948536E+03  0.7546771E-02  0.1087842E+00
         21   -1    0    0  502  501  0.00000000000E+00  0.00000000000E+00  0.13784735447E+03  0.13784735447E+03  0.00000000000E+00 0. -1.
         21   -1    0    0  501  502 -0.00000000000E+00 -0.00000000000E+00 -0.63068787462E+03  0.63068787462E+03  0.00000000000E+00 0. -1.
         25    1    1    2    0    0 -0.53369207741E+01  0.81562005646E+02 -0.10050455720E+03  0.18001946980E+03  0.12500000000E+03 0.  0.
         25    1    1    2    0    0  0.28625339138E+02  0.10874355440E+02  0.34843947883E+02  0.13332952543E+03  0.12500000000E+03 0.  0.
         25    1    1    2    0    0 -0.23288418363E+02 -0.92436361086E+02 -0.42717991083E+03  0.45518623387E+03  0.12500000000E+03 0.  0.
</event>
<event>
 5    0  0.5568866E-005  0.3540543E+03  0.7546771E-02  0.1060963E+00
         21   -1    0    0  502  501  0.00000000000E+00  0.00000000000E+00  0.40061067134E+03  0.40061067134E+03  0.00000000000E+00 0. -1.
         21   -1    0    0  501  502 -0.00000000000E+00 -0.00000000000E+00 -0.31290833457E+03  0.31290833457E+03  0.00000000000E+00 0. -1.
         25    1    1    2    0    0  0.55158923131E+02  0.13702704671E+03  0.53500979493E+02  0.20076422275E+03  0.12500000000E+03 0.  0.
         25    1    1    2    0    0  0.12920677886E+03  0.46809454202E+02 -0.79897268301E+02  0.20222287256E+03  0.12500000000E+03 0.  0.
         25    1    1    2    0    0 -0.18436570199E+03 -0.18383650091E+03  0.11409862557E+03  0.31053191059E+03  0.12500000000E+03 0.  0.
</event>
<event>
 5    0  0.5568866E-005  0.3023962E+03  0.7546771E-02  0.1084049E+00
         21   -1    0    0  502  501  0.00000000000E+00  0.00000000000E+00  0.36261179864E+03  0.36261179864E+03  0.00000000000E+00 0. -1.
         21   -1    0    0  501  502 -0.00000000000E+00 -0.00000000000E+00 -0.25218009339E+03  0.25218009339E+03  0.00000000000E+00 0. -1.
         25    1    1    2    0    0  0.48647039986E+02 -0.18179541790E+03  0.11403380246E+03  0.25307077384E+03  0.12500000000E+03 0.  0.
         25    1    1    2    0    0  0.34554510920E+02  0.69290797036E+02  0.66561371954E+02  0.16140212209E+03  0.12500000000E+03 0.  0.
         25    1    1    2    0    0 -0.83201550907E+02  0.11250462086E+03 -0.70163469170E+02  0.20031899609E+03  0.12500000000E+03 0.  0.
</event>
<event>
 5    0  0.5568866E-005  0.2801520E+03  0.7546771E-02  0.1095606E+00
         21   -1    0    0  502  501  0.00000000000E+00  0.00000000000E+00  0.90019710424E+03  0.90019710424E+03  0.00000000000E+00 0. -1.
         21   -1    0    0  501  502 -0.00000000000E+00 -0.00000000000E+00 -0.87186596606E+02  0.87186596606E+02  0.00000000000E+00 0. -1.
         25    1    1    2    0    0 -0.10189204029E+03 -0.95569283213E+02  0.20696517168E+03  0.27924014406E+03  0.12500000000E+03 0.  0.
         25    1    1    2    0    0  0.64777470448E+02  0.15069218979E+02  0.50527378591E+03  0.52473784003E+03  0.12500000000E+03 0.  0.
         25    1    1    2    0    0  0.37114569847E+02  0.80500064233E+02  0.10077155005E+03  0.18340571675E+03  0.12500000000E+03 0.  0.
</event>
<event>
 5    0  0.5568866E-005  0.3293114E+03  0.7546771E-02  0.1071442E+00
         21   -1    0    0  502  501  0.00000000000E+00  0.00000000000E+00  0.26921734542E+03  0.26921734542E+03  0.00000000000E+00 0. -1.
         21   -1    0    0  501  502 -0.00000000000E+00 -0.00000000000E+00 -0.40281942388E+03  0.40281942388E+03  0.00000000000E+00 0. -1.
         25    1    1    2    0    0 -0.15260244019E+03 -0.79314242718E+02  0.30436684541E+02  0.21477813114E+03  0.12500000000E+03 0.  0.
         25    1    1    2    0    0  0.21428481626E+03  0.16068492956E+02 -0.23927262596E+02  0.24974725793E+03  0.12500000000E+03 0.  0.
         25    1    1    2    0    0 -0.61682376070E+02  0.63245749762E+02 -0.14011150040E+03  0.20751138023E+03  0.12500000000E+03 0.  0.
</event>
<event>
 5    0  0.5568866E-005  0.3992409E+03  0.7546771E-02  0.1044043E+00
         21   -1    0    0  502  501  0.00000000000E+00  0.00000000000E+00  0.22166236967E+03  0.22166236967E+03  0.00000000000E+00 0.  1.
         21   -1    0    0  501  502 -0.00000000000E+00 -0.00000000000E+00 -0.71908139194E+03  0.71908139194E+03  0.00000000000E+00 0.  1.
         25    1    1    2    0    0  0.52149622663E+02 -0.90725381526E+02 -0.28179911429E+03  0.32555555411E+03  0.12500000000E+03 0.  0.
         25    1    1    2    0    0 -0.19413335556E+02 -0.19798143827E+03 -0.46639472275E+01  0.23498995702E+03  0.12500000000E+03 0.  0.
         25    1    1    2    0    0 -0.32736287107E+02  0.28870681980E+03 -0.21095596075E+03  0.38019825048E+03  0.12500000000E+03 0.  0.
</event>
<event>
 5    0  0.5568866E-005  0.4606899E+03  0.7546771E-02  0.1024581E+00
         21   -1    0    0  502  501  0.00000000000E+00  0.00000000000E+00  0.32530924549E+03  0.32530924549E+03  0.00000000000E+00 0.  1.
         21   -1    0    0  501  502 -0.00000000000E+00 -0.00000000000E+00 -0.65241044707E+03  0.65241044707E+03  0.00000000000E+00 0.  1.
         25    1    1    2    0    0 -0.14822810048E+03 -0.77832594863E+02  0.17487757303E+02  0.20966712725E+03  0.12500000000E+03 0.  0.
         25    1    1    2    0    0 -0.14660335125E+03 -0.83648663538E+02 -0.35135041044E+03  0.40934307424E+03  0.12500000000E+03 0.  0.
         25    1    1    2    0    0  0.29483145174E+03  0.16148125840E+03  0.67614515572E+01  0.35870949106E+03  0.12500000000E+03 0.  0.
</event>
<event>
 5    0  0.5568866E-005  0.2701275E+03  0.7546771E-02  0.1101207E+00
         21   -1    0    0  502  501  0.00000000000E+00  0.00000000000E+00  0.40860380128E+03  0.40860380128E+03  0.00000000000E+00 0.  1.
         21   -1    0    0  501  502 -0.00000000000E+00 -0.00000000000E+00 -0.17858093843E+03  0.17858093843E+03  0.00000000000E+00 0.  1.
         25    1    1    2    0    0  0.30852881260E+02  0.86939632737E+02  0.22282900199E+03  0.27163976909E+03  0.12500000000E+03 0.  0.
         25    1    1    2    0    0  0.59585844369E+02 -0.75060359177E+02 -0.18820712571E+02  0.15863085952E+03  0.12500000000E+03 0.  0.
         25    1    1    2    0    0 -0.90438725629E+02 -0.11879273561E+02  0.26014573426E+02  0.15691411111E+03  0.12500000000E+03 0.  0.
</event>
<event>
 5    0  0.5568866E-005  0.3804274E+03  0.7546771E-02  0.1050776E+00
         21   -1    0    0  502  501  0.00000000000E+00  0.00000000000E+00  0.28195836003E+03  0.28195836003E+03  0.00000000000E+00 0.  1.
         21   -1    0    0  501  502 -0.00000000000E+00 -0.00000000000E+00 -0.51328501440E+03  0.51328501440E+03  0.00000000000E+00 0. -1.
         25    1    1    2    0    0  0.82134792309E+02 -0.96011726916E+02 -0.35029653808E+02  0.18115311882E+03  0.12500000000E+03 0.  0.
         25    1    1    2    0    0 -0.26933149332E+03 -0.13986062728E+01 -0.21726551553E+03  0.36792759292E+03  0.12500000000E+03 0.  0.
         25    1    1    2    0    0  0.18719670101E+03  0.97410333189E+02  0.20968514970E+02  0.24616266268E+03  0.12500000000E+03 0.  0.
</event>
<event>
 5    0  0.5568866E-005  0.2727701E+03  0.7546771E-02  0.1099705E+00
         21   -1    0    0  502  501  0.00000000000E+00  0.00000000000E+00  0.37337894921E+02  0.37337894921E+02  0.00000000000E+00 0. -1.
         21   -1    0    0  501  502 -0.00000000000E+00 -0.00000000000E+00 -0.19927088345E+04  0.19927088345E+04  0.00000000000E+00 0. -1.
         25    1    1    2    0    0 -0.14187485849E+02  0.27947817646E+02 -0.36325630539E+03  0.38543807371E+03  0.12500000000E+03 0.  0.
         25    1    1    2    0    0 -0.19671462596E+02 -0.48342203500E+02 -0.14286907564E+04  0.14350979801E+04  0.12500000000E+03 0.  0.
         25    1    1    2    0    0  0.33858948445E+02  0.20394385854E+02 -0.16342387787E+03  0.20951067567E+03  0.12500000000E+03 0.  0.
</event>
<event>
 5    0  0.5568866E-005  0.3519717E+03  0.7546771E-02  0.1061809E+00
         21   -1    0    0  502  501  0.00000000000E+00  0.00000000000E+00  0.13950724873E+04  0.13950724873E+04  0.00000000000E+00 0.  1.
         21   -1    0    0  501  502 -0.00000000000E+00 -0.00000000000E+00 -0.88801180198E+02  0.88801180198E+02  0.00000000000E+00 0.  1.
         25    1    1    2    0    0  0.14286883823E+03  0.51069901876E+02  0.28158882637E+03  0.34341943299E+03  0.12500000000E+03 0.  0.
         25    1    1    2    0    0 -0.22238675764E+03 -0.16979380144E+03  0.55758196345E+03  0.63624559012E+03  0.12500000000E+03 0.  0.
         25    1    1    2    0    0  0.79517919411E+02  0.11872389957E+03  0.46710051728E+03  0.50420864439E+03  0.12500000000E+03 0.  0.
</event>
<event>
 5    0  0.5568866E-005  0.2725893E+03  0.7546771E-02  0.1099807E+00
         21   -1    0    0  502  501  0.00000000000E+00  0.00000000000E+00  0.63205230255E+03  0.63205230255E+03  0.00000000000E+00 0.  1.
         21   -1    0    0  501  502 -0.00000000000E+00 -0.00000000000E+00 -0.11756138112E+03  0.11756138112E+03  0.00000000000E+00 0.  1.
         25    1    1    2    0    0  0.21293767171E+02 -0.86956029046E+02  0.35896502410E+03  0.39050693212E+03  0.12500000000E+03 0.  0.
         25    1    1    2    0    0 -0.62690490766E+02  0.70752582284E+01  0.14971244227E+03  0.20498529772E+03  0.12500000000E+03 0.  0.
         25    1    1    2    0    0  0.41396723595E+02  0.79880770817E+02  0.58134550565E+01  0.15412145383E+03  0.12500000000E+03 0.  0.
</event>
<event>
 5    0  0.5568866E-005  0.2749814E+03  0.7546771E-02  0.1098462E+00
         21   -1    0    0  502  501  0.00000000000E+00  0.00000000000E+00  0.12637151733E+03  0.12637151733E+03  0.00000000000E+00 0. -1.
         21   -1    0    0  501  502 -0.00000000000E+00 -0.00000000000E+00 -0.59835285464E+03  0.59835285464E+03  0.00000000000E+00 0. -1.
         25    1    1    2    0    0  0.10298731722E+03  0.55454350307E+02 -0.48940320664E+02  0.17804978928E+03  0.12500000000E+03 0.  0.
         25    1    1    2    0    0 -0.75042191874E+02  0.32142850441E+02 -0.78219260816E+02  0.16854597639E+03  0.12500000000E+03 0.  0.
         25    1    1    2    0    0 -0.27945125346E+02 -0.87597200748E+02 -0.34482175583E+03  0.37812860630E+03  0.12500000000E+03 0.  0.
</event>
<event>
 5    0  0.5730324E-005  0.4300785E+03  0.7546771E-02  0.1033835E+00
         21   -1    0    0  502  501  0.00000000000E+00  0.00000000000E+00  0.26698683194E+03  0.26698683194E+03  0.00000000000E+00 0. -1.
         21   -1    0    0  501  502 -0.00000000000E+00 -0.00000000000E+00 -0.69279654982E+03  0.69279654982E+03  0.00000000000E+00 0. -1.
         25    1    1    2    0    0 -0.24519457475E+03  0.21441431970E+02 -0.22653891228E+02  0.27698070921E+03  0.12500000000E+03 0.  0.
         25    1    1    2    0    0  0.12335621721E+03  0.19793336195E+03 -0.24658978021E+03  0.36169862013E+03  0.12500000000E+03 0.  0.
         25    1    1    2    0    0  0.12183835753E+03 -0.21937479392E+03 -0.15656604644E+03  0.32110405241E+03  0.12500000000E+03 0.  0.
</event>
<event>
 5    0  0.5568866E-005  0.4055404E+03  0.7546771E-02  0.1041878E+00
         21   -1    0    0  502  501  0.00000000000E+00  0.00000000000E+00  0.32250650395E+03  0.32250650395E+03  0.00000000000E+00 0. -1.
         21   -1    0    0  501  502 -0.00000000000E+00 -0.00000000000E+00 -0.50995267634E+03  0.50995267634E+03  0.00000000000E+00 0. -1.
         25    1    1    2    0    0  0.65557852847E+02 -0.26301411450E+03 -0.54929428605E+02  0.30350699929E+03  0.12500000000E+03 0.  0.
         25    1    1    2    0    0  0.38693470810E+02 -0.28572809470E+02  0.56345948368E+02  0.14530470062E+03  0.12500000000E+03 0.  0.
         25    1    1    2    0    0 -0.10425132366E+03  0.29158692397E+03 -0.18886269215E+03  0.38364748038E+03  0.12500000000E+03 0.  0.
</event>
<event>
 5    0  0.5568866E-005  0.2791005E+03  0.7546771E-02  0.1096181E+00
         21   -1    0    0  502  501  0.00000000000E+00  0.00000000000E+00  0.39544016109E+03  0.39544016109E+03  0.00000000000E+00 0. -1.
         21   -1    0    0  501  502 -0.00000000000E+00 -0.00000000000E+00 -0.19698827252E+03  0.19698827252E+03  0.00000000000E+00 0. -1.
         25    1    1    2    0    0 -0.25640825096E+02 -0.35192746676E+02  0.13865886490E+03  0.19169575412E+03  0.12500000000E+03 0.  0.
         25    1    1    2    0    0  0.79818521625E+02 -0.33246607089E+02  0.15811244771E+03  0.21931912684E+03  0.12500000000E+03 0.  0.
         25    1    1    2    0    0 -0.54177696530E+02  0.68439353765E+02 -0.98319424041E+02  0.18141355266E+03  0.12500000000E+03 0.  0.
</event>
<event>
 5    0  0.5568866E-005  0.3823685E+03  0.7546771E-02  0.1050062E+00
         21   -1    0    0  502  501  0.00000000000E+00  0.00000000000E+00  0.19555796662E+03  0.19555796662E+03  0.00000000000E+00 0.  1.
         21   -1    0    0  501  502 -0.00000000000E+00 -0.00000000000E+00 -0.74763328748E+03  0.74763328748E+03  0.00000000000E+00 0.  1.
         25    1    1    2    0    0 -0.26596145177E+03  0.58833604081E+02 -0.23646110777E+03  0.38175350985E+03  0.12500000000E+03 0.  0.
         25    1    1    2    0    0  0.51096334252E+02  0.90832535841E+02 -0.56062570459E+02  0.17213191670E+03  0.12500000000E+03 0.  0.
         25    1    1    2    0    0  0.21486511752E+03 -0.14966613992E+03 -0.25955164263E+03  0.38930582754E+03  0.12500000000E+03 0.  0.
</event>
<event>
 5    0  0.5568866E-005  0.3501415E+03  0.7546771E-02  0.1062557E+00
         21   -1    0    0  502  501  0.00000000000E+00  0.00000000000E+00  0.20698487346E+04  0.20698487346E+04  0.00000000000E+00 0. -1.
         21   -1    0    0  501  502 -0.00000000000E+00 -0.00000000000E+00 -0.59230929214E+02  0.59230929214E+02  0.00000000000E+00 0. -1.
         25    1    1    2    0    0 -0.15943729776E+03 -0.12182739907E+03  0.10952746679E+04  0.11204971063E+04  0.12500000000E+03 0.  0.
         25    1    1    2    0    0  0.63331119938E+02 -0.16949260468E+01  0.10844998110E+03  0.17720073907E+03  0.12500000000E+03 0.  0.
         25    1    1    2    0    0  0.96106177821E+02  0.12352232511E+03  0.80689315640E+03  0.83138181846E+03  0.12500000000E+03 0.  0.
</event>
<event>
 5    0  0.5568866E-005  0.3216649E+03  0.7546771E-02  0.1074886E+00
         21   -1    0    0  502  501  0.00000000000E+00  0.00000000000E+00  0.28632647683E+03  0.28632647683E+03  0.00000000000E+00 0. -1.
         21   -1    0    0  501  502 -0.00000000000E+00 -0.00000000000E+00 -0.36136476821E+03  0.36136476821E+03  0.00000000000E+00 0. -1.
         25    1    1    2    0    0  0.10663825692E+03  0.11374870396E+03 -0.48575151611E+02  0.20565755723E+03  0.12500000000E+03 0.  0.
         25    1    1    2    0    0 -0.71975827536E+02 -0.18953652511E+03 -0.11831299143E+03  0.26594656990E+03  0.12500000000E+03 0.  0.
         25    1    1    2    0    0 -0.34662429382E+02  0.75787821147E+02  0.91849851661E+02  0.17608711791E+03  0.12500000000E+03 0.  0.
</event>
<event>
 5    0  0.5568866E-005  0.5982898E+03  0.7546771E-02  0.9908961E-01
         21   -1    0    0  502  501  0.00000000000E+00  0.00000000000E+00  0.22084416455E+04  0.22084416455E+04  0.00000000000E+00 0. -1.
         21   -1    0    0  501  502 -0.00000000000E+00 -0.00000000000E+00 -0.16208291588E+03  0.16208291588E+03  0.00000000000E+00 0. -1.
         25    1    1    2    0    0  0.33238855571E+02 -0.22075044648E+03  0.68826167094E+03  0.73427835923E+03  0.12500000000E+03 0.  0.
         25    1    1    2    0    0 -0.35473280624E+03  0.37157281736E+03  0.89422137032E+03  0.10388255780E+04  0.12500000000E+03 0.  0.
         25    1    1    2    0    0  0.32149395067E+03 -0.15082237088E+03  0.46387568833E+03  0.59742062409E+03  0.12500000000E+03 0.  0.
</event>
<event>
 5    0  0.5568866E-005  0.2338058E+03  0.7546771E-02  0.1123989E+00
         21   -1    0    0  502  501  0.00000000000E+00  0.00000000000E+00  0.26316819175E+03  0.26316819175E+03  0.00000000000E+00 0.  1.
         21   -1    0    0  501  502 -0.00000000000E+00 -0.00000000000E+00 -0.20771948065E+03  0.20771948065E+03  0.00000000000E+00 0.  1.
         25    1    1    2    0    0  0.21064681600E+02 -0.30359500805E+02 -0.59979610394E+02  0.14348509945E+03  0.12500000000E+03 0.  0.
         25    1    1    2    0    0 -0.86374179615E+02 -0.25274804999E+02  0.69564582223E+02  0.16900753170E+03  0.12500000000E+03 0.  0.
         25    1    1    2    0    0  0.65309498015E+02  0.55634305805E+02  0.45863739275E+02  0.15839504125E+03  0.12500000000E+03 0.  0.
</event>
<event>
 5    0  0.5589994E-005  0.2959998E+03  0.7546771E-02  0.1087258E+00
         21   -1    0    0  502  501  0.00000000000E+00  0.00000000000E+00  0.23921731115E+03  0.23921731115E+03  0.00000000000E+00 0.  1.
         21   -1    0    0  501  502 -0.00000000000E+00 -0.00000000000E+00 -0.36626052973E+03  0.36626052973E+03  0.00000000000E+00 0.  1.
         25    1    1    2    0    0  0.19768414240E+03  0.39385539249E+02 -0.80188975286E+02  0.25037075032E+03  0.12500000000E+03 0.  0.
         25    1    1    2    0    0 -0.10829644120E+03 -0.91358168526E+01 -0.95382847446E+02  0.19113992234E+03  0.12500000000E+03 0.  0.
         25    1    1    2    0    0 -0.89387701201E+02 -0.30249722396E+02  0.48528604151E+02  0.16396716821E+03  0.12500000000E+03 0.  0.
</event>
<event>
 5    0  0.5568866E-005  0.4783067E+03  0.7546771E-02  0.1019602E+00
         21   -1    0    0  502  501  0.00000000000E+00  0.00000000000E+00  0.31795709640E+03  0.31795709640E+03  0.00000000000E+00 0.  1.
         21   -1    0    0  501  502 -0.00000000000E+00 -0.00000000000E+00 -0.71952255398E+03  0.71952255398E+03  0.00000000000E+00 0.  1.
         25    1    1    2    0    0  0.11551728494E+02  0.19449177775E+03 -0.35995667176E+03  0.42796530185E+03  0.12500000000E+03 0.  0.
         25    1    1    2    0    0 -0.23269927222E+03 -0.19073651647E+03  0.67977954263E+02  0.33282934407E+03  0.12500000000E+03 0.  0.
         25    1    1    2    0    0  0.22114754373E+03 -0.37552612789E+01 -0.10958674008E+03  0.27668500445E+03  0.12500000000E+03 0.  0.
</event>
<event>
 5    0  0.5568866E-005  0.2590287E+03  0.7546771E-02  0.1107728E+00
         21   -1    0    0  502  501  0.00000000000E+00  0.00000000000E+00  0.31562677604E+03  0.31562677604E+03  0.00000000000E+00 0.  1.
         21   -1    0    0  501  502 -0.00000000000E+00 -0.00000000000E+00 -0.21257978473E+03  0.21257978473E+03  0.00000000000E+00 0.  1.
         25    1    1    2    0    0  0.66912030920E+02 -0.41879166181E+02 -0.96281416717E+02  0.17642617620E+03  0.12500000000E+03 0.  0.
         25    1    1    2    0    0 -0.35623997160E+02 -0.28635601860E+02  0.14055132182E+03  0.19356843992E+03  0.12500000000E+03 0.  0.
         25    1    1    2    0    0 -0.31288033760E+02  0.70514768042E+02  0.58777086211E+02  0.15821194466E+03  0.12500000000E+03 0.  0.
</event>
<event>
 5    0  0.5568866E-005  0.2218884E+03  0.7546771E-02  0.1132483E+00
         21   -1    0    0  502  501  0.00000000000E+00  0.00000000000E+00  0.12419251655E+04  0.12419251655E+04  0.00000000000E+00 0.  1.
         21   -1    0    0  501  502 -0.00000000000E+00 -0.00000000000E+00 -0.39643679730E+02  0.39643679730E+02  0.00000000000E+00 0.  1.
         25    1    1    2    0    0 -0.73488219312E+02  0.27759421786E+02  0.39242873943E+03  0.41928083596E+03  0.12500000000E+03 0.  0.
         25    1    1    2    0    0  0.64631154006E+02  0.27192437907E+02  0.27376208434E+03  0.30901018360E+03  0.12500000000E+03 0.  0.
         25    1    1    2    0    0  0.88570653065E+01 -0.54951859693E+02  0.53609066202E+03  0.55327782568E+03  0.12500000000E+03 0.  0.
</event>
<event>
 5    0  0.5568866E-005  0.2924371E+03  0.7546771E-02  0.1089084E+00
         21   -1    0    0  502  501  0.00000000000E+00  0.00000000000E+00  0.37388494215E+03  0.37388494215E+03  0.00000000000E+00 0.  1.
         21   -1    0    0  501  502 -0.00000000000E+00 -0.00000000000E+00 -0.22873197769E+03  0.22873197769E+03  0.00000000000E+00 0.  1.
         25    1    1    2    0    0 -0.50780581869E+02  0.10740949142E+03 -0.15743968289E+01  0.17246143067E+03  0.12500000000E+03 0.  0.
         25    1    1    2    0    0  0.16571613546E+03 -0.34813958900E+02  0.12348270028E+03  0.24402218456E+03  0.12500000000E+03 0.  0.
         25    1    1    2    0    0 -0.11493555359E+03 -0.72595532522E+02  0.23244661012E+02  0.18613330462E+03  0.12500000000E+03 0.  0.
</event>
<event>
 5    0  0.5668087E-005  0.3103475E+03  0.7546771E-02  0.1080179E+00
         21   -1    0    0  502  501  0.00000000000E+00  0.00000000000E+00  0.39225907208E+03  0.39225907208E+03  0.00000000000E+00 0. -1.
         21   -1    0    0  501  502 -0.00000000000E+00 -0.00000000000E+00 -0.24554075596E+03  0.24554075596E+03  0.00000000000E+00 0. -1.
         25    1    1    2    0    0 -0.70612267007E+02  0.59666511579E+02 -0.13596696133E+03  0.20653861486E+03  0.12500000000E+03 0.  0.
         25    1    1    2    0    0  0.75909252440E+02 -0.10932306755E+03  0.11322424399E+03  0.21484523996E+03  0.12500000000E+03 0.  0.
         25    1    1    2    0    0 -0.52969854334E+01  0.49656555973E+02  0.16946103345E+03  0.21641597322E+03  0.12500000000E+03 0.  0.
</event>
<event>
 5    0  0.5568866E-005  0.2137199E+03  0.7546771E-02  0.1138654E+00
         21   -1    0    0  502  501  0.00000000000E+00  0.00000000000E+00  0.21819568593E+03  0.21819568593E+03  0.00000000000E+00 0. -1.
         21   -1    0    0  501  502 -0.00000000000E+00 -0.00000000000E+00 -0.20933588209E+03  0.20933588209E+03  0.00000000000E+00 0. -1.
         25    1    1    2    0    0  0.10940897908E+02  0.63309059066E+02 -0.56709082474E+02  0.15155414954E+03  0.12500000000E+03 0.  0.
         25    1    1    2    0    0 -0.16200433070E+02  0.36332652871E+01  0.34284677559E+02  0.13067552856E+03  0.12500000000E+03 0.  0.
         25    1    1    2    0    0  0.52595351614E+01 -0.66942324353E+02  0.31284208749E+02  0.14530188993E+03  0.12500000000E+03 0.  0.
</event>
<event>
 5    0  0.5568866E-005  0.4103032E+03  0.7546771E-02  0.1040269E+00
         21   -1    0    0  502  501  0.00000000000E+00  0.00000000000E+00  0.36740080109E+03  0.36740080109E+03  0.00000000000E+00 0. -1.
         21   -1    0    0  501  502 -0.00000000000E+00 -0.00000000000E+00 -0.45821547710E+03  0.45821547710E+03  0.00000000000E+00 0. -1.
         25    1    1    2    0    0  0.16043257657E+03 -0.13889681367E+03 -0.21493224090E+03  0.32688194299E+03  0.12500000000E+03 0.  0.
         25    1    1    2    0    0 -0.20018630012E+03  0.15717060631E+03  0.19916803009E+03  0.34651126743E+03  0.12500000000E+03 0.  0.
         25    1    1    2    0    0  0.39753723557E+02 -0.18273792638E+02 -0.75050465199E+02  0.15222306777E+03  0.12500000000E+03 0.  0.
</event>
<event>
 5    0  0.5568866E-005  0.4073554E+03  0.7546771E-02  0.1041262E+00
         21   -1    0    0  502  501  0.00000000000E+00  0.00000000000E+00  0.12706502300E+03  0.12706502300E+03  0.00000000000E+00 0.  1.
         21   -1    0    0  501  502 -0.00000000000E+00 -0.00000000000E+00 -0.13059328788E+04  0.13059328788E+04  0.00000000000E+00 0.  1.
         25    1    1    2    0    0  0.32827331647E+03 -0.12427510610E+03 -0.55754733084E+03  0.67059055946E+03  0.12500000000E+03 0.  0.
         25    1    1    2    0    0 -0.21000562668E+03  0.50807481445E+02 -0.29683259601E+03  0.38783805056E+03  0.12500000000E+03 0.  0.
         25    1    1    2    0    0 -0.11826768979E+03  0.73467624653E+02 -0.32448792896E+03  0.37456929180E+03  0.12500000000E+03 0.  0.
</event>
<event>
 5    0  0.6039870E-005  0.3232964E+03  0.7546771E-02  0.1074142E+00
         21   -1    0    0  502  501  0.00000000000E+00  0.00000000000E+00  0.59728040157E+03  0.59728040157E+03  0.00000000000E+00 0. -1.
         21   -1    0    0  501  502 -0.00000000000E+00 -0.00000000000E+00 -0.17499415496E+03  0.17499415496E+03  0.00000000000E+00 0. -1.
         25    1    1    2    0    0  0.41883685563E+02 -0.11464347758E+03  0.14856330932E+03  0.22933256844E+03  0.12500000000E+03 0.  0.
         25    1    1    2    0    0 -0.80947056324E+02  0.15670774538E+03  0.32984999781E+03  0.39438022826E+03  0.12500000000E+03 0.  0.
         25    1    1    2    0    0  0.39063370762E+02 -0.42064267801E+02 -0.56127060526E+02  0.14856175983E+03  0.12500000000E+03 0.  0.
</event>
<event>
 5    0  0.5568866E-005  0.1986606E+03  0.7546771E-02  0.1150874E+00
         21   -1    0    0  502  501  0.00000000000E+00  0.00000000000E+00  0.16826818266E+03  0.16826818266E+03  0.00000000000E+00 0.  1.
         21   -1    0    0  501  502 -0.00000000000E+00 -0.00000000000E+00 -0.23454255069E+03  0.23454255069E+03  0.00000000000E+00 0.  1.
         25    1    1    2    0    0  0.56543200312E+01  0.19133084186E+02 -0.13985956958E+02  0.12735247637E+03  0.12500000000E+03 0.  0.
         25    1    1    2    0    0 -0.48616046857E+02  0.10783453200E+02 -0.18793691635E+02  0.13586024334E+03  0.12500000000E+03 0.  0.
         25    1    1    2    0    0  0.42961726826E+02 -0.29916537386E+02 -0.33494719437E+02  0.13959801364E+03  0.12500000000E+03 0.  0.
</event>
<event>
 5    0  0.5568866E-005  0.2552219E+03  0.7546771E-02  0.1110048E+00
         21   -1    0    0  502  501  0.00000000000E+00  0.00000000000E+00  0.13172224100E+03  0.13172224100E+03  0.00000000000E+00 0.  1.
         21   -1    0    0  501  502 -0.00000000000E+00 -0.00000000000E+00 -0.49451192248E+03  0.49451192248E+03  0.00000000000E+00 0.  1.
         25    1    1    2    0    0 -0.41769791234E+01 -0.36931735608E+02 -0.39202140333E+02  0.13617344843E+03  0.12500000000E+03 0.  0.
         25    1    1    2    0    0  0.73103310214E+01  0.15029600194E+03 -0.13920600749E+03  0.24009506796E+03  0.12500000000E+03 0.  0.
         25    1    1    2    0    0 -0.31333518980E+01 -0.11336426633E+03 -0.18438153366E+03  0.24996564710E+03  0.12500000000E+03 0.  0.
</event>
<event>
 5    0  0.5568866E-005  0.2557765E+03  0.7546771E-02  0.1109708E+00
         21   -1    0    0  502  501  0.00000000000E+00  0.00000000000E+00  0.91789114348E+02  0.91789114348E+02  0.00000000000E+00 0. -1.
         21   -1    0    0  501  502 -0.00000000000E+00 -0.00000000000E+00 -0.71273842430E+03  0.71273842430E+03  0.00000000000E+00 0. -1.
         25    1    1    2    0    0  0.76241995382E+02  0.89161411897E+01 -0.97583754789E+02  0.17618152182E+03  0.12500000000E+03 0.  0.
         25    1    1    2    0    0 -0.10045776425E+03  0.14162656282E+02 -0.45363609986E+03  0.48135543450E+03  0.12500000000E+03 0.  0.
         25    1    1    2    0    0  0.24215768866E+02 -0.23078797472E+02 -0.69729455309E+02  0.14699058232E+03  0.12500000000E+03 0.  0.
</event>
<event>
 5    0  0.5568866E-005  0.3398032E+03  0.7546771E-02  0.1066880E+00
         21   -1    0    0  502  501  0.00000000000E+00  0.00000000000E+00  0.31707085471E+03  0.31707085471E+03  0.00000000000E+00 0. -1.
         21   -1    0    0  501  502 -0.00000000000E+00 -0.00000000000E+00 -0.36416527868E+03  0.36416527868E+03  0.00000000000E+00 0. -1.
         25    1    1    2    0    0  0.82445853476E+01  0.85207798717E+02 -0.15653029086E+02  0.15231007672E+03  0.12500000000E+03 0.  0.
         25    1    1    2    0    0 -0.10911377923E+03 -0.12021548243E+03 -0.20502061658E+03  0.28985519187E+03  0.12500000000E+03 0.  0.
         25    1    1    2    0    0  0.10086919388E+03  0.35007683711E+02  0.17357922169E+03  0.23907086480E+03  0.12500000000E+03 0.  0.
</event>
<event>
 5    0  0.5568866E-005  0.5112869E+03  0.7546771E-02  0.1010874E+00
         21   -1    0    0  502  501  0.00000000000E+00  0.00000000000E+00  0.92412812868E+03  0.92412812868E+03  0.00000000000E+00 0.  1.
         21   -1    0    0  501  502 -0.00000000000E+00 -0.00000000000E+00 -0.28287665169E+03  0.28287665169E+03  0.00000000000E+00 0.  1.
         25    1    1    2    0    0  0.17215808204E+02  0.10832877477E+03  0.66175717445E+03  0.68233354412E+03  0.12500000000E+03 0.  0.
         25    1    1    2    0    0 -0.10921227401E+03 -0.86797700349E+02 -0.20827271280E+03  0.28011369919E+03  0.12500000000E+03 0.  0.
         25    1    1    2    0    0  0.91996465802E+02 -0.21531074420E+02  0.18776701533E+03  0.24455753706E+03  0.12500000000E+03 0.  0.
</event>
<event>
 5    0  0.5568866E-005  0.4835703E+03  0.7546771E-02  0.1018159E+00
         21   -1    0    0  502  501  0.00000000000E+00  0.00000000000E+00  0.13872144214E+04  0.13872144214E+04  0.00000000000E+00 0. -1.
         21   -1    0    0  501  502 -0.00000000000E+00 -0.00000000000E+00 -0.16856821851E+03  0.16856821851E+03  0.00000000000E+00 0. -1.
         25    1    1    2    0    0 -0.12261197583E+03  0.15667951861E+03  0.50869333580E+03  0.56033568337E+03  0.12500000000E+03 0.  0.
         25    1    1    2    0    0  0.30338540685E+03  0.11166465735E+03  0.41002222463E+03  0.53689377485E+03  0.12500000000E+03 0.  0.
         25    1    1    2    0    0 -0.18077343102E+03 -0.26834417596E+03  0.29993064244E+03  0.45855318166E+03  0.12500000000E+03 0.  0.
</event>
<event>
 5    0  0.5568866E-005  0.2783921E+03  0.7546771E-02  0.1096570E+00
         21   -1    0    0  502  501  0.00000000000E+00  0.00000000000E+00  0.32531959774E+03  0.32531959774E+03  0.00000000000E+00 0. -1.
         21   -1    0    0  501  502 -0.00000000000E+00 -0.00000000000E+00 -0.23823396857E+03  0.23823396857E+03  0.00000000000E+00 0. -1.
         25    1    1    2    0    0  0.69097366621E+02 -0.90619285954E+01 -0.47816068654E+02  0.15089049356E+03  0.12500000000E+03 0.  0.
         25    1    1    2    0    0  0.59801661199E+02 -0.70229764386E+02  0.14980811082E+03  0.21581456984E+03  0.12500000000E+03 0.  0.
         25    1    1    2    0    0 -0.12889902782E+03  0.79291692981E+02 -0.14906412998E+02  0.19684850291E+03  0.12500000000E+03 0.  0.
</event>
<event>
 5    0  0.5568866E-005  0.3401507E+03  0.7546771E-02  0.1066732E+00
         21   -1    0    0  502  501  0.00000000000E+00  0.00000000000E+00  0.48242312397E+02  0.48242312397E+02  0.00000000000E+00 0. -1.
         21   -1    0    0  501  502 -0.00000000000E+00 -0.00000000000E+00 -0.23983613375E+04  0.23983613375E+04  0.00000000000E+00 0. -1.
         25    1    1    2    0    0 -0.92644587211E+02 -0.22258967379E+03 -0.14325955428E+04  0.14581097941E+04  0.12500000000E+03 0.  0.
         25    1    1    2    0    0  0.58989055395E+02  0.92375823086E+02 -0.59043673933E+03  0.61339509657E+03  0.12500000000E+03 0.  0.
         25    1    1    2    0    0  0.33655531816E+02  0.13021385070E+03 -0.32708674292E+03  0.37509875917E+03  0.12500000000E+03 0.  0.
</event>
<event>
 5    0  0.5568866E-005  0.3017075E+03  0.7546771E-02  0.1084390E+00
         21   -1    0    0  502  501  0.00000000000E+00  0.00000000000E+00  0.47182535199E+03  0.47182535199E+03  0.00000000000E+00 0.  1.
         21   -1    0    0  501  502 -0.00000000000E+00 -0.00000000000E+00 -0.19292606180E+03  0.19292606180E+03  0.00000000000E+00 0.  1.
         25    1    1    2    0    0  0.17285408869E+03 -0.48241407701E+02  0.16379822494E+03  0.27324097037E+03  0.12500000000E+03 0.  0.
         25    1    1    2    0    0 -0.76620898803E+02 -0.28443897030E+02  0.15109814040E+03  0.21245108953E+03  0.12500000000E+03 0.  0.
         25    1    1    2    0    0 -0.96233189883E+02  0.76685304731E+02 -0.35997075150E+02  0.17905935389E+03  0.12500000000E+03 0.  0.
</event>
<event>
 5    0  0.5568866E-005  0.2744437E+03  0.7546771E-02  0.1098763E+00
         21   -1    0    0  502  501  0.00000000000E+00  0.00000000000E+00  0.13670173351E+04  0.13670173351E+04  0.00000000000E+00 0. -1.
         21   -1    0    0  501  502 -0.00000000000E+00 -0.00000000000E+00 -0.55097558257E+02  0.55097558257E+02  0.00000000000E+00 0. -1.
         25    1    1    2    0    0 -0.10029315179E+03 -0.73421509374E+02  0.32089069050E+03  0.36612193267E+03  0.12500000000E+03 0.  0.
         25    1    1    2    0    0  0.12540343966E+03  0.63875860579E+02  0.30695127169E+03  0.36006975912E+03  0.12500000000E+03 0.  0.
         25    1    1    2    0    0 -0.25110287875E+02  0.95456487957E+01  0.68407781467E+03  0.69592320157E+03  0.12500000000E+03 0.  0.
</event>
<event>
 5    0  0.5568866E-005  0.6136497E+03  0.7546771E-02  0.9877485E-01
         21   -1    0    0  502  501  0.00000000000E+00  0.00000000000E+00  0.62331069176E+03  0.62331069176E+03  0.00000000000E+00 0.  1.
         21   -1    0    0  501  502 -0.00000000000E+00 -0.00000000000E+00 -0.60413851909E+03  0.60413851909E+03  0.00000000000E+00 0.  1.
         25    1    1    2    0    0 -0.42292403310E+02  0.45055223259E+03  0.29003570961E+03  0.55184388600E+03  0.12500000000E+03 0.  0.
         25    1    1    2    0    0 -0.34530824499E+02  0.11723924751E+02 -0.27966338640E+02  0.13318011995E+03  0.12500000000E+03 0.  0.
         25    1    1    2    0    0  0.76823227809E+02 -0.46227615734E+03 -0.24289719830E+03  0.54242520491E+03  0.12500000000E+03 0.  0.
</event>
<event>
 5    0  0.7304175E-005  0.5315562E+03  0.7546771E-02  0.1005855E+00
         21   -1    0    0  502  501  0.00000000000E+00  0.00000000000E+00  0.32188517092E+03  0.32188517092E+03  0.00000000000E+00 0.  1.
         21   -1    0    0  501  502 -0.00000000000E+00 -0.00000000000E+00 -0.87780377506E+03  0.87780377506E+03  0.00000000000E+00 0.  1.
         25    1    1    2    0    0  0.30189169460E+03 -0.15306302714E+03 -0.25926943835E+03  0.44431129539E+03  0.12500000000E+03 0.  0.
         25    1    1    2    0    0 -0.12595354213E+03  0.27286245071E+03 -0.37485110450E+03  0.49644391660E+03  0.12500000000E+03 0.  0.
         25    1    1    2    0    0 -0.17593815247E+03 -0.11979942357E+03  0.78201938715E+02  0.25893373399E+03  0.12500000000E+03 0.  0.
</event>
<event>
 5    0  0.5568866E-005  0.2520642E+03  0.7546771E-02  0.1112007E+00
         21   -1    0    0  502  501  0.00000000000E+00  0.00000000000E+00  0.87938150159E+02  0.87938150159E+02  0.00000000000E+00 0.  1.
         21   -1    0    0  501  502 -0.00000000000E+00 -0.00000000000E+00 -0.72251166729E+03  0.72251166729E+03  0.00000000000E+00 0.  1.
         25    1    1    2    0    0 -0.59710455870E+02 -0.16192604185E+02 -0.33185076663E+03  0.35996870737E+03  0.12500000000E+03 0.  0.
         25    1    1    2    0    0  0.12658537836E+03  0.40486538816E+02 -0.12187812946E+03  0.21941352803E+03  0.12500000000E+03 0.  0.
         25    1    1    2    0    0 -0.66874922491E+02 -0.24293934631E+02 -0.18084462105E+03  0.23106758206E+03  0.12500000000E+03 0.  0.
</event>
<event>
 5    0  0.5568866E-005  0.3415264E+03  0.7546771E-02  0.1066148E+00
         21   -1    0    0  502  501  0.00000000000E+00  0.00000000000E+00  0.11155129168E+03  0.11155129168E+03  0.00000000000E+00 0. -1.
         21   -1    0    0  501  502 -0.00000000000E+00 -0.00000000000E+00 -0.10456199597E+04  0.10456199597E+04  0.00000000000E+00 0. -1.
         25    1    1    2    0    0 -0.21490324123E+03 -0.10683668938E+03 -0.21598769917E+03  0.34622704614E+03  0.12500000000E+03 0.  0.
         25    1    1    2    0    0  0.19076125275E+03  0.35599129448E+02 -0.44909985373E+03  0.50494834606E+03  0.12500000000E+03 0.  0.
         25    1    1    2    0    0  0.24141988478E+02  0.71237559928E+02 -0.26898111516E+03  0.30599585923E+03  0.12500000000E+03 0.  0.
</event>
<event>
 5    0  0.5568866E-005  0.2541598E+03  0.7546771E-02  0.1110704E+00
         21   -1    0    0  502  501  0.00000000000E+00  0.00000000000E+00  0.33832304877E+03  0.33832304877E+03  0.00000000000E+00 0.  1.
         21   -1    0    0  501  502 -0.00000000000E+00 -0.00000000000E+00 -0.19093347887E+03  0.19093347887E+03  0.00000000000E+00 0.  1.
         25    1    1    2    0    0 -0.43146974937E+02  0.53203474865E+02  0.14151538975E+03  0.20085785203E+03  0.12500000000E+03 0.  0.
         25    1    1    2    0    0  0.97269373537E+02 -0.38384004288E+02  0.69692591967E+02  0.17724762393E+03  0.12500000000E+03 0.  0.
         25    1    1    2    0    0 -0.54122398600E+02 -0.14819470577E+02 -0.63818411813E+02  0.15115105168E+03  0.12500000000E+03 0.  0.
</event>
<event>
 5    0  0.5568866E-005  0.5280201E+03  0.7546771E-02  0.1006713E+00
         21   -1    0    0  502  501  0.00000000000E+00  0.00000000000E+00  0.46787409213E+03  0.46787409213E+03  0.00000000000E+00 0. -1.
         21   -1    0    0  501  502 -0.00000000000E+00 -0.00000000000E+00 -0.59589808956E+03  0.59589808956E+03  0.00000000000E+00 0. -1.
         25    1    1    2    0    0  0.17055277456E+03 -0.11570804804E+03  0.29772893060E+03  0.38307194808E+03  0.12500000000E+03 0.  0.
         25    1    1    2    0    0 -0.19009112398E+03  0.45157470960E+02 -0.10242823056E+01  0.23194801520E+03  0.12500000000E+03 0.  0.
         25    1    1    2    0    0  0.19538349420E+02  0.70550577078E+02 -0.42472864573E+03  0.44875221841E+03  0.12500000000E+03 0.  0.
</event>
<event>
 5    0  0.5771673E-005  0.3444238E+03  0.7546771E-02  0.1064927E+00
         21   -1    0    0  502  501  0.00000000000E+00  0.00000000000E+00  0.45293705044E+03  0.45293705044E+03  0.00000000000E+00 0. -1.
         21   -1    0    0  501  502 -0.00000000000E+00 -0.00000000000E+00 -0.26190782381E+03  0.26190782381E+03  0.00000000000E+00 0. -1.
         25    1    1    2    0    0 -0.39504490320E+02 -0.28690381569E+02 -0.15106956073E+03  0.20206621422E+03  0.12500000000E+03 0.  0.
         25    1    1    2    0    0  0.13954587286E+03 -0.70158560358E+01  0.80554814244E+02  0.20404987372E+03  0.12500000000E+03 0.  0.
         25    1    1    2    0    0 -0.10004138254E+03  0.35706237605E+02  0.26154397312E+03  0.30872878631E+03  0.12500000000E+03 0.  0.
</event>
<event>
 5    0  0.5568866E-005  0.2985927E+03  0.7546771E-02  0.1085946E+00
         21   -1    0    0  502  501  0.00000000000E+00  0.00000000000E+00  0.21984813952E+03  0.21984813952E+03  0.00000000000E+00 0.  1.
         21   -1    0    0  501  502 -0.00000000000E+00 -0.00000000000E+00 -0.40554163742E+03  0.40554163742E+03  0.00000000000E+00 0.  1.
         25    1    1    2    0    0 -0.54289303620E+02  0.45886053142E+02 -0.82307951899E+02  0.16568783089E+03  0.12500000000E+03 0.  0.
         25    1    1    2    0    0 -0.92532473963E+02 -0.65065276166E+02 -0.18424265808E+03  0.24973206834E+03  0.12500000000E+03 0.  0.
         25    1    1    2    0    0  0.14682177758E+03  0.19179223024E+02  0.80857112077E+02  0.20996987770E+03  0.12500000000E+03 0.  0.
</event>
<event>
 5    0  0.6383185E-005  0.2870959E+03  0.7546771E-02  0.1091875E+00
         21   -1    0    0  502  501  0.00000000000E+00  0.00000000000E+00  0.67618410938E+02  0.67618410938E+02  0.00000000000E+00 0. -1.
         21   -1    0    0  501  502 -0.00000000000E+00 -0.00000000000E+00 -0.12189587160E+04  0.12189587160E+04  0.00000000000E+00 0. -1.
         25    1    1    2    0    0 -0.68642407697E+02  0.37458463363E+02 -0.16415392172E+03  0.22065000935E+03  0.12500000000E+03 0.  0.
         25    1    1    2    0    0  0.15789031395E+03 -0.65347297155E+02 -0.34286277045E+03  0.40296339765E+03  0.12500000000E+03 0.  0.
         25    1    1    2    0    0 -0.89247906248E+02  0.27888833792E+02 -0.64432361286E+03  0.66296371991E+03  0.12500000000E+03 0.  0.
</event>
<event>
 5    0  0.5568866E-005  0.4335948E+03  0.7546771E-02  0.1032730E+00
         21   -1    0    0  502  501  0.00000000000E+00  0.00000000000E+00  0.15584429281E+03  0.15584429281E+03  0.00000000000E+00 0.  1.
         21   -1    0    0  501  502 -0.00000000000E+00 -0.00000000000E+00 -0.12063609347E+04  0.12063609347E+04  0.00000000000E+00 0.  1.
         25    1    1    2    0    0  0.47651344241E+02  0.10736236539E+02  0.95947508547E+02  0.16497527627E+03  0.12500000000E+03 0.  0.
         25    1    1    2    0    0 -0.82953497167E+02  0.90425998281E+02 -0.69329899926E+03  0.71508506224E+03  0.12500000000E+03 0.  0.
         25    1    1    2    0    0  0.35302152926E+02 -0.10116223482E+03 -0.45316515114E+03  0.48214488897E+03  0.12500000000E+03 0.  0.
</event>
<event>
 5    0  0.5568866E-005  0.4625377E+03  0.7546771E-02  0.1024048E+00
         21   -1    0    0  502  501  0.00000000000E+00  0.00000000000E+00  0.34717818502E+03  0.34717818502E+03  0.00000000000E+00 0.  1.
         21   -1    0    0  501  502 -0.00000000000E+00 -0.00000000000E+00 -0.61622858562E+03  0.61622858562E+03  0.00000000000E+00 0.  1.
         25    1    1    2    0    0 -0.10633832073E+03 -0.10999314081E+03 -0.11693206561E+03  0.22957447038E+03  0.12500000000E+03 0.  0.
         25    1    1    2    0    0  0.24893646751E+03 -0.16234950729E+03 -0.22614397548E+03  0.39381826395E+03  0.12500000000E+03 0.  0.
         25    1    1    2    0    0 -0.14259814678E+03  0.27234264811E+03  0.74025640480E+02  0.34001403631E+03  0.12500000000E+03 0.  0.
</event>
<event>
 5    0  0.6113462E-005  0.2734897E+03  0.7546771E-02  0.1099299E+00
         21   -1    0    0  502  501  0.00000000000E+00  0.00000000000E+00  0.42529458376E+03  0.42529458376E+03  0.00000000000E+00 0. -1.
         21   -1    0    0  501  502 -0.00000000000E+00 -0.00000000000E+00 -0.17587018508E+03  0.17587018508E+03  0.00000000000E+00 0.  1.
         25    1    1    2    0    0  0.43793908587E+02 -0.34472717961E+02 -0.22817477773E+02  0.13875125947E+03  0.12500000000E+03 0.  0.
         25    1    1    2    0    0  0.10605929179E+02 -0.10940314417E+03  0.74254568547E+02  0.18226429886E+03  0.12500000000E+03 0.  0.
         25    1    1    2    0    0 -0.54399837766E+02  0.14387586213E+03  0.19798730791E+03  0.28014921050E+03  0.12500000000E+03 0.  0.
</event>
<event>
 5    0  0.5568866E-005  0.2887368E+03  0.7546771E-02  0.1091011E+00
         21   -1    0    0  502  501  0.00000000000E+00  0.00000000000E+00  0.32008290400E+03  0.32008290400E+03  0.00000000000E+00 0. -1.
         21   -1    0    0  501  502 -0.00000000000E+00 -0.00000000000E+00 -0.26046045646E+03  0.26046045646E+03  0.00000000000E+00 0. -1.
         25    1    1    2    0    0  0.80405279066E+02 -0.67202809047E+02 -0.46422669610E+02  0.16959154077E+03  0.12500000000E+03 0.  0.
         25    1    1    2    0    0 -0.80017420726E+02  0.81096678217E+02 -0.79432891297E+02  0.18685299852E+03  0.12500000000E+03 0.  0.
         25    1    1    2    0    0 -0.38785833918E+00 -0.13893869170E+02  0.18547800844E+03  0.22409882117E+03  0.12500000000E+03 0.  0.
</event>
<event>
 5    0  0.5568866E-005  0.3619556E+03  0.7546771E-02  0.1057812E+00
         21   -1    0    0  502  501  0.00000000000E+00  0.00000000000E+00  0.81622557598E+03  0.81622557598E+03  0.00000000000E+00 0.  1.
         21   -1    0    0  501  502 -0.00000000000E+00 -0.00000000000E+00 -0.16050933078E+03  0.16050933078E+03  0.00000000000E+00 0.  1.
         25    1    1    2    0    0 -0.26072799379E+03  0.11430059037E+03  0.22270898225E+03  0.38244999997E+03  0.12500000000E+03 0.  0.
         25    1    1    2    0    0  0.69018086115E+02 -0.10531687447E+03  0.17345940005E+03  0.24812961074E+03  0.12500000000E+03 0.  0.
         25    1    1    2    0    0  0.19170990767E+03 -0.89837158958E+01  0.25954786290E+03  0.34615529606E+03  0.12500000000E+03 0.  0.
</event>
<event>
 5    0  0.5568866E-005  0.3628434E+03  0.7546771E-02  0.1057464E+00
         21   -1    0    0  502  501  0.00000000000E+00  0.00000000000E+00  0.22371553103E+03  0.22371553103E+03  0.00000000000E+00 0. -1.
         21   -1    0    0  501  502 -0.00000000000E+00 -0.00000000000E+00 -0.58849428215E+03  0.58849428215E+03  0.00000000000E+00 0. -1.
         25    1    1    2    0    0  0.60948056312E+02  0.30438497764E+02 -0.42989182184E+03  0.45285002617E+03  0.12500000000E+03 0.  0.
         25    1    1    2    0    0  0.81827378802E+02 -0.22569354331E+02 -0.17768397901E+02  0.15213747612E+03  0.12500000000E+03 0.  0.
         25    1    1    2    0    0 -0.14277543511E+03 -0.78691434336E+01  0.82881468619E+02  0.20722231089E+03  0.12500000000E+03 0.  0.
</event>
<event>
 5    0  0.5568866E-005  0.2672709E+03  0.7546771E-02  0.1102852E+00
         21   -1    0    0  502  501  0.00000000000E+00  0.00000000000E+00  0.26184923739E+03  0.26184923739E+03  0.00000000000E+00 0.  1.
         21   -1    0    0  501  502 -0.00000000000E+00 -0.00000000000E+00 -0.27280488040E+03  0.27280488040E+03  0.00000000000E+00 0.  1.
         25    1    1    2    0    0  0.22546300582E+02  0.70110303792E+02  0.15723685614E+03  0.21394443039E+03  0.12500000000E+03 0.  0.
         25    1    1    2    0    0 -0.16679612460E+02 -0.64304993086E+02 -0.12301731895E+03  0.18754093518E+03  0.12500000000E+03 0.  0.
         25    1    1    2    0    0 -0.58666881224E+01 -0.58053107053E+01 -0.45175180199E+02  0.13316875222E+03  0.12500000000E+03 0.  0.
</event>
<event>
 5    0  0.5568866E-005  0.3607297E+03  0.7546771E-02  0.1058295E+00
         21   -1    0    0  502  501  0.00000000000E+00  0.00000000000E+00  0.17993252008E+04  0.17993252008E+04  0.00000000000E+00 0.  1.
         21   -1    0    0  501  502 -0.00000000000E+00 -0.00000000000E+00 -0.72319288090E+02  0.72319288090E+02  0.00000000000E+00 0.  1.
         25    1    1    2    0    0  0.17810392017E+03  0.34190896270E+02  0.57988828327E+03  0.62031076473E+03  0.12500000000E+03 0.  0.
         25    1    1    2    0    0 -0.17301222851E+03 -0.15295807408E+03  0.36034906553E+03  0.44587649935E+03  0.12500000000E+03 0.  0.
         25    1    1    2    0    0 -0.50916916591E+01  0.11876717781E+03  0.78676856388E+03  0.80545722479E+03  0.12500000000E+03 0.  0.
</event>
<event>
 5    0  0.5806117E-005  0.2816336E+03  0.7546771E-02  0.1094800E+00
         21   -1    0    0  502  501  0.00000000000E+00  0.00000000000E+00  0.74393281388E+03  0.74393281388E+03  0.00000000000E+00 0. -1.
         21   -1    0    0  501  502 -0.00000000000E+00 -0.00000000000E+00 -0.10661916885E+03  0.10661916885E+03  0.00000000000E+00 0. -1.
         25    1    1    2    0    0  0.60426839159E+02  0.10767738792E+02  0.61660920662E+02  0.15229713138E+03  0.12500000000E+03 0.  0.
         25    1    1    2    0    0  0.73809394485E+02  0.10358954467E+03  0.28119434599E+03  0.33297729757E+03  0.12500000000E+03 0.  0.
         25    1    1    2    0    0 -0.13423623364E+03 -0.11435728346E+03  0.29445837837E+03  0.36527755378E+03  0.12500000000E+03 0.  0.
</event>
<event>
 5    0  0.5568866E-005  0.2213800E+03  0.7546771E-02  0.1132858E+00
         21   -1    0    0  502  501  0.00000000000E+00  0.00000000000E+00  0.39825448058E+03  0.39825448058E+03  0.00000000000E+00 0. -1.
         21   -1    0    0  501  502 -0.00000000000E+00 -0.00000000000E+00 -0.12305973503E+03  0.12305973503E+03  0.00000000000E+00 0. -1.
         25    1    1    2    0    0  0.39422126452E+02 -0.78873723689E+01 -0.12633505847E+02  0.13191254742E+03  0.12500000000E+03 0.  0.
         25    1    1    2    0    0  0.18064909769E+01 -0.22673650771E+02  0.13416376078E+03  0.18477627704E+03  0.12500000000E+03 0.  0.
         25    1    1    2    0    0 -0.41228617429E+02  0.30561023140E+02  0.15366449061E+03  0.20462539115E+03  0.12500000000E+03 0.  0.
</event>
<event>
 5    0  0.5568866E-005  0.3700906E+03  0.7546771E-02  0.1054658E+00
         21   -1    0    0  502  501  0.00000000000E+00  0.00000000000E+00  0.88110233685E+02  0.88110233685E+02  0.00000000000E+00 0. -1.
         21   -1    0    0  501  502 -0.00000000000E+00 -0.00000000000E+00 -0.15544964538E+04  0.15544964538E+04  0.00000000000E+00 0. -1.
         25    1    1    2    0    0  0.77812655302E+02  0.48538080657E+02 -0.39398704328E+03  0.42339289658E+03  0.12500000000E+03 0.  0.
         25    1    1    2    0    0 -0.21149417185E+03 -0.23783284671E+02 -0.17389933225E+03  0.30192947374E+03  0.12500000000E+03 0.  0.
         25    1    1    2    0    0  0.13368151655E+03 -0.24754795986E+02 -0.89849984456E+03  0.91728431714E+03  0.12500000000E+03 0.  0.
</event>
<event>
 5    0  0.5568866E-005  0.2443437E+03  0.7546771E-02  0.1116933E+00
         21   -1    0    0  502  501  0.00000000000E+00  0.00000000000E+00  0.63082807092E+02  0.63082807092E+02  0.00000000000E+00 0.  1.
         21   -1    0    0  501  502 -0.00000000000E+00 -0.00000000000E+00 -0.94643620639E+03  0.94643620639E+03  0.00000000000E+00 0.  1.
         25    1    1    2    0    0 -0.52881789976E+02 -0.41419519790E+02 -0.89929101640E+02  0.16800090373E+03  0.12500000000E+03 0.  0.
         25    1    1    2    0    0  0.74922766694E+02  0.46111399436E+02 -0.45922059322E+03  0.48399197862E+03  0.12500000000E+03 0.  0.
         25    1    1    2    0    0 -0.22040976719E+02 -0.46918796457E+01 -0.33420370444E+03  0.35752613114E+03  0.12500000000E+03 0.  0.
</event>
<event>
 5    0  0.5568866E-005  0.2563998E+03  0.7546771E-02  0.1109326E+00
         21   -1    0    0  502  501  0.00000000000E+00  0.00000000000E+00  0.14882919534E+03  0.14882919534E+03  0.00000000000E+00 0. -1.
         21   -1    0    0  501  502 -0.00000000000E+00 -0.00000000000E+00 -0.44172010975E+03  0.44172010975E+03  0.00000000000E+00 0. -1.
         25    1    1    2    0    0  0.96143591225E+02  0.60737703258E+02 -0.93035732766E+02  0.19290750712E+03  0.12500000000E+03 0.  0.
         25    1    1    2    0    0 -0.93077700627E+02 -0.12617059928E+03 -0.13883684598E+03  0.24389167324E+03  0.12500000000E+03 0.  0.
         25    1    1    2    0    0 -0.30658905980E+01  0.65432896023E+02 -0.61018335663E+02  0.15375012473E+03  0.12500000000E+03 0.  0.
</event>
<event>
 5    0  0.5568866E-005  0.7928865E+03  0.7546771E-02  0.9570371E-01
         21   -1    0    0  502  501  0.00000000000E+00  0.00000000000E+00  0.45053775829E+03  0.45053775829E+03  0.00000000000E+00 0. -1.
         21   -1    0    0  501  502 -0.00000000000E+00 -0.00000000000E+00 -0.13953745597E+04  0.13953745597E+04  0.00000000000E+00 0. -1.
         25    1    1    2    0    0 -0.99551616935E+01 -0.12549960259E+03  0.31231094519E+03  0.35918293664E+03  0.12500000000E+03 0.  0.
         25    1    1    2    0    0  0.27309713462E+03  0.25075747937E+03 -0.10148076462E+04  0.10876216792E+04  0.12500000000E+03 0.  0.
         25    1    1    2    0    0 -0.26314197293E+03 -0.12525787679E+03 -0.24234010045E+03  0.39910770213E+03  0.12500000000E+03 0.  0.
</event>
<event>
 5    0  0.5568866E-005  0.3897105E+03  0.7546771E-02  0.1047402E+00
         21   -1    0    0  502  501  0.00000000000E+00  0.00000000000E+00  0.19981716074E+03  0.19981716074E+03  0.00000000000E+00 0.  1.
         21   -1    0    0  501  502 -0.00000000000E+00 -0.00000000000E+00 -0.76006620496E+03  0.76006620496E+03  0.00000000000E+00 0.  1.
         25    1    1    2    0    0 -0.15370860133E+03 -0.18267075544E+03 -0.26838460300E+03  0.38032911293E+03  0.12500000000E+03 0.  0.
         25    1    1    2    0    0  0.24541612961E+03  0.17252157372E+03 -0.11643441295E+03  0.34521695003E+03  0.12500000000E+03 0.  0.
         25    1    1    2    0    0 -0.91707528279E+02  0.10149181717E+02 -0.17543002828E+03  0.23433730274E+03  0.12500000000E+03 0.  0.
</event>
<event>
 5    0  0.5568866E-005  0.4498268E+03  0.7546771E-02  0.1027774E+00
         21   -1    0    0  502  501  0.00000000000E+00  0.00000000000E+00  0.13643925977E+04  0.13643925977E+04  0.00000000000E+00 0.  1.
         21   -1    0    0  501  502 -0.00000000000E+00 -0.00000000000E+00 -0.14830348576E+03  0.14830348576E+03  0.00000000000E+00 0.  1.
         25    1    1    2    0    0 -0.16087072913E+03 -0.18568393416E+03  0.18980434113E+03  0.33467686327E+03  0.12500000000E+03 0.  0.
         25    1    1    2    0    0 -0.85531354165E+02  0.24729998133E+03  0.44001057108E+03  0.52697931266E+03  0.12500000000E+03 0.  0.
         25    1    1    2    0    0  0.24640208330E+03 -0.61616047164E+02  0.58627419971E+03  0.65103990751E+03  0.12500000000E+03 0.  0.
</event>
<event>
 5    0  0.5568866E-005  0.2804216E+03  0.7546771E-02  0.1095459E+00
         21   -1    0    0  502  501  0.00000000000E+00  0.00000000000E+00  0.20071954592E+04  0.20071954592E+04  0.00000000000E+00 0.  1.
         21   -1    0    0  501  502 -0.00000000000E+00 -0.00000000000E+00 -0.39177194498E+02  0.39177194498E+02  0.00000000000E+00 0.  1.
         25    1    1    2    0    0 -0.21722945877E+02  0.19954391214E+02  0.57053413613E+03  0.58481130683E+03  0.12500000000E+03 0.  0.
         25    1    1    2    0    0  0.35564030717E+02 -0.68760687593E+01  0.12872556689E+04  0.12938176988E+04  0.12500000000E+03 0.  0.
         25    1    1    2    0    0 -0.13841084840E+02 -0.13078322455E+02  0.11022845968E+03  0.16774364808E+03  0.12500000000E+03 0.  0.
</event>
<event>
 5    0  0.5568866E-005  0.2576753E+03  0.7546771E-02  0.1108548E+00
         21   -1    0    0  502  501  0.00000000000E+00  0.00000000000E+00  0.63329483654E+03  0.63329483654E+03  0.00000000000E+00 0.  1.
         21   -1    0    0  501  502 -0.00000000000E+00 -0.00000000000E+00 -0.10484300994E+03  0.10484300994E+03  0.00000000000E+00 0.  1.
         25    1    1    2    0    0 -0.51226664882E+02 -0.54492187501E+01  0.50044777286E+02  0.14416429833E+03  0.12500000000E+03 0.  0.
         25    1    1    2    0    0  0.10716485729E+03  0.85576194069E+02  0.19502891115E+03  0.26920042313E+03  0.12500000000E+03 0.  0.
         25    1    1    2    0    0 -0.55938192405E+02 -0.80126975319E+02  0.28337813817E+03  0.32477312502E+03  0.12500000000E+03 0.  0.
</event>
<event>
 5    0  0.5568866E-005  0.3223805E+03  0.7546771E-02  0.1074559E+00
         21   -1    0    0  502  501  0.00000000000E+00  0.00000000000E+00  0.14389700567E+03  0.14389700567E+03  0.00000000000E+00 0.  1.
         21   -1    0    0  501  502 -0.00000000000E+00 -0.00000000000E+00 -0.72224683242E+03  0.72224683242E+03  0.00000000000E+00 0.  1.
         25    1    1    2    0    0  0.99473778577E+02  0.48240952225E+02 -0.28800665959E+02  0.16934196307E+03  0.12500000000E+03 0.  0.
         25    1    1    2    0    0  0.86714839278E+01 -0.38735880676E+02 -0.89924373306E+01  0.13145922187E+03  0.12500000000E+03 0.  0.
         25    1    1    2    0    0 -0.10814526250E+03 -0.95050715492E+01 -0.54055672346E+03  0.56534265315E+03  0.12500000000E+03 0.  0.
</event>
<event>
 5    0  0.5920646E-005  0.5200277E+03  0.7546771E-02  0.1008680E+00
         21   -1    0    0  502  501  0.00000000000E+00  0.00000000000E+00  0.86189426498E+03  0.86189426498E+03  0.00000000000E+00 0. -1.
         21   -1    0    0  501  502 -0.00000000000E+00 -0.00000000000E+00 -0.31376101476E+03  0.31376101476E+03  0.00000000000E+00 0. -1.
         25    1    1    2    0    0 -0.69202667375E+02 -0.33944759565E+03  0.55510640997E+02  0.37245148762E+03  0.12500000000E+03 0.  0.
         25    1    1    2    0    0  0.15475163679E+03  0.16592952483E+03  0.51020648904E+03  0.57220305641E+03  0.12500000000E+03 0.  0.
         25    1    1    2    0    0 -0.85548969417E+02  0.17351807082E+03 -0.17583879824E+02  0.23100073571E+03  0.12500000000E+03 0.  0.
</event>
<event>
 5    0  0.5568866E-005  0.4990543E+03  0.7546771E-02  0.1014026E+00
         21   -1    0    0  502  501  0.00000000000E+00  0.00000000000E+00  0.11677368613E+04  0.11677368613E+04  0.00000000000E+00 0. -1.
         21   -1    0    0  501  502 -0.00000000000E+00 -0.00000000000E+00 -0.21328026781E+03  0.21328026781E+03  0.00000000000E+00 0. -1.
         25    1    1    2    0    0  0.53457025017E+02 -0.33855661898E+03  0.12070820924E+03  0.38428337143E+03  0.12500000000E+03 0.  0.
         25    1    1    2    0    0  0.68408923629E+02  0.28534360150E+02  0.45246076768E+03  0.47522598501E+03  0.12500000000E+03 0.  0.
         25    1    1    2    0    0 -0.12186594865E+03  0.31002225883E+03  0.38128761658E+03  0.52150777268E+03  0.12500000000E+03 0.  0.
</event>
<event>
 5    0  0.5568866E-005  0.3618673E+03  0.7546771E-02  0.1057847E+00
         21   -1    0    0  502  501  0.00000000000E+00  0.00000000000E+00  0.12847577713E+03  0.12847577713E+03  0.00000000000E+00 0.  1.
         21   -1    0    0  501  502 -0.00000000000E+00 -0.00000000000E+00 -0.10192423926E+04  0.10192423926E+04  0.00000000000E+00 0.  1.
         25    1    1    2    0    0  0.26772885376E+03  0.36801531977E+02 -0.22902021863E+03  0.37564391707E+03  0.12500000000E+03 0.  0.
         25    1    1    2    0    0 -0.16399752574E+03  0.47932014585E+02 -0.30862087897E+03  0.37425193842E+03  0.12500000000E+03 0.  0.
         25    1    1    2    0    0 -0.10373132802E+03 -0.84733546562E+02 -0.35312551783E+03  0.39782231420E+03  0.12500000000E+03 0.  0.
</event>
<event>
 5    0  0.5568866E-005  0.4827021E+03  0.7546771E-02  0.1018395E+00
         21   -1    0    0  502  501  0.00000000000E+00  0.00000000000E+00  0.25350946178E+03  0.25350946178E+03  0.00000000000E+00 0. -1.
         21   -1    0    0  501  502 -0.00000000000E+00 -0.00000000000E+00 -0.91910311577E+03  0.91910311577E+03  0.00000000000E+00 0. -1.
         25    1    1    2    0    0  0.31270319852E+03  0.83334342053E+02 -0.53288812592E+03  0.63586370998E+03  0.12500000000E+03 0.  0.
         25    1    1    2    0    0  0.46117516056E+02 -0.21500914220E+02 -0.28682576237E+02  0.13797392790E+03  0.12500000000E+03 0.  0.
         25    1    1    2    0    0 -0.35882071457E+03 -0.61833427833E+02 -0.10402295183E+03  0.39877493967E+03  0.12500000000E+03 0.  0.
</event>
<event>
 5    0  0.5568866E-005  0.4100963E+03  0.7546771E-02  0.1040339E+00
         21   -1    0    0  502  501  0.00000000000E+00  0.00000000000E+00  0.28858837786E+03  0.28858837786E+03  0.00000000000E+00 0.  1.
         21   -1    0    0  501  502 -0.00000000000E+00 -0.00000000000E+00 -0.58276425802E+03  0.58276425802E+03  0.00000000000E+00 0.  1.
         25    1    1    2    0    0  0.22405011722E+03  0.10204487551E+03 -0.11193948681E+03  0.29793801428E+03  0.12500000000E+03 0.  0.
         25    1    1    2    0    0  0.60645193811E+01  0.13799281589E+03 -0.38672150204E+02  0.19026121737E+03  0.12500000000E+03 0.  0.
         25    1    1    2    0    0 -0.23011463660E+03 -0.24003769140E+03 -0.14356424315E+03  0.38315340424E+03  0.12500000000E+03 0.  0.
</event>
<event>
 5    0  0.5568866E-005  0.2670283E+03  0.7546771E-02  0.1102993E+00
         21   -1    0    0  502  501  0.00000000000E+00  0.00000000000E+00  0.37560159225E+02  0.37560159225E+02  0.00000000000E+00 0.  1.
         21   -1    0    0  501  502 -0.00000000000E+00 -0.00000000000E+00 -0.18983979718E+04  0.18983979718E+04  0.00000000000E+00 0.  1.
         25    1    1    2    0    0 -0.10876165916E+02 -0.93256372457E+01 -0.53290291364E+03  0.54755435699E+03  0.12500000000E+03 0.  0.
         25    1    1    2    0    0  0.21127958396E+02  0.15489216701E+03 -0.85092288265E+03  0.87414685623E+03  0.12500000000E+03 0.  0.
         25    1    1    2    0    0 -0.10251792480E+02 -0.14556652976E+03 -0.47701201630E+03  0.51425691783E+03  0.12500000000E+03 0.  0.
</event>
<event>
 5    0  0.5568866E-005  0.2979218E+03  0.7546771E-02  0.1086284E+00
         21   -1    0    0  502  501  0.00000000000E+00  0.00000000000E+00  0.56637029714E+03  0.56637029714E+03  0.00000000000E+00 0. -1.
         21   -1    0    0  501  502 -0.00000000000E+00 -0.00000000000E+00 -0.15671261663E+03  0.15671261663E+03  0.00000000000E+00 0. -1.
         25    1    1    2    0    0 -0.63334331649E+02  0.12608497086E+01  0.17774729635E+03  0.22634471204E+03  0.12500000000E+03 0.  0.
         25    1    1    2    0    0  0.18053880561E+02  0.41075430774E+02 -0.80000286882E+02  0.15504250874E+03  0.12500000000E+03 0.  0.
         25    1    1    2    0    0  0.45280451088E+02 -0.42336280483E+02  0.31191067105E+03  0.34169569299E+03  0.12500000000E+03 0.  0.
</event>
<event>
 5    0  0.5568866E-005  0.3802425E+03  0.7546771E-02  0.1050844E+00
         21   -1    0    0  502  501  0.00000000000E+00  0.00000000000E+00  0.15241811336E+04  0.15241811336E+04  0.00000000000E+00 0. -1.
         21   -1    0    0  501  502 -0.00000000000E+00 -0.00000000000E+00 -0.94860374237E+02  0.94860374237E+02  0.00000000000E+00 0. -1.
         25    1    1    2    0    0 -0.22254396041E+03 -0.62083515675E+02  0.32748801614E+03  0.41982565184E+03  0.12500000000E+03 0.  0.
         25    1    1    2    0    0  0.56812699670E+02 -0.64640811257E+02  0.13783452128E+03  0.20501090844E+03  0.12500000000E+03 0.  0.
         25    1    1    2    0    0  0.16573126074E+03  0.12672432693E+03  0.96399822194E+03  0.99420494755E+03  0.12500000000E+03 0.  0.
</event>
<event>
 5    0  0.5568866E-005  0.3378491E+03  0.7546771E-02  0.1067716E+00
         21   -1    0    0  502  501  0.00000000000E+00  0.00000000000E+00  0.51067442241E+03  0.51067442241E+03  0.00000000000E+00 0.  1.
         21   -1    0    0  501  502 -0.00000000000E+00 -0.00000000000E+00 -0.22351230727E+03  0.22351230727E+03  0.00000000000E+00 0.  1.
         25    1    1    2    0    0 -0.11873406336E+02  0.61723373113E+02  0.31123655865E+02  0.14333329872E+03  0.12500000000E+03 0.  0.
         25    1    1    2    0    0  0.19089557506E+03 -0.15831187620E+03  0.20883626598E+03  0.34747857015E+03  0.12500000000E+03 0.  0.
         25    1    1    2    0    0 -0.17902216872E+03  0.96588503083E+02  0.47202193290E+02  0.24337486081E+03  0.12500000000E+03 0.  0.
</event>
<event>
 5    0  0.5568866E-005  0.3364482E+03  0.7546771E-02  0.1068319E+00
         21   -1    0    0  502  501  0.00000000000E+00  0.00000000000E+00  0.29555423126E+03  0.29555423126E+03  0.00000000000E+00 0. -1.
         21   -1    0    0  501  502 -0.00000000000E+00 -0.00000000000E+00 -0.38300035732E+03  0.38300035732E+03  0.00000000000E+00 0. -1.
         25    1    1    2    0    0  0.43445276741E+02 -0.21079386067E+03  0.76735095604E+02  0.26045118289E+03  0.12500000000E+03 0.  0.
         25    1    1    2    0    0  0.16364322907E+02  0.20406409834E+03 -0.68094279237E+02  0.24934269221E+03  0.12500000000E+03 0.  0.
         25    1    1    2    0    0 -0.59809599648E+02  0.67297623370E+01 -0.96086942431E+02  0.16876071349E+03  0.12500000000E+03 0.  0.
</event>
<event>
 5    0  0.5568866E-005  0.3069204E+03  0.7546771E-02  0.1081831E+00
         21   -1    0    0  502  501  0.00000000000E+00  0.00000000000E+00  0.41283705201E+02  0.41283705201E+02  0.00000000000E+00 0. -1.
         21   -1    0    0  501  502 -0.00000000000E+00 -0.00000000000E+00 -0.22817754301E+04  0.22817754301E+04  0.00000000000E+00 0. -1.
         25    1    1    2    0    0  0.65726589150E+02 -0.18544744380E+02 -0.33631509091E+03  0.36523517415E+03  0.12500000000E+03 0.  0.
         25    1    1    2    0    0  0.41878969111E+02  0.17153426317E+03 -0.11743739598E+04  0.11941344350E+04  0.12500000000E+03 0.  0.
         25    1    1    2    0    0 -0.10760555826E+03 -0.15298951879E+03 -0.72980267414E+03  0.76368952606E+03  0.12500000000E+03 0.  0.
</event>
<event>
 5    0  0.5568866E-005  0.2545437E+03  0.7546771E-02  0.1110467E+00
         21   -1    0    0  502  501  0.00000000000E+00  0.00000000000E+00  0.53672634928E+03  0.53672634928E+03  0.00000000000E+00 0.  1.
         21   -1    0    0  501  502 -0.00000000000E+00 -0.00000000000E+00 -0.12071794050E+03  0.12071794050E+03  0.00000000000E+00 0.  1.
         25    1    1    2    0    0 -0.63791501861E+01  0.76831381051E+02  0.14494709152E+03  0.20634537555E+03  0.12500000000E+03 0.  0.
         25    1    1    2    0    0  0.98309738354E+02 -0.10790309657E+03  0.95017092995E+02  0.21438547261E+03  0.12500000000E+03 0.  0.
         25    1    1    2    0    0 -0.91930588168E+02  0.31071715519E+02  0.17604422427E+03  0.23671344162E+03  0.12500000000E+03 0.  0.
</event>
<event>
 5    0  0.5568866E-005  0.2791513E+03  0.7546771E-02  0.1096153E+00
         21   -1    0    0  502  501  0.00000000000E+00  0.00000000000E+00  0.23979802133E+03  0.23979802133E+03  0.00000000000E+00 0.  1.
         21   -1    0    0  501  502 -0.00000000000E+00 -0.00000000000E+00 -0.32496276665E+03  0.32496276665E+03  0.00000000000E+00 0.  1.
         25    1    1    2    0    0  0.13226512192E+03  0.27987365934E+01 -0.80568788442E+02  0.19904327437E+03  0.12500000000E+03 0.  0.
         25    1    1    2    0    0 -0.12071517400E+02  0.98520997501E+01  0.10172641094E+03  0.16191370567E+03  0.12500000000E+03 0.  0.
         25    1    1    2    0    0 -0.12019360452E+03 -0.12650836343E+02 -0.10632236783E+03  0.20380380793E+03  0.12500000000E+03 0.  0.
</event>
<event>
 5    0  0.5568866E-005  0.2611911E+03  0.7546771E-02  0.1106430E+00
         21   -1    0    0  502  501  0.00000000000E+00  0.00000000000E+00  0.17104125708E+03  0.17104125708E+03  0.00000000000E+00 0.  1.
         21   -1    0    0  501  502 -0.00000000000E+00 -0.00000000000E+00 -0.39885570106E+03  0.39885570106E+03  0.00000000000E+00 0.  1.
         25    1    1    2    0    0  0.43902910345E+02 -0.12654966741E+02 -0.33744843214E+02  0.13730013898E+03  0.12500000000E+03 0.  0.
         25    1    1    2    0    0 -0.27743696163E+02  0.89790595824E+02  0.34757979844E+02  0.16020356094E+03  0.12500000000E+03 0.  0.
         25    1    1    2    0    0 -0.16159214181E+02 -0.77135629084E+02 -0.22882758061E+03  0.27239325822E+03  0.12500000000E+03 0.  0.
</event>
<event>
 5    0  0.5568866E-005  0.3377674E+03  0.7546771E-02  0.1067751E+00
         21   -1    0    0  502  501  0.00000000000E+00  0.00000000000E+00  0.12287048465E+04  0.12287048465E+04  0.00000000000E+00 0. -1.
         21   -1    0    0  501  502 -0.00000000000E+00 -0.00000000000E+00 -0.92851278558E+02  0.92851278558E+02  0.00000000000E+00 0. -1.
         25    1    1    2    0    0  0.19715512714E+03  0.78691010621E+02  0.52752418693E+03  0.58221060374E+03  0.12500000000E+03 0.  0.
         25    1    1    2    0    0 -0.18559414432E+03  0.60419815656E+02  0.36211699698E+03  0.42994122858E+03  0.12500000000E+03 0.  0.
         25    1    1    2    0    0 -0.11560982824E+02 -0.13911082628E+03  0.24621238399E+03  0.30940429270E+03  0.12500000000E+03 0.  0.
</event>
<event>
 5    0  0.5568866E-005  0.2514266E+03  0.7546771E-02  0.1112407E+00
         21   -1    0    0  502  501  0.00000000000E+00  0.00000000000E+00  0.58516703291E+03  0.58516703291E+03  0.00000000000E+00 0.  1.
         21   -1    0    0  501  502 -0.00000000000E+00 -0.00000000000E+00 -0.10802954506E+03  0.10802954506E+03  0.00000000000E+00 0.  1.
         25    1    1    2    0    0  0.38777266579E+02 -0.11396933318E+02  0.23443228676E+03  0.26873232698E+03  0.12500000000E+03 0.  0.
         25    1    1    2    0    0 -0.21003685035E+02  0.12439471438E+03  0.14175410326E+03  0.22723209620E+03  0.12500000000E+03 0.  0.
         25    1    1    2    0    0 -0.17773581544E+02 -0.11299778106E+03  0.10095109783E+03  0.19723215478E+03  0.12500000000E+03 0.  0.
</event>
<event>
 5    0  0.5568866E-005  0.3255638E+03  0.7546771E-02  0.1073117E+00
         21   -1    0    0  502  501  0.00000000000E+00  0.00000000000E+00  0.36472511793E+03  0.36472511793E+03  0.00000000000E+00 0.  1.
         21   -1    0    0  501  502 -0.00000000000E+00 -0.00000000000E+00 -0.29060735767E+03  0.29060735767E+03  0.00000000000E+00 0.  1.
         25    1    1    2    0    0  0.71748083120E+02  0.73231027680E+02  0.30634892932E+02  0.16454199315E+03  0.12500000000E+03 0.  0.
         25    1    1    2    0    0 -0.10168186849E+03 -0.17019726774E+03 -0.11830380823E+03  0.26253971770E+03  0.12500000000E+03 0.  0.
         25    1    1    2    0    0  0.29933785370E+02  0.96966240061E+02  0.16178667556E+03  0.22825076475E+03  0.12500000000E+03 0.  0.
</event>
<event>
 5    0  0.5568866E-005  0.4029487E+03  0.7546771E-02  0.1042763E+00
         21   -1    0    0  502  501  0.00000000000E+00  0.00000000000E+00  0.10512380511E+04  0.10512380511E+04  0.00000000000E+00 0.  1.
         21   -1    0    0  501  502 -0.00000000000E+00 -0.00000000000E+00 -0.15445376659E+03  0.15445376659E+03  0.00000000000E+00 0.  1.
         25    1    1    2    0    0 -0.25017726270E+03  0.89379691068E+01  0.64339235301E+03  0.70160335659E+03  0.12500000000E+03 0.  0.
         25    1    1    2    0    0  0.20941289803E+03 -0.60449083841E+02  0.49531408266E+02  0.25609805544E+03  0.12500000000E+03 0.  0.
         25    1    1    2    0    0  0.40764364672E+02  0.51511114734E+02  0.20386052325E+03  0.24799040568E+03  0.12500000000E+03 0.  0.
</event>
<event>
 5    0  0.5568866E-005  0.3032880E+03  0.7546771E-02  0.1083608E+00
         21   -1    0    0  502  501  0.00000000000E+00  0.00000000000E+00  0.61574883862E+03  0.61574883862E+03  0.00000000000E+00 0. -1.
         21   -1    0    0  501  502 -0.00000000000E+00 -0.00000000000E+00 -0.14938499633E+03  0.14938499633E+03  0.00000000000E+00 0. -1.
         25    1    1    2    0    0  0.13695848086E+03 -0.93482707832E+02  0.86227196382E+02  0.22484833008E+03  0.12500000000E+03 0.  0.
         25    1    1    2    0    0 -0.62763375627E+02 -0.73787058516E+02  0.11975869883E+03  0.19837065628E+03  0.12500000000E+03 0.  0.
         25    1    1    2    0    0 -0.74195105230E+02  0.16726976635E+03  0.26037794707E+03  0.34191484860E+03  0.12500000000E+03 0.  0.
</event>
<event>
 5    0  0.5568866E-005  0.3108337E+03  0.7546771E-02  0.1079947E+00
         21   -1    0    0  502  501  0.00000000000E+00  0.00000000000E+00  0.38628402038E+03  0.38628402038E+03  0.00000000000E+00 0. -1.
         21   -1    0    0  501  502 -0.00000000000E+00 -0.00000000000E+00 -0.25012055993E+03  0.25012055993E+03  0.00000000000E+00 0. -1.
         25    1    1    2    0    0  0.49014479115E+02 -0.38618150838E+01  0.15134949694E+03  0.20235860002E+03  0.12500000000E+03 0.  0.
         25    1    1    2    0    0  0.60701407508E+02  0.10705456124E+03 -0.11950040158E+03  0.21225146863E+03  0.12500000000E+03 0.  0.
         25    1    1    2    0    0 -0.10971588662E+03 -0.10319274616E+03  0.10431436509E+03  0.22179451166E+03  0.12500000000E+03 0.  0.
</event>
<event>
 5    0  0.5568866E-005  0.3060577E+03  0.7546771E-02  0.1082251E+00
         21   -1    0    0  502  501  0.00000000000E+00  0.00000000000E+00  0.56838610138E+02  0.56838610138E+02  0.00000000000E+00 0.  1.
         21   -1    0    0  501  502 -0.00000000000E+00 -0.00000000000E+00 -0.16480226624E+04  0.16480226624E+04  0.00000000000E+00 0.  1.
         25    1    1    2    0    0 -0.20056373637E+03  0.80659298778E+02 -0.54063041183E+03  0.59551488397E+03  0.12500000000E+03 0.  0.
         25    1    1    2    0    0  0.44610910191E+02 -0.55843104710E+01 -0.28255378637E+03  0.31222261293E+03  0.12500000000E+03 0.  0.
         25    1    1    2    0    0  0.15595282618E+03 -0.75074988307E+02 -0.76799985407E+03  0.79712377566E+03  0.12500000000E+03 0.  0.
</event>
<event>
 5    0  0.5568866E-005  0.3103787E+03  0.7546771E-02  0.1080164E+00
         21   -1    0    0  502  501  0.00000000000E+00  0.00000000000E+00  0.94939818502E+03  0.94939818502E+03  0.00000000000E+00 0. -1.
         21   -1    0    0  501  502 -0.00000000000E+00 -0.00000000000E+00 -0.10146950297E+03  0.10146950297E+03  0.00000000000E+00 0. -1.
         25    1    1    2    0    0  0.76514644367E+02  0.31326148367E+01  0.13679643414E+03  0.20050578164E+03  0.12500000000E+03 0.  0.
         25    1    1    2    0    0 -0.77814147926E+02  0.10819137546E+03  0.83683321331E+02  0.20096843934E+03  0.12500000000E+03 0.  0.
         25    1    1    2    0    0  0.12995035586E+01 -0.11132399029E+03  0.62744892659E+03  0.64939346701E+03  0.12500000000E+03 0.  0.
</event>
<event>
 5    0  0.5568866E-005  0.3884291E+03  0.7546771E-02  0.1047862E+00
         21   -1    0    0  502  501  0.00000000000E+00  0.00000000000E+00  0.94961038125E+03  0.94961038125E+03  0.00000000000E+00 0. -1.
         21   -1    0    0  501  502 -0.00000000000E+00 -0.00000000000E+00 -0.15888327084E+03  0.15888327084E+03  0.00000000000E+00 0. -1.
         25    1    1    2    0    0  0.18502259919E+03  0.21530395278E+03  0.23353040434E+03  0.38826615104E+03  0.12500000000E+03 0.  0.
         25    1    1    2    0    0  0.41449341870E+02 -0.44694050980E+02  0.11608642125E+03  0.18115370086E+03  0.12500000000E+03 0.  0.
         25    1    1    2    0    0 -0.22647194106E+03 -0.17060990180E+03  0.44111028482E+03  0.53907380019E+03  0.12500000000E+03 0.  0.
</event>
<event>
 5    0  0.5568866E-005  0.2796353E+03  0.7546771E-02  0.1095888E+00
         21   -1    0    0  502  501  0.00000000000E+00  0.00000000000E+00  0.30562195715E+03  0.30562195715E+03  0.00000000000E+00 0.  1.
         21   -1    0    0  501  502 -0.00000000000E+00 -0.00000000000E+00 -0.25585831037E+03  0.25585831037E+03  0.00000000000E+00 0.  1.
         25    1    1    2    0    0  0.22100469399E+02 -0.15058144652E+03 -0.92773621754E+02  0.21770426655E+03  0.12500000000E+03 0.  0.
         25    1    1    2    0    0  0.41448568128E+02  0.53880328534E+02  0.58633150594E+02  0.15389580875E+03  0.12500000000E+03 0.  0.
         25    1    1    2    0    0 -0.63549037528E+02  0.96701117981E+02  0.83904117932E+02  0.18988019221E+03  0.12500000000E+03 0.  0.
</event>
<event>
 5    0  0.5568866E-005  0.3804051E+03  0.7546771E-02  0.1050784E+00
         21   -1    0    0  502  501  0.00000000000E+00  0.00000000000E+00  0.22194097441E+04  0.22194097441E+04  0.00000000000E+00 0. -1.
         21   -1    0    0  501  502 -0.00000000000E+00 -0.00000000000E+00 -0.65201144003E+02  0.65201144003E+02  0.00000000000E+00 0. -1.
         25    1    1    2    0    0 -0.11234233731E+03 -0.34683831300E+02  0.48447603360E+03  0.51397061787E+03  0.12500000000E+03 0.  0.
         25    1    1    2    0    0  0.21601329828E+03 -0.14603143086E+02  0.30035007248E+03  0.39078147713E+03  0.12500000000E+03 0.  0.
         25    1    1    2    0    0 -0.10367096097E+03  0.49286974386E+02  0.13693824940E+04  0.13798587931E+04  0.12500000000E+03 0.  0.
</event>
<event>
 5    0  0.5924928E-005  0.3812650E+03  0.7546771E-02  0.1050467E+00
         21   -1    0    0  502  501  0.00000000000E+00  0.00000000000E+00  0.78181709996E+03  0.78181709996E+03  0.00000000000E+00 0.  1.
         21   -1    0    0  501  502 -0.00000000000E+00 -0.00000000000E+00 -0.18592969056E+03  0.18592969056E+03  0.00000000000E+00 0.  1.
         25    1    1    2    0    0 -0.20493019734E+03  0.10275491862E+03  0.21854211036E+03  0.34050053316E+03  0.12500000000E+03 0.  0.
         25    1    1    2    0    0 -0.27830118938E+02 -0.70677490240E+02  0.32445313119E+03  0.35589978573E+03  0.12500000000E+03 0.  0.
         25    1    1    2    0    0  0.23276031628E+03 -0.32077428384E+02  0.52892167854E+02  0.27134647163E+03  0.12500000000E+03 0.  0.
</event>
<event>
 5    0  0.5568866E-005  0.2848085E+03  0.7546771E-02  0.1093091E+00
         21   -1    0    0  502  501  0.00000000000E+00  0.00000000000E+00  0.17992241581E+04  0.17992241581E+04  0.00000000000E+00 0. -1.
         21   -1    0    0  501  502 -0.00000000000E+00 -0.00000000000E+00 -0.45083818623E+02  0.45083818623E+02  0.00000000000E+00 0. -1.
         25    1    1    2    0    0 -0.24234115081E+00  0.29911431355E+02  0.11277554020E+03  0.17099144693E+03  0.12500000000E+03 0.  0.
         25    1    1    2    0    0 -0.75524672209E+02 -0.80930240492E+02  0.97586553633E+03  0.99004657715E+03  0.12500000000E+03 0.  0.
         25    1    1    2    0    0  0.75767013360E+02  0.51018809137E+02  0.66549926295E+03  0.68326995265E+03  0.12500000000E+03 0.  0.
</event>
<event>
 5    0  0.5568866E-005  0.2688035E+03  0.7546771E-02  0.1101966E+00
         21   -1    0    0  502  501  0.00000000000E+00  0.00000000000E+00  0.92885809125E+03  0.92885809125E+03  0.00000000000E+00 0. -1.
         21   -1    0    0  501  502 -0.00000000000E+00 -0.00000000000E+00 -0.77789429446E+02  0.77789429446E+02  0.00000000000E+00 0. -1.
         25    1    1    2    0    0 -0.12269310479E+03  0.33992554633E+02  0.15212319961E+03  0.23446867508E+03  0.12500000000E+03 0.  0.
         25    1    1    2    0    0  0.94026876632E+02  0.55640231140E+02  0.43138532419E+03  0.46222850062E+03  0.12500000000E+03 0.  0.
         25    1    1    2    0    0  0.28666228156E+02 -0.89632785773E+02  0.26756013800E+03  0.30995034500E+03  0.12500000000E+03 0.  0.
</event>
<event>
 5    0  0.5568866E-005  0.3437996E+03  0.7546771E-02  0.1065189E+00
         21   -1    0    0  502  501  0.00000000000E+00  0.00000000000E+00  0.11013861591E+04  0.11013861591E+04  0.00000000000E+00 0. -1.
         21   -1    0    0  501  502 -0.00000000000E+00 -0.00000000000E+00 -0.10731762760E+03  0.10731762760E+03  0.00000000000E+00 0. -1.
         25    1    1    2    0    0  0.15417724828E+02 -0.76799144717E+02  0.89560736353E+02  0.17257444876E+03  0.12500000000E+03 0.  0.
         25    1    1    2    0    0 -0.10185799983E+03  0.14203523013E+03  0.14597149494E+03  0.25977246979E+03  0.12500000000E+03 0.  0.
         25    1    1    2    0    0  0.86440275000E+02 -0.65236085413E+02  0.75853630026E+03  0.77635686819E+03  0.12500000000E+03 0.  0.
</event>
<event>
 5    0  0.5568866E-005  0.3608928E+03  0.7546771E-02  0.1058231E+00
         21   -1    0    0  502  501  0.00000000000E+00  0.00000000000E+00  0.76879573733E+02  0.76879573733E+02  0.00000000000E+00 0.  1.
         21   -1    0    0  501  502 -0.00000000000E+00 -0.00000000000E+00 -0.16941251381E+04  0.16941251381E+04  0.00000000000E+00 0.  1.
         25    1    1    2    0    0  0.11085055587E+03 -0.10636830341E+03 -0.13742447499E+03  0.24106544347E+03  0.12500000000E+03 0.  0.
         25    1    1    2    0    0 -0.12658609328E+03 -0.51840758815E+02 -0.65744443133E+03  0.68305906302E+03  0.12500000000E+03 0.  0.
         25    1    1    2    0    0  0.15735537410E+02  0.15820906222E+03 -0.82237665808E+03  0.84688020538E+03  0.12500000000E+03 0.  0.
</event>
<event>
 5    0  0.5568866E-005  0.3396749E+03  0.7546771E-02  0.1066934E+00
         21   -1    0    0  502  501  0.00000000000E+00  0.00000000000E+00  0.17209060662E+03  0.17209060662E+03  0.00000000000E+00 0. -1.
         21   -1    0    0  501  502 -0.00000000000E+00 -0.00000000000E+00 -0.67045536117E+03  0.67045536117E+03  0.00000000000E+00 0. -1.
         25    1    1    2    0    0  0.40447750368E+02  0.65202915831E+02 -0.54509894164E+03  0.56448675531E+03  0.12500000000E+03 0.  0.
         25    1    1    2    0    0  0.46670565075E+01 -0.39278718274E+02 -0.94905330833E+01  0.13145215610E+03  0.12500000000E+03 0.  0.
         25    1    1    2    0    0 -0.45114806875E+02 -0.25924197557E+02  0.56224720178E+02  0.14660705637E+03  0.12500000000E+03 0.  0.
</event>
<event>
 5    0  0.5568866E-005  0.2248544E+03  0.7546771E-02  0.1130315E+00
         21   -1    0    0  502  501  0.00000000000E+00  0.00000000000E+00  0.54230442500E+03  0.54230442500E+03  0.00000000000E+00 0. -1.
         21   -1    0    0  501  502 -0.00000000000E+00 -0.00000000000E+00 -0.93230810201E+02  0.93230810201E+02  0.00000000000E+00 0. -1.
         25    1    1    2    0    0  0.52478150181E+01 -0.17242073535E+02  0.10275471252E+03  0.16281388027E+03  0.12500000000E+03 0.  0.
         25    1    1    2    0    0  0.88093062611E+02  0.31133054067E-01  0.10743083549E+03  0.18688705965E+03  0.12500000000E+03 0.  0.
         25    1    1    2    0    0 -0.93340877629E+02  0.17210940481E+02  0.23888806679E+03  0.28583429529E+03  0.12500000000E+03 0.  0.
</event>
<event>
 5    0  0.5568866E-005  0.2639237E+03  0.7546771E-02  0.1104808E+00
         21   -1    0    0  502  501  0.00000000000E+00  0.00000000000E+00  0.71587558606E+02  0.71587558606E+02  0.00000000000E+00 0. -1.
         21   -1    0    0  501  502 -0.00000000000E+00 -0.00000000000E+00 -0.97301441184E+03  0.97301441184E+03  0.00000000000E+00 0. -1.
         25    1    1    2    0    0  0.10821460403E+03  0.40273251393E+02 -0.25988770115E+03  0.31064280534E+03  0.12500000000E+03 0.  0.
         25    1    1    2    0    0 -0.55430296910E+02  0.22923135180E+02 -0.96968561869E+02  0.16919187313E+03  0.12500000000E+03 0.  0.
         25    1    1    2    0    0 -0.52784307121E+02 -0.63196386573E+02 -0.54457059022E+03  0.56476729198E+03  0.12500000000E+03 0.  0.
</event>
<event>
 5    0  0.5568866E-005  0.2266651E+03  0.7546771E-02  0.1129009E+00
         21   -1    0    0  502  501  0.00000000000E+00  0.00000000000E+00  0.17182797697E+03  0.17182797697E+03  0.00000000000E+00 0.  1.
         21   -1    0    0  501  502 -0.00000000000E+00 -0.00000000000E+00 -0.29900292393E+03  0.29900292393E+03  0.00000000000E+00 0.  1.
         25    1    1    2    0    0  0.30106162019E+00  0.31667698958E+01 -0.10486128864E+03  0.16319010057E+03  0.12500000000E+03 0.  0.
         25    1    1    2    0    0 -0.11350603212E+02 -0.81406415799E+02 -0.48896697900E+02  0.15739036753E+03  0.12500000000E+03 0.  0.
         25    1    1    2    0    0  0.11049541592E+02  0.78239645903E+02  0.26583039585E+02  0.15025043279E+03  0.12500000000E+03 0.  0.
</event>
<event>
 5    0  0.5568866E-005  0.3647603E+03  0.7546771E-02  0.1056715E+00
         21   -1    0    0  502  501  0.00000000000E+00  0.00000000000E+00  0.71669895069E+03  0.71669895069E+03  0.00000000000E+00 0.  1.
         21   -1    0    0  501  502 -0.00000000000E+00 -0.00000000000E+00 -0.18564286620E+03  0.18564286620E+03  0.00000000000E+00 0.  1.
         25    1    1    2    0    0  0.74786478957E+02  0.59513425031E+02  0.33897302238E+03  0.37371456366E+03  0.12500000000E+03 0.  0.
         25    1    1    2    0    0 -0.58266858867E+02  0.13133395208E+03 -0.48644227071E+02  0.19655761150E+03  0.12500000000E+03 0.  0.
         25    1    1    2    0    0 -0.16519620090E+02 -0.19084737711E+03  0.24072728919E+03  0.33206964173E+03  0.12500000000E+03 0.  0.
</event>
<event>
 5    0  0.5568866E-005  0.3805584E+03  0.7546771E-02  0.1050728E+00
         21   -1    0    0  502  501  0.00000000000E+00  0.00000000000E+00  0.73298887834E+03  0.73298887834E+03  0.00000000000E+00 0.  1.
         21   -1    0    0  501  502 -0.00000000000E+00 -0.00000000000E+00 -0.19758105737E+03  0.19758105737E+03  0.00000000000E+00 0.  1.
         25    1    1    2    0    0 -0.11118182773E+03  0.83382366681E+02  0.53922105700E+00  0.18692059450E+03  0.12500000000E+03 0.  0.
         25    1    1    2    0    0  0.12098396590E+03 -0.24174689559E+03  0.22293174850E+03  0.37202452342E+03  0.12500000000E+03 0.  0.
         25    1    1    2    0    0 -0.98021381724E+01  0.15836452891E+03  0.31193685141E+03  0.37162481779E+03  0.12500000000E+03 0.  0.
</event>
<event>
 5    0  0.5568866E-005  0.3279666E+03  0.7546771E-02  0.1072040E+00
         21   -1    0    0  502  501  0.00000000000E+00  0.00000000000E+00  0.96329228166E+03  0.96329228166E+03  0.00000000000E+00 0. -1.
         21   -1    0    0  501  502 -0.00000000000E+00 -0.00000000000E+00 -0.11166091681E+03  0.11166091681E+03  0.00000000000E+00 0. -1.
         25    1    1    2    0    0  0.12639428822E+03  0.12612008611E+03  0.48973213643E+03  0.53604510786E+03  0.12500000000E+03 0.  0.
         25    1    1    2    0    0 -0.10252535687E+03 -0.18343018361E+03  0.29782604449E+03  0.38533548219E+03  0.12500000000E+03 0.  0.
         25    1    1    2    0    0 -0.23868931356E+02  0.57310097498E+02  0.64073183932E+02  0.15357260843E+03  0.12500000000E+03 0.  0.
</event>
<event>
 5    0  0.5568866E-005  0.3589252E+03  0.7546771E-02  0.1059010E+00
         21   -1    0    0  502  501  0.00000000000E+00  0.00000000000E+00  0.13386472222E+04  0.13386472222E+04  0.00000000000E+00 0. -1.
         21   -1    0    0  501  502 -0.00000000000E+00 -0.00000000000E+00 -0.96236941566E+02  0.96236941566E+02  0.00000000000E+00 0. -1.
         25    1    1    2    0    0  0.93374966881E+02  0.20706549050E+03  0.37735913430E+03  0.45784267826E+03  0.12500000000E+03 0.  0.
         25    1    1    2    0    0 -0.11239134876E+03 -0.26472022047E+03  0.55975465815E+03  0.64160648978E+03  0.12500000000E+03 0.  0.
         25    1    1    2    0    0  0.19016381879E+02  0.57654729971E+02  0.30529648822E+03  0.33543499577E+03  0.12500000000E+03 0.  0.
</event>
<event>
 5    0  0.5732936E-005  0.3661619E+03  0.7546771E-02  0.1056170E+00
         21   -1    0    0  502  501  0.00000000000E+00  0.00000000000E+00  0.70121243923E+03  0.70121243923E+03  0.00000000000E+00 0.  1.
         21   -1    0    0  501  502 -0.00000000000E+00 -0.00000000000E+00 -0.19120387982E+03  0.19120387982E+03  0.00000000000E+00 0.  1.
         25    1    1    2    0    0  0.64029704076E+02 -0.15037442396E+03  0.11629303216E+03  0.23635003642E+03  0.12500000000E+03 0.  0.
         25    1    1    2    0    0 -0.49301617341E+02  0.19660582826E+03  0.45119194001E+03  0.51018003480E+03  0.12500000000E+03 0.  0.
         25    1    1    2    0    0 -0.14728086735E+02 -0.46231404294E+02 -0.57476412766E+02  0.14588624783E+03  0.12500000000E+03 0.  0.
</event>
<event>
 5    0  0.5568866E-005  0.2952191E+03  0.7546771E-02  0.1087655E+00
         21   -1    0    0  502  501  0.00000000000E+00  0.00000000000E+00  0.84805812674E+03  0.84805812674E+03  0.00000000000E+00 0.  1.
         21   -1    0    0  501  502 -0.00000000000E+00 -0.00000000000E+00 -0.10276925818E+03  0.10276925818E+03  0.00000000000E+00 0.  1.
         25    1    1    2    0    0 -0.13596085846E+03  0.11668763201E+03  0.42061625965E+03  0.47396666167E+03  0.12500000000E+03 0.  0.
         25    1    1    2    0    0 -0.16792367940E+01 -0.18837419294E+02  0.18679422682E+03  0.22555432023E+03  0.12500000000E+03 0.  0.
         25    1    1    2    0    0  0.13764009525E+03 -0.97850212715E+02  0.13787838209E+03  0.25130640302E+03  0.12500000000E+03 0.  0.
</event>
<event>
 5    0  0.5568866E-005  0.2385400E+03  0.7546771E-02  0.1120769E+00
         21   -1    0    0  502  501  0.00000000000E+00  0.00000000000E+00  0.55565198137E+03  0.55565198137E+03  0.00000000000E+00 0. -1.
         21   -1    0    0  501  502 -0.00000000000E+00 -0.00000000000E+00 -0.10240462140E+03  0.10240462140E+03  0.00000000000E+00 0. -1.
         25    1    1    2    0    0  0.21765942746E+02  0.72100256543E+02  0.90172031338E+02  0.17154649076E+03  0.12500000000E+03 0.  0.
         25    1    1    2    0    0  0.64980272987E+02 -0.91682552163E+02  0.16053954226E+03  0.23243508960E+03  0.12500000000E+03 0.  0.
         25    1    1    2    0    0 -0.86746215733E+02  0.19582295621E+02  0.20253578637E+03  0.25407502240E+03  0.12500000000E+03 0.  0.
</event>
<event>
 5    0  0.5568866E-005  0.5882373E+03  0.7546771E-02  0.9930115E-01
         21   -1    0    0  502  501  0.00000000000E+00  0.00000000000E+00  0.14502807398E+04  0.14502807398E+04  0.00000000000E+00 0.  1.
         21   -1    0    0  501  502 -0.00000000000E+00 -0.00000000000E+00 -0.23859048044E+03  0.23859048044E+03  0.00000000000E+00 0.  1.
         25    1    1    2    0    0 -0.42489321003E+03 -0.19498092778E+03  0.51976872534E+03  0.71016641006E+03  0.12500000000E+03 0.  0.
         25    1    1    2    0    0 -0.13182958171E+02  0.14714202927E+03  0.68911643484E+02  0.20542244710E+03  0.12500000000E+03 0.  0.
         25    1    1    2    0    0  0.43807616820E+03  0.47838898513E+02  0.62300989056E+03  0.77328236311E+03  0.12500000000E+03 0.  0.
</event>
<event>
 5    0  0.5568866E-005  0.2658734E+03  0.7546771E-02  0.1103665E+00
         21   -1    0    0  502  501  0.00000000000E+00  0.00000000000E+00  0.54726872026E+03  0.54726872026E+03  0.00000000000E+00 0. -1.
         21   -1    0    0  501  502 -0.00000000000E+00 -0.00000000000E+00 -0.12916625240E+03  0.12916625240E+03  0.00000000000E+00 0. -1.
         25    1    1    2    0    0 -0.11644789054E+02 -0.14614134023E+03  0.18912192457E+03  0.26997221114E+03  0.12500000000E+03 0.  0.
         25    1    1    2    0    0 -0.28037073742E+02  0.12169220868E+02  0.28151713162E+02  0.13172580003E+03  0.12500000000E+03 0.  0.
         25    1    1    2    0    0  0.39681862796E+02  0.13397211936E+03  0.20082883012E+03  0.27473696148E+03  0.12500000000E+03 0.  0.
</event>
<event>
 5    0  0.5568866E-005  0.2655416E+03  0.7546771E-02  0.1103859E+00
         21   -1    0    0  502  501  0.00000000000E+00  0.00000000000E+00  0.76607878016E+02  0.76607878016E+02  0.00000000000E+00 0. -1.
         21   -1    0    0  501  502 -0.00000000000E+00 -0.00000000000E+00 -0.92043192661E+03  0.92043192661E+03  0.00000000000E+00 0. -1.
         25    1    1    2    0    0 -0.18829525991E+02 -0.24236239557E+02 -0.22937674324E+03  0.26302212207E+03  0.12500000000E+03 0.  0.
         25    1    1    2    0    0 -0.60353513285E+02 -0.12769351826E+03 -0.31319834260E+03  0.36560413424E+03  0.12500000000E+03 0.  0.
         25    1    1    2    0    0  0.79183039276E+02  0.15192975782E+03 -0.30124896276E+03  0.36841354831E+03  0.12500000000E+03 0.  0.
</event>
<event>
 5    0  0.5568866E-005  0.2966552E+03  0.7546771E-02  0.1086925E+00
         21   -1    0    0  502  501  0.00000000000E+00  0.00000000000E+00  0.28968531774E+03  0.28968531774E+03  0.00000000000E+00 0.  1.
         21   -1    0    0  501  502 -0.00000000000E+00 -0.00000000000E+00 -0.30379285946E+03  0.30379285946E+03  0.00000000000E+00 0.  1.
         25    1    1    2    0    0  0.22029048651E+02 -0.13789154733E+02 -0.72098675860E+02  0.14662414137E+03  0.12500000000E+03 0.  0.
         25    1    1    2    0    0 -0.38823652416E+02 -0.17339953228E+03  0.23542705587E+02  0.21852673239E+03  0.12500000000E+03 0.  0.
         25    1    1    2    0    0  0.16794603765E+02  0.18718868702E+03  0.34448428550E+02  0.22832730343E+03  0.12500000000E+03 0.  0.
</event>
<event>
 5    0  0.5568866E-005  0.2768949E+03  0.7546771E-02  0.1097397E+00
         21   -1    0    0  502  501  0.00000000000E+00  0.00000000000E+00  0.24975656859E+03  0.24975656859E+03  0.00000000000E+00 0.  1.
         21   -1    0    0  501  502 -0.00000000000E+00 -0.00000000000E+00 -0.30698210105E+03  0.30698210105E+03  0.00000000000E+00 0.  1.
         25    1    1    2    0    0  0.98357380706E+02 -0.12230544148E+03 -0.49392861542E+02  0.20663361325E+03  0.12500000000E+03 0.  0.
         25    1    1    2    0    0 -0.91963303349E+02  0.15626478759E+03 -0.89627297918E+01  0.22041157757E+03  0.12500000000E+03 0.  0.
         25    1    1    2    0    0 -0.63940773568E+01 -0.33959346112E+02  0.11300588729E+01  0.12969347881E+03  0.12500000000E+03 0.  0.
</event>
<event>
 5    0  0.5568866E-005  0.2807929E+03  0.7546771E-02  0.1095257E+00
         21   -1    0    0  502  501  0.00000000000E+00  0.00000000000E+00  0.51830716672E+03  0.51830716672E+03  0.00000000000E+00 0. -1.
         21   -1    0    0  501  502 -0.00000000000E+00 -0.00000000000E+00 -0.15211957262E+03  0.15211957262E+03  0.00000000000E+00 0. -1.
         25    1    1    2    0    0 -0.10636044942E+03  0.18878387679E+02  0.29466297498E+03  0.33781682544E+03  0.12500000000E+03 0.  0.
         25    1    1    2    0    0  0.92191434445E+02  0.52975168775E+02 -0.13445971333E+02  0.16465546829E+03  0.12500000000E+03 0.  0.
         25    1    1    2    0    0  0.14169014977E+02 -0.71853556454E+02  0.84970590448E+02  0.16795444561E+03  0.12500000000E+03 0.  0.
</event>
<event>
 5    0  0.5568866E-005  0.3327661E+03  0.7546771E-02  0.1069919E+00
         21   -1    0    0  502  501  0.00000000000E+00  0.00000000000E+00  0.74394857320E+02  0.74394857320E+02  0.00000000000E+00 0.  1.
         21   -1    0    0  501  502 -0.00000000000E+00 -0.00000000000E+00 -0.14884529463E+04  0.14884529463E+04  0.00000000000E+00 0.  1.
         25    1    1    2    0    0 -0.14561185743E+03  0.20894022318E+03 -0.66535076422E+03  0.72330869574E+03  0.12500000000E+03 0.  0.
         25    1    1    2    0    0  0.12004931177E+03 -0.17695399616E+03 -0.46627100425E+03  0.52797557086E+03  0.12500000000E+03 0.  0.
         25    1    1    2    0    0  0.25562545666E+02 -0.31986227020E+02 -0.28243632049E+03  0.31156353700E+03  0.12500000000E+03 0.  0.
</event>
<event>
 5    0  0.5568866E-005  0.3235237E+03  0.7546771E-02  0.1074039E+00
         21   -1    0    0  502  501  0.00000000000E+00  0.00000000000E+00  0.37326124851E+02  0.37326124851E+02  0.00000000000E+00 0. -1.
         21   -1    0    0  501  502 -0.00000000000E+00 -0.00000000000E+00 -0.28041381974E+04  0.28041381974E+04  0.00000000000E+00 0. -1.
         25    1    1    2    0    0 -0.18968009512E+03  0.49233145729E+02 -0.10550821875E+04  0.10803822766E+04  0.12500000000E+03 0.  0.
         25    1    1    2    0    0  0.21171432284E+03 -0.79151089459E+02 -0.13923638185E+04  0.14161178808E+04  0.12500000000E+03 0.  0.
         25    1    1    2    0    0 -0.22034227723E+02  0.29917943730E+02 -0.31936606657E+03  0.34496416484E+03  0.12500000000E+03 0.  0.
</event>
<event>
 5    0  0.5568866E-005  0.3864853E+03  0.7546771E-02  0.1048562E+00
         21   -1    0    0  502  501  0.00000000000E+00  0.00000000000E+00  0.87354440899E+03  0.87354440899E+03  0.00000000000E+00 0. -1.
         21   -1    0    0  501  502 -0.00000000000E+00 -0.00000000000E+00 -0.17099407198E+03  0.17099407198E+03  0.00000000000E+00 0. -1.
         25    1    1    2    0    0  0.44655739737E+02  0.80407185778E+02 -0.47338237691E+02  0.16225091483E+03  0.12500000000E+03 0.  0.
         25    1    1    2    0    0 -0.10226313843E+03 -0.97613279777E+02  0.92009283634E+02  0.20994477880E+03  0.12500000000E+03 0.  0.
         25    1    1    2    0    0  0.57607398697E+02  0.17206093999E+02  0.65787929107E+03  0.67234278733E+03  0.12500000000E+03 0.  0.
</event>
<event>
 5    0  0.5568866E-005  0.3205005E+03  0.7546771E-02  0.1075419E+00
         21   -1    0    0  502  501  0.00000000000E+00  0.00000000000E+00  0.38988399527E+03  0.38988399527E+03  0.00000000000E+00 0.  1.
         21   -1    0    0  501  502 -0.00000000000E+00 -0.00000000000E+00 -0.26346441505E+03  0.26346441505E+03  0.00000000000E+00 0.  1.
         25    1    1    2    0    0 -0.18997721519E+03  0.74100652762E+02 -0.47238797417E+02  0.24380064195E+03  0.12500000000E+03 0.  0.
         25    1    1    2    0    0  0.50918616898E+02  0.44938465618E+02  0.10724483549E+03  0.17815337768E+03  0.12500000000E+03 0.  0.
         25    1    1    2    0    0  0.13905859829E+03 -0.11903911838E+03  0.66413542154E+02  0.23139439070E+03  0.12500000000E+03 0.  0.
</event>
<event>
 5    0  0.5568866E-005  0.3831529E+03  0.7546771E-02  0.1049775E+00
         21   -1    0    0  502  501  0.00000000000E+00  0.00000000000E+00  0.35542634292E+03  0.35542634292E+03  0.00000000000E+00 0. -1.
         21   -1    0    0  501  502 -0.00000000000E+00 -0.00000000000E+00 -0.41304244734E+03  0.41304244734E+03  0.00000000000E+00 0. -1.
         25    1    1    2    0    0 -0.68291017327E+02 -0.73869860665E+02  0.97808191090E+02  0.18791450611E+03  0.12500000000E+03 0.  0.
         25    1    1    2    0    0  0.27536005916E+03  0.30244233360E+02 -0.32187639584E+02  0.30561236882E+03  0.12500000000E+03 0.  0.
         25    1    1    2    0    0 -0.20706904184E+03  0.43625627304E+02 -0.12323665593E+03  0.27494191534E+03  0.12500000000E+03 0.  0.
</event>
<event>
 5    0  0.5568866E-005  0.3183154E+03  0.7546771E-02  0.1076427E+00
         21   -1    0    0  502  501  0.00000000000E+00  0.00000000000E+00  0.20058218779E+03  0.20058218779E+03  0.00000000000E+00 0.  1.
         21   -1    0    0  501  502 -0.00000000000E+00 -0.00000000000E+00 -0.50515287204E+03  0.50515287204E+03  0.00000000000E+00 0.  1.
         25    1    1    2    0    0  0.11660038417E+03 -0.84958433755E+02 -0.10327626571E+02  0.19116810645E+03  0.12500000000E+03 0.  0.
         25    1    1    2    0    0 -0.13347650762E+03 -0.61740077248E+02 -0.25046823708E+03  0.31620745249E+03  0.12500000000E+03 0.  0.
         25    1    1    2    0    0  0.16876123453E+02  0.14669851100E+03 -0.43774820600E+02  0.19835950089E+03  0.12500000000E+03 0.  0.
</event>
<event>
 5    0  0.5568866E-005  0.2119390E+03  0.7546771E-02  0.1140040E+00
         21   -1    0    0  502  501  0.00000000000E+00  0.00000000000E+00  0.15204547094E+03  0.15204547094E+03  0.00000000000E+00 0.  1.
         21   -1    0    0  501  502 -0.00000000000E+00 -0.00000000000E+00 -0.29542559266E+03  0.29542559266E+03  0.00000000000E+00 0.  1.
         25    1    1    2    0    0 -0.43972587771E+02  0.25036307192E+02 -0.31103686162E+02  0.13839380205E+03  0.12500000000E+03 0.  0.
         25    1    1    2    0    0  0.61322887916E+01  0.36360296087E+02 -0.99947015772E+02  0.16423788253E+03  0.12500000000E+03 0.  0.
         25    1    1    2    0    0  0.37840298979E+02 -0.61396603279E+02 -0.12329419793E+02  0.14483937902E+03  0.12500000000E+03 0.  0.
</event>
<event>
 5    0  0.5568866E-005  0.2922072E+03  0.7546771E-02  0.1089202E+00
         21   -1    0    0  502  501  0.00000000000E+00  0.00000000000E+00  0.19309947650E+04  0.19309947650E+04  0.00000000000E+00 0. -1.
         21   -1    0    0  501  502 -0.00000000000E+00 -0.00000000000E+00 -0.44218168530E+02  0.44218168530E+02  0.00000000000E+00 0. -1.
         25    1    1    2    0    0  0.58897165323E+02  0.15182367902E+03  0.36198122415E+03  0.41614265851E+03  0.12500000000E+03 0.  0.
         25    1    1    2    0    0 -0.95201305503E+02 -0.84908324900E+02  0.86205988360E+03  0.88036637551E+03  0.12500000000E+03 0.  0.
         25    1    1    2    0    0  0.36304140180E+02 -0.66915354117E+02  0.66273548871E+03  0.67870389951E+03  0.12500000000E+03 0.  0.
</event>
<event>
 5    0  0.5568866E-005  0.3057821E+03  0.7546771E-02  0.1082385E+00
         21   -1    0    0  502  501  0.00000000000E+00  0.00000000000E+00  0.12296090254E+04  0.12296090254E+04  0.00000000000E+00 0. -1.
         21   -1    0    0  501  502 -0.00000000000E+00 -0.00000000000E+00 -0.76042634177E+02  0.76042634177E+02  0.00000000000E+00 0. -1.
         25    1    1    2    0    0 -0.15136748112E+03 -0.16509016610E+03  0.45521227082E+03  0.52250367347E+03  0.12500000000E+03 0.  0.
         25    1    1    2    0    0  0.35919003372E+02  0.22245508502E+02  0.27643188773E+03  0.30630805736E+03  0.12500000000E+03 0.  0.
         25    1    1    2    0    0  0.11544847775E+03  0.14284465760E+03  0.42192223266E+03  0.47683992873E+03  0.12500000000E+03 0.  0.
</event>
<event>
 5    0  0.5568866E-005  0.5043403E+03  0.7546771E-02  0.1012652E+00
         21   -1    0    0  502  501  0.00000000000E+00  0.00000000000E+00  0.16595498743E+03  0.16595498743E+03  0.00000000000E+00 0. -1.
         21   -1    0    0  501  502 -0.00000000000E+00 -0.00000000000E+00 -0.15326995941E+04  0.15326995941E+04  0.00000000000E+00 0. -1.
         25    1    1    2    0    0 -0.84512020026E+02 -0.16183456992E+02 -0.11208418443E+04  0.11310683559E+04  0.12500000000E+03 0.  0.
         25    1    1    2    0    0  0.20981294701E+03  0.78081770442E+02 -0.27707659397E+03  0.37751115816E+03  0.12500000000E+03 0.  0.
         25    1    1    2    0    0 -0.12530092699E+03 -0.61898313450E+02  0.31173831561E+02  0.19007506750E+03  0.12500000000E+03 0.  0.
</event>
<event>
 5    0  0.5568866E-005  0.4326189E+03  0.7546771E-02  0.1033036E+00
         21   -1    0    0  502  501  0.00000000000E+00  0.00000000000E+00  0.61336334031E+03  0.61336334031E+03  0.00000000000E+00 0.  1.
         21   -1    0    0  501  502 -0.00000000000E+00 -0.00000000000E+00 -0.30513583458E+03  0.30513583458E+03  0.00000000000E+00 0.  1.
         25    1    1    2    0    0 -0.17849483711E+03 -0.27044456679E+03  0.23506890732E+02  0.34810665678E+03  0.12500000000E+03 0.  0.
         25    1    1    2    0    0  0.22416568863E+03  0.95874146215E+02  0.14238891617E+03  0.30877453153E+03  0.12500000000E+03 0.  0.
         25    1    1    2    0    0 -0.45670851522E+02  0.17457042057E+03  0.14233169882E+03  0.26161798659E+03  0.12500000000E+03 0.  0.
</event>
<event>
 5    0  0.5568866E-005  0.2810026E+03  0.7546771E-02  0.1095143E+00
         21   -1    0    0  502  501  0.00000000000E+00  0.00000000000E+00  0.41170476189E+03  0.41170476189E+03  0.00000000000E+00 0. -1.
         21   -1    0    0  501  502 -0.00000000000E+00 -0.00000000000E+00 -0.19179386228E+03  0.19179386228E+03  0.00000000000E+00 0. -1.
         25    1    1    2    0    0  0.29281203921E+02 -0.53595068603E+02 -0.41532831140E+02  0.14518882996E+03  0.12500000000E+03 0.  0.
         25    1    1    2    0    0 -0.26833022830E+02  0.27778482067E+02  0.29805267995E+03  0.32550277296E+03  0.12500000000E+03 0.  0.
         25    1    1    2    0    0 -0.24481810908E+01  0.25816586535E+02 -0.36608949198E+02  0.13280702125E+03  0.12500000000E+03 0.  0.
</event>
<event>
 5    0  0.5568866E-005  0.2378316E+03  0.7546771E-02  0.1121246E+00
         21   -1    0    0  502  501  0.00000000000E+00  0.00000000000E+00  0.25186320601E+03  0.25186320601E+03  0.00000000000E+00 0. -1.
         21   -1    0    0  501  502 -0.00000000000E+00 -0.00000000000E+00 -0.22458176929E+03  0.22458176929E+03  0.00000000000E+00 0. -1.
         25    1    1    2    0    0  0.25982551437E+02 -0.41625995357E+02 -0.38218489108E+02  0.13961901510E+03  0.12500000000E+03 0.  0.
         25    1    1    2    0    0 -0.26380995099E+02 -0.74132557897E+02 -0.14872951704E+02  0.14845133120E+03  0.12500000000E+03 0.  0.
         25    1    1    2    0    0  0.39844366245E+00  0.11575855325E+03  0.80372877534E+02  0.18837462900E+03  0.12500000000E+03 0.  0.
</event>
<event>
 5    0  0.5568866E-005  0.4242073E+03  0.7546771E-02  0.1035706E+00
         21   -1    0    0  502  501  0.00000000000E+00  0.00000000000E+00  0.93224707389E+03  0.93224707389E+03  0.00000000000E+00 0. -1.
         21   -1    0    0  501  502 -0.00000000000E+00 -0.00000000000E+00 -0.19303018397E+03  0.19303018397E+03  0.00000000000E+00 0. -1.
         25    1    1    2    0    0 -0.21699483558E+03  0.19407146383E+03  0.34963007571E+03  0.47182272262E+03  0.12500000000E+03 0.  0.
         25    1    1    2    0    0 -0.84501250239E+02 -0.11246744478E+03  0.14086147103E+03  0.23506667447E+03  0.12500000000E+03 0.  0.
         25    1    1    2    0    0  0.30149608582E+03 -0.81604019052E+02  0.24872534318E+03  0.41838786076E+03  0.12500000000E+03 0.  0.
</event>
<event>
 5    0  0.5568866E-005  0.2376786E+03  0.7546771E-02  0.1121349E+00
         21   -1    0    0  502  501  0.00000000000E+00  0.00000000000E+00  0.58459387638E+03  0.58459387638E+03  0.00000000000E+00 0. -1.
         21   -1    0    0  501  502 -0.00000000000E+00 -0.00000000000E+00 -0.96633079473E+02  0.96633079473E+02  0.00000000000E+00 0. -1.
         25    1    1    2    0    0 -0.18866940982E+02 -0.21367799279E+02  0.15263115554E+03  0.19933342406E+03  0.12500000000E+03 0.  0.
         25    1    1    2    0    0 -0.69749838407E+02 -0.69083104650E+02  0.10356760418E+03  0.18970704769E+03  0.12500000000E+03 0.  0.
         25    1    1    2    0    0  0.88616779389E+02  0.90450903929E+02  0.23176203718E+03  0.29218648410E+03  0.12500000000E+03 0.  0.
</event>
<event>
 5    0  0.5568866E-005  0.3954320E+03  0.7546771E-02  0.1045373E+00
         21   -1    0    0  502  501  0.00000000000E+00  0.00000000000E+00  0.24406398712E+03  0.24406398712E+03  0.00000000000E+00 0. -1.
         21   -1    0    0  501  502 -0.00000000000E+00 -0.00000000000E+00 -0.64067826967E+03  0.64067826967E+03  0.00000000000E+00 0. -1.
         25    1    1    2    0    0 -0.16601541337E+03 -0.47625738518E+02 -0.35720734943E+02  0.21617192082E+03  0.12500000000E+03 0.  0.
         25    1    1    2    0    0  0.26571545407E+03 -0.46247151936E+02 -0.42729458611E+02  0.30032367244E+03  0.12500000000E+03 0.  0.
         25    1    1    2    0    0 -0.99700040703E+02  0.93872890454E+02 -0.31816408899E+03  0.36824666353E+03  0.12500000000E+03 0.  0.
</event>
<event>
 5    0  0.5568866E-005  0.2708317E+03  0.7546771E-02  0.1100805E+00
         21   -1    0    0  502  501  0.00000000000E+00  0.00000000000E+00  0.12998075431E+03  0.12998075431E+03  0.00000000000E+00 0.  1.
         21   -1    0    0  501  502 -0.00000000000E+00 -0.00000000000E+00 -0.56431297622E+03  0.56431297622E+03  0.00000000000E+00 0.  1.
         25    1    1    2    0    0 -0.17598554497E+03 -0.54297311413E+02 -0.23260998961E+03  0.32194955713E+03  0.12500000000E+03 0.  0.
         25    1    1    2    0    0  0.10420152291E+03  0.39486711899E+02 -0.11965189090E+03  0.20581237278E+03  0.12500000000E+03 0.  0.
         25    1    1    2    0    0  0.71784022065E+02  0.14810599514E+02 -0.82070341395E+02  0.16653180062E+03  0.12500000000E+03 0.  0.
</event>
<event>
 5    0  0.5568866E-005  0.3238908E+03  0.7546771E-02  0.1073872E+00
         21   -1    0    0  502  501  0.00000000000E+00  0.00000000000E+00  0.19650751444E+04  0.19650751444E+04  0.00000000000E+00 0. -1.
         21   -1    0    0  501  502 -0.00000000000E+00 -0.00000000000E+00 -0.53384860116E+02  0.53384860116E+02  0.00000000000E+00 0. -1.
         25    1    1    2    0    0 -0.11246988428E+03  0.11620006796E+03  0.57200400935E+03  0.60742531835E+03  0.12500000000E+03 0.  0.
         25    1    1    2    0    0  0.17668321989E+03 -0.17989495144E+03  0.98101984629E+03  0.10205900708E+04  0.12500000000E+03 0.  0.
         25    1    1    2    0    0 -0.64213335612E+02  0.63694883482E+02  0.35866642865E+03  0.39044461540E+03  0.12500000000E+03 0.  0.
</event>
<event>
 5    0  0.5568866E-005  0.2771128E+03  0.7546771E-02  0.1097276E+00
         21   -1    0    0  502  501  0.00000000000E+00  0.00000000000E+00  0.34149293499E+03  0.34149293499E+03  0.00000000000E+00 0.  1.
         21   -1    0    0  501  502 -0.00000000000E+00 -0.00000000000E+00 -0.22487003479E+03  0.22487003479E+03  0.00000000000E+00 0.  1.
         25    1    1    2    0    0  0.66334638030E+01  0.58351010113E+01  0.10928464462E+03  0.16627141906E+03  0.12500000000E+03 0.  0.
         25    1    1    2    0    0  0.19036935445E+02  0.11278981147E+03 -0.98741579369E+02  0.19610927051E+03  0.12500000000E+03 0.  0.
         25    1    1    2    0    0 -0.25670399248E+02 -0.11862491248E+03  0.10607983495E+03  0.20398228021E+03  0.12500000000E+03 0.  0.
</event>
<event>
 5    0  0.5568866E-005  0.3756551E+03  0.7546771E-02  0.1052551E+00
         21   -1    0    0  502  501  0.00000000000E+00  0.00000000000E+00  0.18649818032E+03  0.18649818032E+03  0.00000000000E+00 0. -1.
         21   -1    0    0  501  502 -0.00000000000E+00 -0.00000000000E+00 -0.75666541957E+03  0.75666541957E+03  0.00000000000E+00 0. -1.
         25    1    1    2    0    0  0.25108492981E+02 -0.15414255288E+03 -0.66554036326E+02  0.21081936054E+03  0.12500000000E+03 0.  0.
         25    1    1    2    0    0  0.11497714817E+03  0.38623706681E+02  0.89343471956E+01  0.17440286087E+03  0.12500000000E+03 0.  0.
         25    1    1    2    0    0 -0.14008564115E+03  0.11551884620E+03 -0.51254755012E+03  0.55794137848E+03  0.12500000000E+03 0.  0.
</event>
<event>
 5    0  0.5568866E-005  0.2815211E+03  0.7546771E-02  0.1094861E+00
         21   -1    0    0  502  501  0.00000000000E+00  0.00000000000E+00  0.80336118697E+02  0.80336118697E+02  0.00000000000E+00 0. -1.
         21   -1    0    0  501  502 -0.00000000000E+00 -0.00000000000E+00 -0.98653152736E+03  0.98653152736E+03  0.00000000000E+00 0. -1.
         25    1    1    2    0    0 -0.24408650473E+02 -0.11423155877E+03 -0.87123866184E+02  0.19199010208E+03  0.12500000000E+03 0.  0.
         25    1    1    2    0    0  0.73079494401E+02  0.27768717432E+02 -0.37010904728E+03  0.39839355046E+03  0.12500000000E+03 0.  0.
         25    1    1    2    0    0 -0.48670843929E+02  0.86462841342E+02 -0.44896249520E+03  0.47648399352E+03  0.12500000000E+03 0.  0.
</event>
<event>
 5    0  0.5568866E-005  0.2745413E+03  0.7546771E-02  0.1098708E+00
         21   -1    0    0  502  501  0.00000000000E+00  0.00000000000E+00  0.69692664341E+02  0.69692664341E+02  0.00000000000E+00 0. -1.
         21   -1    0    0  501  502 -0.00000000000E+00 -0.00000000000E+00 -0.10815041319E+04  0.10815041319E+04  0.00000000000E+00 0. -1.
         25    1    1    2    0    0  0.93941026255E+01 -0.45456977328E+02 -0.23281896681E+03  0.26829882083E+03  0.12500000000E+03 0.  0.
         25    1    1    2    0    0  0.10746312143E+03 -0.51951673491E-01 -0.12928337676E+03  0.20949347645E+03  0.12500000000E+03 0.  0.
         25    1    1    2    0    0 -0.11685722406E+03  0.45508929002E+02 -0.64970912398E+03  0.67340449896E+03  0.12500000000E+03 0.  0.
</event>
<event>
 5    0  0.5568866E-005  0.2266882E+03  0.7546771E-02  0.1128993E+00
         21   -1    0    0  502  501  0.00000000000E+00  0.00000000000E+00  0.97915475119E+03  0.97915475119E+03  0.00000000000E+00 0.  1.
         21   -1    0    0  501  502 -0.00000000000E+00 -0.00000000000E+00 -0.52481522648E+02  0.52481522648E+02  0.00000000000E+00 0.  1.
         25    1    1    2    0    0 -0.56928072960E+02  0.30455210198E+02  0.22521018687E+03  0.26554275285E+03  0.12500000000E+03 0.  0.
         25    1    1    2    0    0  0.21655300776E+02 -0.47574274634E+02  0.54712860750E+03  0.56365501578E+03  0.12500000000E+03 0.  0.
         25    1    1    2    0    0  0.35272772184E+02  0.17119064436E+02  0.15433443417E+03  0.20243850522E+03  0.12500000000E+03 0.  0.
</event>
<event>
 5    0  0.5568866E-005  0.3871372E+03  0.7546771E-02  0.1048327E+00
         21   -1    0    0  502  501  0.00000000000E+00  0.00000000000E+00  0.25527148360E+03  0.25527148360E+03  0.00000000000E+00 0. -1.
         21   -1    0    0  501  502 -0.00000000000E+00 -0.00000000000E+00 -0.58712084484E+03  0.58712084484E+03  0.00000000000E+00 0. -1.
         25    1    1    2    0    0  0.27274606484E+02  0.17458717235E+03 -0.33604538526E+03  0.39972000934E+03  0.12500000000E+03 0.  0.
         25    1    1    2    0    0  0.13511808112E+03 -0.61997354867E+02  0.58066502885E+02  0.20272465714E+03  0.12500000000E+03 0.  0.
         25    1    1    2    0    0 -0.16239268761E+03 -0.11258981748E+03 -0.53870478858E+02  0.23994766196E+03  0.12500000000E+03 0.  0.
</event>
<event>
 5    0  0.5568866E-005  0.3973008E+03  0.7546771E-02  0.1044718E+00
         21   -1    0    0  502  501  0.00000000000E+00  0.00000000000E+00  0.11657382142E+04  0.11657382142E+04  0.00000000000E+00 0. -1.
         21   -1    0    0  501  502 -0.00000000000E+00 -0.00000000000E+00 -0.13540596339E+03  0.13540596339E+03  0.00000000000E+00 0. -1.
         25    1    1    2    0    0  0.13367224545E+03 -0.26473507674E+02  0.19992006218E+03  0.27232727934E+03  0.12500000000E+03 0.  0.
         25    1    1    2    0    0 -0.12482874968E+03  0.34443868175E+02  0.87670544062E+03  0.89498940017E+03  0.12500000000E+03 0.  0.
         25    1    1    2    0    0 -0.88434957703E+01 -0.79703605018E+01 -0.46293251990E+02  0.13382749809E+03  0.12500000000E+03 0.  0.
</event>
<event>
 5    0  0.5568866E-005  0.3046818E+03  0.7546771E-02  0.1082923E+00
         21   -1    0    0  502  501  0.00000000000E+00  0.00000000000E+00  0.17519471808E+04  0.17519471808E+04  0.00000000000E+00 0.  1.
         21   -1    0    0  501  502 -0.00000000000E+00 -0.00000000000E+00 -0.52987316211E+02  0.52987316211E+02  0.00000000000E+00 0.  1.
         25    1    1    2    0    0 -0.17922859661E+02  0.58579581568E+02  0.20101964388E+03  0.24451317654E+03  0.12500000000E+03 0.  0.
         25    1    1    2    0    0  0.14355477114E+03  0.28769448166E+02  0.38914206591E+03  0.43415688515E+03  0.12500000000E+03 0.  0.
         25    1    1    2    0    0 -0.12563191148E+03 -0.87349029735E+02  0.11087981548E+04  0.11262644353E+04  0.12500000000E+03 0.  0.
</event>
<event>
 5    0  0.5732040E-005  0.2764259E+03  0.7546771E-02  0.1097657E+00
         21   -1    0    0  502  501  0.00000000000E+00  0.00000000000E+00  0.61281210902E+03  0.61281210902E+03  0.00000000000E+00 0. -1.
         21   -1    0    0  501  502 -0.00000000000E+00 -0.00000000000E+00 -0.12468956625E+03  0.12468956625E+03  0.00000000000E+00 0. -1.
         25    1    1    2    0    0  0.83277392167E+02  0.11285951793E+02  0.11169866020E+03  0.18752089869E+03  0.12500000000E+03 0.  0.
         25    1    1    2    0    0 -0.15400809810E+03 -0.10989010822E+03  0.21136887731E+03  0.30999376197E+03  0.12500000000E+03 0.  0.
         25    1    1    2    0    0  0.70730705930E+02  0.98604156424E+02  0.16505500525E+03  0.23998701462E+03  0.12500000000E+03 0.  0.
</event>
<event>
 5    0  0.5568866E-005  0.2486629E+03  0.7546771E-02  0.1114153E+00
         21   -1    0    0  502  501  0.00000000000E+00  0.00000000000E+00  0.38694260754E+03  0.38694260754E+03  0.00000000000E+00 0.  1.
         21   -1    0    0  501  502 -0.00000000000E+00 -0.00000000000E+00 -0.15979953311E+03  0.15979953311E+03  0.00000000000E+00 0.  1.
         25    1    1    2    0    0 -0.27532208379E+02  0.25749596148E+02  0.17597725644E+03  0.21912110575E+03  0.12500000000E+03 0.  0.
         25    1    1    2    0    0  0.70381147114E+01  0.85405747905E+02  0.48326058788E+02  0.15907257712E+03  0.12500000000E+03 0.  0.
         25    1    1    2    0    0  0.20494093667E+02 -0.11115534405E+03  0.28397592087E+01  0.16854845778E+03  0.12500000000E+03 0.  0.
</event>
<event>
 5    0  0.5568866E-005  0.2534608E+03  0.7546771E-02  0.1111137E+00
         21   -1    0    0  502  501  0.00000000000E+00  0.00000000000E+00  0.11287457568E+04  0.11287457568E+04  0.00000000000E+00 0.  1.
         21   -1    0    0  501  502 -0.00000000000E+00 -0.00000000000E+00 -0.56914817319E+02  0.56914817319E+02  0.00000000000E+00 0.  1.
         25    1    1    2    0    0 -0.33045474871E+02  0.74809924583E+02  0.36045392374E+03  0.39018016270E+03  0.12500000000E+03 0.  0.
         25    1    1    2    0    0  0.34923410382E+02 -0.11234446821E+03  0.59942517523E+03  0.62351941817E+03  0.12500000000E+03 0.  0.
         25    1    1    2    0    0 -0.18779355108E+01  0.37534543629E+02  0.11195184051E+03  0.17196099326E+03  0.12500000000E+03 0.  0.
</event>
<event>
 5    0  0.5568866E-005  0.1063095E+04  0.7546771E-02  0.9241928E-01
         21   -1    0    0  502  501  0.00000000000E+00  0.00000000000E+00  0.13820448979E+04  0.13820448979E+04  0.00000000000E+00 0.  1.
         21   -1    0    0  501  502 -0.00000000000E+00 -0.00000000000E+00 -0.81775199549E+03  0.81775199549E+03  0.00000000000E+00 0.  1.
         25    1    1    2    0    0 -0.27164197126E+03  0.33468817151E+03  0.85507741514E+03  0.96570591724E+03  0.12500000000E+03 0.  0.
         25    1    1    2    0    0 -0.40062227261E+03  0.32580486210E+02 -0.66455832102E+02  0.42614677168E+03  0.12500000000E+03 0.  0.
         25    1    1    2    0    0  0.67226424388E+03 -0.36726865772E+03 -0.22432868065E+03  0.80794420445E+03  0.12500000000E+03 0.  0.
</event>
<event>
 5    0  0.5568866E-005  0.4447892E+03  0.7546771E-02  0.1029287E+00
         21   -1    0    0  502  501  0.00000000000E+00  0.00000000000E+00  0.18069842165E+03  0.18069842165E+03  0.00000000000E+00 0. -1.
         21   -1    0    0  501  502 -0.00000000000E+00 -0.00000000000E+00 -0.10948488084E+04  0.10948488084E+04  0.00000000000E+00 0. -1.
         25    1    1    2    0    0  0.71842192326E+02  0.62755640043E+02  0.16424640886E+02  0.15809598282E+03  0.12500000000E+03 0.  0.
         25    1    1    2    0    0  0.12400294413E+03 -0.25412483385E+03 -0.56355256026E+03  0.64278507256E+03  0.12500000000E+03 0.  0.
         25    1    1    2    0    0 -0.19584513645E+03  0.19136919381E+03 -0.36702246736E+03  0.47466617465E+03  0.12500000000E+03 0.  0.
</event>
<event>
 5    0  0.5568866E-005  0.2725623E+03  0.7546771E-02  0.1099822E+00
         21   -1    0    0  502  501  0.00000000000E+00  0.00000000000E+00  0.89739588042E+03  0.89739588042E+03  0.00000000000E+00 0. -1.
         21   -1    0    0  501  502 -0.00000000000E+00 -0.00000000000E+00 -0.82784181373E+02  0.82784181373E+02  0.00000000000E+00 0. -1.
         25    1    1    2    0    0  0.34069370812E+02 -0.90310781857E+02  0.26212117859E+03  0.30602168487E+03  0.12500000000E+03 0.  0.
         25    1    1    2    0    0 -0.78710507389E+02 -0.18598852998E+02  0.45047979709E+03  0.47444526438E+03  0.12500000000E+03 0.  0.
         25    1    1    2    0    0  0.44641136577E+02  0.10890963485E+03  0.10201072337E+03  0.19971311254E+03  0.12500000000E+03 0.  0.
</event>
<event>
 5    0  0.5568866E-005  0.4383155E+03  0.7546771E-02  0.1031265E+00
         21   -1    0    0  502  501  0.00000000000E+00  0.00000000000E+00  0.39221104814E+03  0.39221104814E+03  0.00000000000E+00 0.  1.
         21   -1    0    0  501  502 -0.00000000000E+00 -0.00000000000E+00 -0.48983959874E+03  0.48983959874E+03  0.00000000000E+00 0.  1.
         25    1    1    2    0    0 -0.15926750304E+03 -0.23863609443E+03  0.14470735775E+02  0.31328537356E+03  0.12500000000E+03 0.  0.
         25    1    1    2    0    0  0.22476120693E+03  0.54176962309E+02 -0.18943313419E+03  0.32397940631E+03  0.12500000000E+03 0.  0.
         25    1    1    2    0    0 -0.65493703885E+02  0.18445913212E+03  0.77333847815E+02  0.24478586702E+03  0.12500000000E+03 0.  0.
</event>
<event>
 5    0  0.6354165E-005  0.3181767E+03  0.7546771E-02  0.1076492E+00
         21   -1    0    0  502  501  0.00000000000E+00  0.00000000000E+00  0.53307860882E+03  0.53307860882E+03  0.00000000000E+00 0.  1.
         21   -1    0    0  501  502 -0.00000000000E+00 -0.00000000000E+00 -0.18990900265E+03  0.18990900265E+03  0.00000000000E+00 0.  1.
         25    1    1    2    0    0 -0.12479523179E+03 -0.10466496321E+03  0.85535028291E+02  0.22241817701E+03  0.12500000000E+03 0.  0.
         25    1    1    2    0    0  0.16610015711E+03  0.48939497388E+02  0.28386134774E+03  0.35522753460E+03  0.12500000000E+03 0.  0.
         25    1    1    2    0    0 -0.41304925319E+02  0.55725465826E+02 -0.26226769858E+02  0.14534189986E+03  0.12500000000E+03 0.  0.
</event>
<event>
 5    0  0.5568866E-005  0.3260400E+03  0.7546771E-02  0.1072903E+00
         21   -1    0    0  502  501  0.00000000000E+00  0.00000000000E+00  0.33456437172E+03  0.33456437172E+03  0.00000000000E+00 0.  1.
         21   -1    0    0  501  502 -0.00000000000E+00 -0.00000000000E+00 -0.31773288207E+03  0.31773288207E+03  0.00000000000E+00 0.  1.
         25    1    1    2    0    0  0.13280853901E+03  0.53738661339E+02 -0.17631890308E+03  0.25930543253E+03  0.12500000000E+03 0.  0.
         25    1    1    2    0    0 -0.34700279629E+02 -0.53275526823E+02  0.18729464832E+03  0.23398007705E+03  0.12500000000E+03 0.  0.
         25    1    1    2    0    0 -0.98108259383E+02 -0.46313451563E+00  0.58557444074E+01  0.15901174421E+03  0.12500000000E+03 0.  0.
</event>
<event>
 5    0  0.5568866E-005  0.2753887E+03  0.7546771E-02  0.1098235E+00
         21   -1    0    0  502  501  0.00000000000E+00  0.00000000000E+00  0.11832542781E+04  0.11832542781E+04  0.00000000000E+00 0. -1.
         21   -1    0    0  501  502 -0.00000000000E+00 -0.00000000000E+00 -0.64093501687E+02  0.64093501687E+02  0.00000000000E+00 0. -1.
         25    1    1    2    0    0 -0.37858844130E+02  0.72668270963E+01  0.52116716093E+03  0.53733258648E+03  0.12500000000E+03 0.  0.
         25    1    1    2    0    0  0.48580264385E+02  0.13220349182E+03  0.23256709457E+03  0.29924949258E+03  0.12500000000E+03 0.  0.
         25    1    1    2    0    0 -0.10721420254E+02 -0.13947031891E+03  0.36542652095E+03  0.41076570076E+03  0.12500000000E+03 0.  0.
</event>
<event>
 5    0  0.5568866E-005  0.2796095E+03  0.7546771E-02  0.1095902E+00
         21   -1    0    0  502  501  0.00000000000E+00  0.00000000000E+00  0.12608687387E+04  0.12608687387E+04  0.00000000000E+00 0. -1.
         21   -1    0    0  501  502 -0.00000000000E+00 -0.00000000000E+00 -0.62006019435E+02  0.62006019435E+02  0.00000000000E+00 0. -1.
         25    1    1    2    0    0 -0.35769114222E+01 -0.11431224019E+03  0.51492964238E+03  0.54208635766E+03  0.12500000000E+03 0.  0.
         25    1    1    2    0    0 -0.76814566207E+02  0.27512649369E+02  0.12106753367E+03  0.19219721945E+03  0.12500000000E+03 0.  0.
         25    1    1    2    0    0  0.80391477629E+02  0.86799590823E+02  0.56286554320E+03  0.58859118102E+03  0.12500000000E+03 0.  0.
</event>
<event>
 5    0  0.5568866E-005  0.5711409E+03  0.7546771E-02  0.9967157E-01
         21   -1    0    0  502  501  0.00000000000E+00  0.00000000000E+00  0.13189870488E+04  0.13189870488E+04  0.00000000000E+00 0. -1.
         21   -1    0    0  501  502 -0.00000000000E+00 -0.00000000000E+00 -0.24731241658E+03  0.24731241658E+03  0.00000000000E+00 0. -1.
         25    1    1    2    0    0  0.25725288596E+02  0.39470758181E+03  0.21203027782E+03  0.46587305602E+03  0.12500000000E+03 0.  0.
         25    1    1    2    0    0  0.51708348592E+02 -0.24332484536E+02 -0.15998420182E+02  0.13837186335E+03  0.12500000000E+03 0.  0.
         25    1    1    2    0    0 -0.77433637188E+02 -0.37037509727E+03  0.87564277461E+03  0.96205454605E+03  0.12500000000E+03 0.  0.
</event>
<event>
 5    0  0.5568866E-005  0.3672867E+03  0.7546771E-02  0.1055735E+00
         21   -1    0    0  502  501  0.00000000000E+00  0.00000000000E+00  0.93020567362E+03  0.93020567362E+03  0.00000000000E+00 0. -1.
         21   -1    0    0  501  502 -0.00000000000E+00 -0.00000000000E+00 -0.14502115656E+03  0.14502115656E+03  0.00000000000E+00 0. -1.
         25    1    1    2    0    0 -0.19297789367E+03  0.45397791546E+02  0.29488860728E+03  0.37667720614E+03  0.12500000000E+03 0.  0.
         25    1    1    2    0    0  0.11674019758E+03  0.11651566183E+03  0.59067813551E+02  0.21521658807E+03  0.12500000000E+03 0.  0.
         25    1    1    2    0    0  0.76237696085E+02 -0.16191345337E+03  0.43122809624E+03  0.48333303598E+03  0.12500000000E+03 0.  0.
</event>
<event>
 5    0  0.5568866E-005  0.3514121E+03  0.7546771E-02  0.1062037E+00
         21   -1    0    0  502  501  0.00000000000E+00  0.00000000000E+00  0.17700171549E+04  0.17700171549E+04  0.00000000000E+00 0. -1.
         21   -1    0    0  501  502 -0.00000000000E+00 -0.00000000000E+00 -0.69767955370E+02  0.69767955370E+02  0.00000000000E+00 0. -1.
         25    1    1    2    0    0 -0.53979130274E+02 -0.13750958957E+03  0.27578612485E+03  0.33690595184E+03  0.12500000000E+03 0.  0.
         25    1    1    2    0    0 -0.12646820263E+03 -0.40793452723E+01  0.30256159788E+03  0.35096918361E+03  0.12500000000E+03 0.  0.
         25    1    1    2    0    0  0.18044733290E+03  0.14158893484E+03  0.11219014768E+04  0.11519099748E+04  0.12500000000E+03 0.  0.
</event>
<event>
 5    0  0.5568866E-005  0.3238279E+03  0.7546771E-02  0.1073901E+00
         21   -1    0    0  502  501  0.00000000000E+00  0.00000000000E+00  0.12004246920E+03  0.12004246920E+03  0.00000000000E+00 0.  1.
         21   -1    0    0  501  502 -0.00000000000E+00 -0.00000000000E+00 -0.87356187271E+03  0.87356187271E+03  0.00000000000E+00 0.  1.
         25    1    1    2    0    0 -0.62139410989E+02 -0.21425875805E+03 -0.53404604160E+03  0.59211341510E+03  0.12500000000E+03 0.  0.
         25    1    1    2    0    0  0.21695508003E+02  0.98310518900E+02 -0.94390120386E+02  0.18619921595E+03  0.12500000000E+03 0.  0.
         25    1    1    2    0    0  0.40443902986E+02  0.11594823915E+03 -0.12508324153E+03  0.21529171085E+03  0.12500000000E+03 0.  0.
</event>
<event>
 5    0  0.5568866E-005  0.2542060E+03  0.7546771E-02  0.1110675E+00
         21   -1    0    0  502  501  0.00000000000E+00  0.00000000000E+00  0.44206915970E+03  0.44206915970E+03  0.00000000000E+00 0.  1.
         21   -1    0    0  501  502 -0.00000000000E+00 -0.00000000000E+00 -0.14617773058E+03  0.14617773058E+03  0.00000000000E+00 0.  1.
         25    1    1    2    0    0  0.64267907048E+02 -0.14448987048E+02 -0.84216968696E+01  0.14154526513E+03  0.12500000000E+03 0.  0.
         25    1    1    2    0    0 -0.84164883315E+02  0.92859816605E+02  0.14687573164E+03  0.23000902953E+03  0.12500000000E+03 0.  0.
         25    1    1    2    0    0  0.19896976267E+02 -0.78410829557E+02  0.15743739435E+03  0.21669259562E+03  0.12500000000E+03 0.  0.
</event>
<event>
 5    0  0.5568866E-005  0.2480631E+03  0.7546771E-02  0.1114535E+00
         21   -1    0    0  502  501  0.00000000000E+00  0.00000000000E+00  0.93263328103E+02  0.93263328103E+02  0.00000000000E+00 0.  1.
         21   -1    0    0  501  502 -0.00000000000E+00 -0.00000000000E+00 -0.65980156063E+03  0.65980156063E+03  0.00000000000E+00 0.  1.
         25    1    1    2    0    0 -0.69466196706E+02 -0.38318283132E+02 -0.33754146452E+02  0.15184922031E+03  0.12500000000E+03 0.  0.
         25    1    1    2    0    0  0.38406534622E+01  0.40578445803E+02 -0.31877016136E+03  0.34481991917E+03  0.12500000000E+03 0.  0.
         25    1    1    2    0    0  0.65625543244E+02 -0.22601626715E+01 -0.21401392471E+03  0.25639574925E+03  0.12500000000E+03 0.  0.
</event>
<event>
 5    0  0.5568866E-005  0.2976905E+03  0.7546771E-02  0.1086401E+00
         21   -1    0    0  502  501  0.00000000000E+00  0.00000000000E+00  0.16684051989E+04  0.16684051989E+04  0.00000000000E+00 0. -1.
         21   -1    0    0  501  502 -0.00000000000E+00 -0.00000000000E+00 -0.53116358169E+02  0.53116358169E+02  0.00000000000E+00 0. -1.
         25    1    1    2    0    0  0.35519027878E+01 -0.91757774866E+02  0.11147372680E+04  0.11254760246E+04  0.12500000000E+03 0.  0.
         25    1    1    2    0    0  0.62244754036E+01  0.44611585976E+02  0.80959869720E+02  0.15559061091E+03  0.12500000000E+03 0.  0.
         25    1    1    2    0    0 -0.97763781914E+01  0.47146188889E+02  0.41959170296E+03  0.44045492152E+03  0.12500000000E+03 0.  0.
</event>
<event>
 5    0  0.5568866E-005  0.4572776E+03  0.7546771E-02  0.1025574E+00
         21   -1    0    0  502  501  0.00000000000E+00  0.00000000000E+00  0.97094800266E+02  0.97094800266E+02  0.00000000000E+00 0. -1.
         21   -1    0    0  501  502 -0.00000000000E+00 -0.00000000000E+00 -0.21535940680E+04  0.21535940680E+04  0.00000000000E+00 0. -1.
         25    1    1    2    0    0 -0.32368503387E+03  0.22881765982E+02 -0.36614551669E+03  0.50495852875E+03  0.12500000000E+03 0.  0.
         25    1    1    2    0    0  0.21297560887E+03  0.38853995712E+02 -0.81586420392E+03  0.85330395651E+03  0.12500000000E+03 0.  0.
         25    1    1    2    0    0  0.11070942499E+03 -0.61735761694E+02 -0.87448954715E+03  0.89242638303E+03  0.12500000000E+03 0.  0.
</event>
<event>
 5    0  0.5797218E-005  0.2872552E+03  0.7546771E-02  0.1091791E+00
         21   -1    0    0  502  501  0.00000000000E+00  0.00000000000E+00  0.38712804358E+03  0.38712804358E+03  0.00000000000E+00 0. -1.
         21   -1    0    0  501  502 -0.00000000000E+00 -0.00000000000E+00 -0.21314789684E+03  0.21314789684E+03  0.00000000000E+00 0. -1.
         25    1    1    2    0    0 -0.10657450910E+03 -0.64869588789E+01  0.33283730108E+02  0.16772898770E+03  0.12500000000E+03 0.  0.
         25    1    1    2    0    0  0.42641247186E+01 -0.97956898370E+02  0.17587138938E+03  0.23700101751E+03  0.12500000000E+03 0.  0.
         25    1    1    2    0    0  0.10231038438E+03  0.10444385725E+03 -0.35174972750E+02  0.19554593521E+03  0.12500000000E+03 0.  0.
</event>
<event>
 5    0  0.5568866E-005  0.3416779E+03  0.7546771E-02  0.1066084E+00
         21   -1    0    0  502  501  0.00000000000E+00  0.00000000000E+00  0.41269851728E+03  0.41269851728E+03  0.00000000000E+00 0.  1.
         21   -1    0    0  501  502 -0.00000000000E+00 -0.00000000000E+00 -0.28287904135E+03  0.28287904135E+03  0.00000000000E+00 0.  1.
         25    1    1    2    0    0  0.68449829870E+02  0.60685012357E+02  0.13602998586E+02  0.15549305935E+03  0.12500000000E+03 0.  0.
         25    1    1    2    0    0 -0.14065814196E+03 -0.23208876991E+03  0.10130005102E+03  0.31549423189E+03  0.12500000000E+03 0.  0.
         25    1    1    2    0    0  0.72208312087E+02  0.17140375755E+03  0.14916426321E+02  0.22459026740E+03  0.12500000000E+03 0.  0.
</event>
<event>
 5    0  0.5568866E-005  0.3137512E+03  0.7546771E-02  0.1078562E+00
         21   -1    0    0  502  501  0.00000000000E+00  0.00000000000E+00  0.16496083000E+03  0.16496083000E+03  0.00000000000E+00 0. -1.
         21   -1    0    0  501  502 -0.00000000000E+00 -0.00000000000E+00 -0.59674653476E+03  0.59674653476E+03  0.00000000000E+00 0. -1.
         25    1    1    2    0    0  0.27522231266E+02  0.65955385921E+02 -0.30582899598E+03  0.33802952671E+03  0.12500000000E+03 0.  0.
         25    1    1    2    0    0 -0.12063167502E+03  0.67023060568E+02 -0.11426117370E+03  0.21845985325E+03  0.12500000000E+03 0.  0.
         25    1    1    2    0    0  0.93109443754E+02 -0.13297844649E+03 -0.11695535081E+02  0.20521798481E+03  0.12500000000E+03 0.  0.
</event>
<event>
 5    0  0.5568866E-005  0.4743723E+03  0.7546771E-02  0.1020693E+00
         21   -1    0    0  502  501  0.00000000000E+00  0.00000000000E+00  0.66536312363E+03  0.66536312363E+03  0.00000000000E+00 0.  1.
         21   -1    0    0  501  502 -0.00000000000E+00 -0.00000000000E+00 -0.33820485851E+03  0.33820485851E+03  0.00000000000E+00 0.  1.
         25    1    1    2    0    0 -0.23841077007E+03  0.35109541562E+02  0.40900807087E+03  0.49090220740E+03  0.12500000000E+03 0.  0.
         25    1    1    2    0    0  0.66434833105E+02  0.16174086679E+03 -0.53792057316E+02  0.22156777850E+03  0.12500000000E+03 0.  0.
         25    1    1    2    0    0  0.17197593696E+03 -0.19685040835E+03 -0.28057748431E+02  0.29109799623E+03  0.12500000000E+03 0.  0.
</event>
<event>
 5    0  0.6019282E-005  0.2556217E+03  0.7546771E-02  0.1109803E+00
         21   -1    0    0  502  501  0.00000000000E+00  0.00000000000E+00  0.58975900327E+03  0.58975900327E+03  0.00000000000E+00 0.  1.
         21   -1    0    0  501  502 -0.00000000000E+00 -0.00000000000E+00 -0.11079518832E+03  0.11079518832E+03  0.00000000000E+00 0.  1.
         25    1    1    2    0    0  0.53222104617E+02  0.12198713615E+03  0.10798378369E+03  0.21212956264E+03  0.12500000000E+03 0.  0.
         25    1    1    2    0    0  0.40348250570E+02 -0.63241918876E+02  0.12996075236E+03  0.19530058571E+03  0.12500000000E+03 0.  0.
         25    1    1    2    0    0 -0.93570355187E+02 -0.58745217278E+02  0.24101927890E+03  0.29312404324E+03  0.12500000000E+03 0.  0.
</event>
<event>
 5    0  0.5568866E-005  0.4420167E+03  0.7546771E-02  0.1030130E+00
         21   -1    0    0  502  501  0.00000000000E+00  0.00000000000E+00  0.21838040725E+03  0.21838040725E+03  0.00000000000E+00 0. -1.
         21   -1    0    0  501  502 -0.00000000000E+00 -0.00000000000E+00 -0.89467163298E+03  0.89467163298E+03  0.00000000000E+00 0. -1.
         25    1    1    2    0    0  0.16348506618E+03  0.18216865799E+03 -0.65682971630E+03  0.71201338684E+03  0.12500000000E+03 0.  0.
         25    1    1    2    0    0 -0.13202461338E+03 -0.14577758466E+02 -0.45580454906E+02  0.18800422189E+03  0.12500000000E+03 0.  0.
         25    1    1    2    0    0 -0.31460452799E+02 -0.16759089952E+03  0.26118945470E+02  0.21303443150E+03  0.12500000000E+03 0.  0.
</event>
<event>
 5    0  0.5568866E-005  0.3615089E+03  0.7546771E-02  0.1057988E+00
         21   -1    0    0  502  501  0.00000000000E+00  0.00000000000E+00  0.16117662549E+03  0.16117662549E+03  0.00000000000E+00 0.  1.
         21   -1    0    0  501  502 -0.00000000000E+00 -0.00000000000E+00 -0.81084161007E+03  0.81084161007E+03  0.00000000000E+00 0.  1.
         25    1    1    2    0    0 -0.14631049495E+03  0.52347773815E+02 -0.18440792586E+02  0.20028008685E+03  0.12500000000E+03 0.  0.
         25    1    1    2    0    0  0.21970583128E+03  0.18298833698E+02 -0.24194758693E+03  0.35038426682E+03  0.12500000000E+03 0.  0.
         25    1    1    2    0    0 -0.73395336322E+02 -0.70646607512E+02 -0.38927660505E+03  0.42135388189E+03  0.12500000000E+03 0.  0.
</event>
<event>
 5    0  0.6966278E-005  0.3833133E+03  0.7546771E-02  0.1049716E+00
         21   -1    0    0  502  501  0.00000000000E+00  0.00000000000E+00  0.21991812759E+03  0.21991812759E+03  0.00000000000E+00 0.  1.
         21   -1    0    0  501  502 -0.00000000000E+00 -0.00000000000E+00 -0.66810811848E+03  0.66810811848E+03  0.00000000000E+00 0.  1.
         25    1    1    2    0    0  0.79104380555E+02 -0.18973887202E+03 -0.38648034537E+03  0.45524762485E+03  0.12500000000E+03 0.  0.
         25    1    1    2    0    0 -0.18215511015E+03  0.96227062204E+02 -0.26232426514E+02  0.24239074210E+03  0.12500000000E+03 0.  0.
         25    1    1    2    0    0  0.10305072960E+03  0.93511809818E+02 -0.35477219000E+02  0.19038787912E+03  0.12500000000E+03 0.  0.
</event>
<event>
 5    0  0.5568866E-005  0.3711600E+03  0.7546771E-02  0.1054250E+00
         21   -1    0    0  502  501  0.00000000000E+00  0.00000000000E+00  0.21587659081E+03  0.21587659081E+03  0.00000000000E+00 0.  1.
         21   -1    0    0  501  502 -0.00000000000E+00 -0.00000000000E+00 -0.63814107973E+03  0.63814107973E+03  0.00000000000E+00 0.  1.
         25    1    1    2    0    0 -0.14037734112E+03 -0.14080822988E+03 -0.27435986914E+03  0.36115245159E+03  0.12500000000E+03 0.  0.
         25    1    1    2    0    0  0.17367877537E+03  0.22375890518E+03 -0.58524623305E+02  0.31509125059E+03  0.12500000000E+03 0.  0.
         25    1    1    2    0    0 -0.33301434256E+02 -0.82950675306E+02 -0.89379996482E+02  0.17777396837E+03  0.12500000000E+03 0.  0.
</event>
<event>
 5    0  0.5568866E-005  0.4730374E+03  0.7546771E-02  0.1021066E+00
         21   -1    0    0  502  501  0.00000000000E+00  0.00000000000E+00  0.99868186157E+02  0.99868186157E+02  0.00000000000E+00 0.  1.
         21   -1    0    0  501  502 -0.00000000000E+00 -0.00000000000E+00 -0.22405975899E+04  0.22405975899E+04  0.00000000000E+00 0.  1.
         25    1    1    2    0    0  0.14547341854E+03 -0.30893005231E+02 -0.54354824509E+02  0.20173333939E+03  0.12500000000E+03 0.  0.
         25    1    1    2    0    0 -0.18601231808E+03  0.10780288526E+03 -0.17726632370E+04  0.17900229038E+04  0.12500000000E+03 0.  0.
         25    1    1    2    0    0  0.40538899539E+02 -0.76909880034E+02 -0.31371134229E+03  0.34870953285E+03  0.12500000000E+03 0.  0.
</event>
<event>
 5    0  0.5568866E-005  0.2762433E+03  0.7546771E-02  0.1097759E+00
         21   -1    0    0  502  501  0.00000000000E+00  0.00000000000E+00  0.71305704662E+03  0.71305704662E+03  0.00000000000E+00 0.  1.
         21   -1    0    0  501  502 -0.00000000000E+00 -0.00000000000E+00 -0.10701857015E+03  0.10701857015E+03  0.00000000000E+00 0.  1.
         25    1    1    2    0    0  0.42016223245E+02  0.99221704078E+02  0.80058251438E+02  0.18342473443E+03  0.12500000000E+03 0.  0.
         25    1    1    2    0    0  0.86816956954E+02 -0.94319794942E+02  0.25581267814E+03  0.31224755248E+03  0.12500000000E+03 0.  0.
         25    1    1    2    0    0 -0.12883318020E+03 -0.49019091360E+01  0.27016754689E+03  0.32440332986E+03  0.12500000000E+03 0.  0.
</event>
<event>
 5    0  0.5568866E-005  0.3109867E+03  0.7546771E-02  0.1079874E+00
         21   -1    0    0  502  501  0.00000000000E+00  0.00000000000E+00  0.12475308510E+03  0.12475308510E+03  0.00000000000E+00 0.  1.
         21   -1    0    0  501  502 -0.00000000000E+00 -0.00000000000E+00 -0.77523307823E+03  0.77523307823E+03  0.00000000000E+00 0.  1.
         25    1    1    2    0    0 -0.22964091463E+02  0.15822001501E+03 -0.26912770949E+03  0.33706920159E+03  0.12500000000E+03 0.  0.
         25    1    1    2    0    0  0.92755512930E+02 -0.32291912275E+02 -0.28016056988E+02  0.16141949147E+03  0.12500000000E+03 0.  0.
         25    1    1    2    0    0 -0.69791421467E+02 -0.12592810273E+03 -0.35333622666E+03  0.40149747027E+03  0.12500000000E+03 0.  0.
</event>
<event>
 5    0  0.5568866E-005  0.6842791E+03  0.7546771E-02  0.9744501E-01
         21   -1    0    0  502  501  0.00000000000E+00  0.00000000000E+00  0.52633632067E+03  0.52633632067E+03  0.00000000000E+00 0. -1.
         21   -1    0    0  501  502 -0.00000000000E+00 -0.00000000000E+00 -0.88961721663E+03  0.88961721663E+03  0.00000000000E+00 0. -1.
         25    1    1    2    0    0 -0.11044782575E+03  0.14751526886E+03 -0.10056112985E+03  0.24432973130E+03  0.12500000000E+03 0.  0.
         25    1    1    2    0    0  0.45991874259E+03 -0.28306806425E+03 -0.46879720864E+03  0.72598113034E+03  0.12500000000E+03 0.  0.
         25    1    1    2    0    0 -0.34947091684E+03  0.13555279539E+03  0.20607744252E+03  0.44564267566E+03  0.12500000000E+03 0.  0.
</event>
<event>
 5    0  0.5588196E-005  0.2662287E+03  0.7546771E-02  0.1103458E+00
         21   -1    0    0  502  501  0.00000000000E+00  0.00000000000E+00  0.31463112198E+03  0.31463112198E+03  0.00000000000E+00 0.  1.
         21   -1    0    0  501  502 -0.00000000000E+00 -0.00000000000E+00 -0.22527247742E+03  0.22527247742E+03  0.00000000000E+00 0.  1.
         25    1    1    2    0    0 -0.71859616338E+02  0.30182281513E+02  0.12505771399E+03  0.19323355404E+03  0.12500000000E+03 0.  0.
         25    1    1    2    0    0  0.69118742083E+02 -0.22408755320E+02  0.89107981254E+02  0.16983752573E+03  0.12500000000E+03 0.  0.
         25    1    1    2    0    0  0.27408742556E+01 -0.77735261927E+01 -0.12480705069E+03  0.17683251964E+03  0.12500000000E+03 0.  0.
</event>
<event>
 5    0  0.5568866E-005  0.2322505E+03  0.7546771E-02  0.1125066E+00
         21   -1    0    0  502  501  0.00000000000E+00  0.00000000000E+00  0.39756601555E+02  0.39756601555E+02  0.00000000000E+00 0. -1.
         21   -1    0    0  501  502 -0.00000000000E+00 -0.00000000000E+00 -0.13567628414E+04  0.13567628414E+04  0.00000000000E+00 0. -1.
         25    1    1    2    0    0 -0.32615152344E+02  0.55321403770E+02 -0.28419000321E+03  0.31703811096E+03  0.12500000000E+03 0.  0.
         25    1    1    2    0    0 -0.46795320723E+02 -0.82357944216E+02 -0.63648407177E+03  0.65552239217E+03  0.12500000000E+03 0.  0.
         25    1    1    2    0    0  0.79410473067E+02  0.27036540447E+02 -0.39633216486E+03  0.42395893982E+03  0.12500000000E+03 0.  0.
</event>
<event>
 5    0  0.5568866E-005  0.4536439E+03  0.7546771E-02  0.1026641E+00
         21   -1    0    0  502  501  0.00000000000E+00  0.00000000000E+00  0.16867611435E+03  0.16867611435E+03  0.00000000000E+00 0. -1.
         21   -1    0    0  501  502 -0.00000000000E+00 -0.00000000000E+00 -0.12200470845E+04  0.12200470845E+04  0.00000000000E+00 0. -1.
         25    1    1    2    0    0  0.23358566110E+02  0.47901208138E+02 -0.55909754559E+03  0.57537397737E+03  0.12500000000E+03 0.  0.
         25    1    1    2    0    0  0.47502229406E+01 -0.18351453890E+02  0.12763347788E+03  0.17965145464E+03  0.12500000000E+03 0.  0.
         25    1    1    2    0    0 -0.28108789051E+02 -0.29549754248E+02 -0.61990690248E+03  0.63369776687E+03  0.12500000000E+03 0.  0.
</event>
<event>
 5    0  0.5568866E-005  0.4311676E+03  0.7546771E-02  0.1033492E+00
         21   -1    0    0  502  501  0.00000000000E+00  0.00000000000E+00  0.44140188347E+03  0.44140188347E+03  0.00000000000E+00 0. -1.
         21   -1    0    0  501  502 -0.00000000000E+00 -0.00000000000E+00 -0.42117061552E+03  0.42117061552E+03  0.00000000000E+00 0. -1.
         25    1    1    2    0    0  0.80228962808E+02  0.25894154537E+03 -0.81799489003E+02  0.30952151265E+03  0.12500000000E+03 0.  0.
         25    1    1    2    0    0 -0.15935702259E+03 -0.78194370095E+02 -0.10479180359E+03  0.24107123898E+03  0.12500000000E+03 0.  0.
         25    1    1    2    0    0  0.79128059787E+02 -0.18074717528E+03  0.20682256054E+03  0.31197974736E+03  0.12500000000E+03 0.  0.
</event>
<event>
 5    0  0.5568866E-005  0.2663936E+03  0.7546771E-02  0.1103362E+00
         21   -1    0    0  502  501  0.00000000000E+00  0.00000000000E+00  0.45812997363E+03  0.45812997363E+03  0.00000000000E+00 0. -1.
         21   -1    0    0  501  502 -0.00000000000E+00 -0.00000000000E+00 -0.15490260382E+03  0.15490260382E+03  0.00000000000E+00 0. -1.
         25    1    1    2    0    0 -0.12431747553E+03 -0.61231686538E+02  0.92161151871E+02  0.20814137520E+03  0.12500000000E+03 0.  0.
         25    1    1    2    0    0  0.13180236040E+03 -0.34624158549E+02  0.87664057047E+02  0.20464770084E+03  0.12500000000E+03 0.  0.
         25    1    1    2    0    0 -0.74848848717E+01  0.95855845087E+02  0.12340216090E+03  0.20024350140E+03  0.12500000000E+03 0.  0.
</event>
<event>
 5    0  0.5568866E-005  0.2109923E+03  0.7546771E-02  0.1140783E+00
         21   -1    0    0  502  501  0.00000000000E+00  0.00000000000E+00  0.62364313406E+03  0.62364313406E+03  0.00000000000E+00 0.  1.
         21   -1    0    0  501  502 -0.00000000000E+00 -0.00000000000E+00 -0.71383347169E+02  0.71383347169E+02  0.00000000000E+00 0.  1.
         25    1    1    2    0    0  0.70393439333E+02 -0.19727154096E+02  0.11610200682E+03  0.18560461443E+03  0.12500000000E+03 0.  0.
         25    1    1    2    0    0 -0.28792807649E+02 -0.73529266160E+01  0.22366064791E+03  0.25793831962E+03  0.12500000000E+03 0.  0.
         25    1    1    2    0    0 -0.41600631685E+02  0.27080080712E+02  0.21249713215E+03  0.25148354718E+03  0.12500000000E+03 0.  0.
</event>
<event>
 5    0  0.5568866E-005  0.4049060E+03  0.7546771E-02  0.1042094E+00
         21   -1    0    0  502  501  0.00000000000E+00  0.00000000000E+00  0.29062507016E+03  0.29062507016E+03  0.00000000000E+00 0.  1.
         21   -1    0    0  501  502 -0.00000000000E+00 -0.00000000000E+00 -0.56412508069E+03  0.56412508069E+03  0.00000000000E+00 0.  1.
         25    1    1    2    0    0  0.16436656084E+03 -0.35679653470E+02  0.78938793357E+02  0.22393243867E+03  0.12500000000E+03 0.  0.
         25    1    1    2    0    0 -0.23799551117E+03  0.40905927984E+02 -0.39499368672E+03  0.47954162575E+03  0.12500000000E+03 0.  0.
         25    1    1    2    0    0  0.73628950327E+02 -0.52262745145E+01  0.42554882835E+02  0.15127608643E+03  0.12500000000E+03 0.  0.
</event>
<event>
 5    0  0.5568866E-005  0.2302546E+03  0.7546771E-02  0.1126461E+00
         21   -1    0    0  502  501  0.00000000000E+00  0.00000000000E+00  0.32904427486E+03  0.32904427486E+03  0.00000000000E+00 0.  1.
         21   -1    0    0  501  502 -0.00000000000E+00 -0.00000000000E+00 -0.16112473447E+03  0.16112473447E+03  0.00000000000E+00 0.  1.
         25    1    1    2    0    0 -0.11993720212E+01 -0.10123463737E+03  0.13649505796E+02  0.16143481442E+03  0.12500000000E+03 0.  0.
         25    1    1    2    0    0  0.26321821050E+02  0.93093858337E+02  0.11362217782E+03  0.19466459363E+03  0.12500000000E+03 0.  0.
         25    1    1    2    0    0 -0.25122449028E+02  0.81407790341E+01  0.40647856775E+02  0.13406960129E+03  0.12500000000E+03 0.  0.
</event>
<event>
 5    0  0.5568866E-005  0.3443881E+03  0.7546771E-02  0.1064942E+00
         21   -1    0    0  502  501  0.00000000000E+00  0.00000000000E+00  0.26720827715E+04  0.26720827715E+04  0.00000000000E+00 0. -1.
         21   -1    0    0  501  502 -0.00000000000E+00 -0.00000000000E+00 -0.44386037487E+02  0.44386037487E+02  0.00000000000E+00 0. -1.
         25    1    1    2    0    0  0.16571485085E+03 -0.22099188398E+03  0.95485880876E+03  0.10018378957E+04  0.12500000000E+03 0.  0.
         25    1    1    2    0    0 -0.80282642841E+02  0.14052299911E+03  0.94433135629E+03  0.96621877776E+03  0.12500000000E+03 0.  0.
         25    1    1    2    0    0 -0.85432208008E+02  0.80468884876E+02  0.72850656901E+03  0.74841213559E+03  0.12500000000E+03 0.  0.
</event>
<event>
 5    0  0.5568866E-005  0.3771634E+03  0.7546771E-02  0.1051987E+00
         21   -1    0    0  502  501  0.00000000000E+00  0.00000000000E+00  0.12077971417E+03  0.12077971417E+03  0.00000000000E+00 0.  1.
         21   -1    0    0  501  502 -0.00000000000E+00 -0.00000000000E+00 -0.11777823716E+04  0.11777823716E+04  0.00000000000E+00 0.  1.
         25    1    1    2    0    0 -0.68365793532E+02  0.10218073901E+03 -0.21468313401E+03  0.27717978494E+03  0.12500000000E+03 0.  0.
         25    1    1    2    0    0  0.17696886795E+01 -0.75908520034E+02  0.19552579813E+02  0.14755520523E+03  0.12500000000E+03 0.  0.
         25    1    1    2    0    0  0.66596104853E+02 -0.26272218980E+02 -0.86187210324E+03  0.87382709560E+03  0.12500000000E+03 0.  0.
</event>
<event>
 5    0  0.5568866E-005  0.2559052E+03  0.7546771E-02  0.1109629E+00
         21   -1    0    0  502  501  0.00000000000E+00  0.00000000000E+00  0.28019595419E+03  0.28019595419E+03  0.00000000000E+00 0.  1.
         21   -1    0    0  501  502 -0.00000000000E+00 -0.00000000000E+00 -0.23372020819E+03  0.23372020819E+03  0.00000000000E+00 0.  1.
         25    1    1    2    0    0  0.14641233134E+02  0.76636426058E+02  0.14190101263E+03  0.20456882678E+03  0.12500000000E+03 0.  0.
         25    1    1    2    0    0 -0.30850267328E+02 -0.69048198296E+02  0.77192755337E+01  0.14630099076E+03  0.12500000000E+03 0.  0.
         25    1    1    2    0    0  0.16209034194E+02 -0.75882277623E+01 -0.10314454216E+03  0.16304634485E+03  0.12500000000E+03 0.  0.
</event>
<event>
 5    0  0.5568866E-005  0.2345823E+03  0.7546771E-02  0.1123455E+00
         21   -1    0    0  502  501  0.00000000000E+00  0.00000000000E+00  0.16495146950E+03  0.16495146950E+03  0.00000000000E+00 0.  1.
         21   -1    0    0  501  502 -0.00000000000E+00 -0.00000000000E+00 -0.33360640678E+03  0.33360640678E+03  0.00000000000E+00 0.  1.
         25    1    1    2    0    0 -0.26592822342E+02 -0.76816439083E+02 -0.11785866736E+03  0.19006211875E+03  0.12500000000E+03 0.  0.
         25    1    1    2    0    0  0.46903146120E+02 -0.31861299010E+02 -0.27709430952E+02  0.14002806881E+03  0.12500000000E+03 0.  0.
         25    1    1    2    0    0 -0.20310323778E+02  0.10867773809E+03 -0.23086838975E+02  0.16846768872E+03  0.12500000000E+03 0.  0.
</event>
<event>
 5    0  0.5568866E-005  0.3891947E+03  0.7546771E-02  0.1047587E+00
         21   -1    0    0  502  501  0.00000000000E+00  0.00000000000E+00  0.18464206471E+04  0.18464206471E+04  0.00000000000E+00 0. -1.
         21   -1    0    0  501  502 -0.00000000000E+00 -0.00000000000E+00 -0.82035772875E+02  0.82035772875E+02  0.00000000000E+00 0. -1.
         25    1    1    2    0    0  0.10841112605E+02  0.81565636281E+02  0.36001469388E+03  0.38987954878E+03  0.12500000000E+03 0.  0.
         25    1    1    2    0    0 -0.20920842195E+03  0.14058213186E+03  0.86805936347E+03  0.91251496323E+03  0.12500000000E+03 0.  0.
         25    1    1    2    0    0  0.19836730934E+03 -0.22214776815E+03  0.53631081686E+03  0.62606190795E+03  0.12500000000E+03 0.  0.
</event>
<event>
 5    0  0.5568866E-005  0.4561664E+03  0.7546771E-02  0.1025899E+00
         21   -1    0    0  502  501  0.00000000000E+00  0.00000000000E+00  0.36777124110E+03  0.36777124110E+03  0.00000000000E+00 0.  1.
         21   -1    0    0  501  502 -0.00000000000E+00 -0.00000000000E+00 -0.56580753845E+03  0.56580753845E+03  0.00000000000E+00 0.  1.
         25    1    1    2    0    0 -0.22786329216E+02 -0.19108934721E+03  0.15955275706E+03  0.27949318007E+03  0.12500000000E+03 0.  0.
         25    1    1    2    0    0 -0.22008822911E+02 -0.88264077462E+02  0.30746303311E+02  0.15762382695E+03  0.12500000000E+03 0.  0.
         25    1    1    2    0    0  0.44795152127E+02  0.27935342468E+03 -0.38833535772E+03  0.49646177253E+03  0.12500000000E+03 0.  0.
</event>
<event>
 5    0  0.5568866E-005  0.3041344E+03  0.7546771E-02  0.1083192E+00
         21   -1    0    0  502  501  0.00000000000E+00  0.00000000000E+00  0.40415801594E+03  0.40415801594E+03  0.00000000000E+00 0. -1.
         21   -1    0    0  501  502 -0.00000000000E+00 -0.00000000000E+00 -0.22886526617E+03  0.22886526617E+03  0.00000000000E+00 0. -1.
         25    1    1    2    0    0  0.12404792546E+03 -0.11177758602E+03  0.97114647242E+01  0.20880955221E+03  0.12500000000E+03 0.  0.
         25    1    1    2    0    0  0.66506805691E+00  0.13607437560E+03  0.16232028118E+03  0.24594623740E+03  0.12500000000E+03 0.  0.
         25    1    1    2    0    0 -0.12471299352E+03 -0.24296789578E+02  0.32610038671E+01  0.17826749250E+03  0.12500000000E+03 0.  0.
</event>
<event>
 5    0  0.5568866E-005  0.3083122E+03  0.7546771E-02  0.1081158E+00
         21   -1    0    0  502  501  0.00000000000E+00  0.00000000000E+00  0.26048633415E+03  0.26048633415E+03  0.00000000000E+00 0. -1.
         21   -1    0    0  501  502 -0.00000000000E+00 -0.00000000000E+00 -0.36491891825E+03  0.36491891825E+03  0.00000000000E+00 0. -1.
         25    1    1    2    0    0 -0.24121063599E+02  0.35610321627E+02  0.57421286009E+02  0.14412537876E+03  0.12500000000E+03 0.  0.
         25    1    1    2    0    0  0.42455431546E+01 -0.17463000230E+03  0.24955040504E+02  0.21624388173E+03  0.12500000000E+03 0.  0.
         25    1    1    2    0    0  0.19875520445E+02  0.13901968067E+03 -0.18680891061E+03  0.26503599191E+03  0.12500000000E+03 0.  0.
</event>
<event>
 5    0  0.5568866E-005  0.2753149E+03  0.7546771E-02  0.1098276E+00
         21   -1    0    0  502  501  0.00000000000E+00  0.00000000000E+00  0.12068152275E+03  0.12068152275E+03  0.00000000000E+00 0.  1.
         21   -1    0    0  501  502 -0.00000000000E+00 -0.00000000000E+00 -0.62808528564E+03  0.62808528564E+03  0.00000000000E+00 0.  1.
         25    1    1    2    0    0  0.30030458081E+02  0.69715052427E+01  0.47785236754E+02  0.13732756151E+03  0.12500000000E+03 0.  0.
         25    1    1    2    0    0 -0.13847761778E+02  0.15591491058E+02 -0.30804408847E+03  0.33309310341E+03  0.12500000000E+03 0.  0.
         25    1    1    2    0    0 -0.16182696303E+02 -0.22562996301E+02 -0.24714491118E+03  0.27834614347E+03  0.12500000000E+03 0.  0.
</event>
<event>
 5    0  0.5568866E-005  0.2496580E+03  0.7546771E-02  0.1113521E+00
         21   -1    0    0  502  501  0.00000000000E+00  0.00000000000E+00  0.29464970228E+02  0.29464970228E+02  0.00000000000E+00 0. -1.
         21   -1    0    0  501  502 -0.00000000000E+00 -0.00000000000E+00 -0.21153631943E+04  0.21153631943E+04  0.00000000000E+00 0. -1.
         25    1    1    2    0    0 -0.14886871876E+03  0.10634587348E+02 -0.10407234918E+04  0.10587754136E+04  0.12500000000E+03 0.  0.
         25    1    1    2    0    0  0.85816100723E+02 -0.73141782300E+01 -0.46200335675E+03  0.48630237712E+03  0.12500000000E+03 0.  0.
         25    1    1    2    0    0  0.63052618035E+02 -0.33204091179E+01 -0.58317137549E+03  0.59975037386E+03  0.12500000000E+03 0.  0.
</event>
<event>
 5    0  0.5568866E-005  0.2109400E+03  0.7546771E-02  0.1140824E+00
         21   -1    0    0  502  501  0.00000000000E+00  0.00000000000E+00  0.90427282674E+02  0.90427282674E+02  0.00000000000E+00 0.  1.
         21   -1    0    0  501  502 -0.00000000000E+00 -0.00000000000E+00 -0.49206027283E+03  0.49206027283E+03  0.00000000000E+00 0.  1.
         25    1    1    2    0    0  0.16337611698E+02 -0.47238684454E+02 -0.15667030598E+03  0.20656474927E+03  0.12500000000E+03 0.  0.
         25    1    1    2    0    0  0.44245662130E+02  0.32483219460E+02 -0.16786077142E+03  0.21636791986E+03  0.12500000000E+03 0.  0.
         25    1    1    2    0    0 -0.60583273827E+02  0.14755464994E+02 -0.77101912757E+02  0.15955488637E+03  0.12500000000E+03 0.  0.
</event>
<event>
 5    0  0.5568866E-005  0.3656544E+03  0.7546771E-02  0.1056367E+00
         21   -1    0    0  502  501  0.00000000000E+00  0.00000000000E+00  0.28539889504E+03  0.28539889504E+03  0.00000000000E+00 0. -1.
         21   -1    0    0  501  502 -0.00000000000E+00 -0.00000000000E+00 -0.46847811693E+03  0.46847811693E+03  0.00000000000E+00 0. -1.
         25    1    1    2    0    0  0.18769758878E+03 -0.16005394934E+03  0.95699930989E+02  0.29262796914E+03  0.12500000000E+03 0.  0.
         25    1    1    2    0    0 -0.14684609076E+03  0.59372453575E+02 -0.15756586794E+03  0.25600950247E+03  0.12500000000E+03 0.  0.
         25    1    1    2    0    0 -0.40851498021E+02  0.10068149577E+03 -0.12121328495E+03  0.20523954036E+03  0.12500000000E+03 0.  0.
</event>
<event>
 5    0  0.5879236E-005  0.7106374E+03  0.7546771E-02  0.9699212E-01
         21   -1    0    0  502  501  0.00000000000E+00  0.00000000000E+00  0.10484057058E+04  0.10484057058E+04  0.00000000000E+00 0.  1.
         21   -1    0    0  501  502 -0.00000000000E+00 -0.00000000000E+00 -0.48168896596E+03  0.48168896596E+03  0.00000000000E+00 0.  1.
         25    1    1    2    0    0 -0.10154459993E+02  0.52404305182E+03  0.26935908057E+03  0.60241476369E+03  0.12500000000E+03 0.  0.
         25    1    1    2    0    0 -0.67339528341E+02 -0.54195917089E+03  0.44728385846E+03  0.71689762521E+03  0.12500000000E+03 0.  0.
         25    1    1    2    0    0  0.77493988334E+02  0.17916119067E+02 -0.14992619921E+03  0.21078228284E+03  0.12500000000E+03 0.  0.
</event>
<event>
 5    0  0.5568866E-005  0.3175568E+03  0.7546771E-02  0.1076779E+00
         21   -1    0    0  502  501  0.00000000000E+00  0.00000000000E+00  0.23988865322E+03  0.23988865322E+03  0.00000000000E+00 0. -1.
         21   -1    0    0  501  502 -0.00000000000E+00 -0.00000000000E+00 -0.42037136532E+03  0.42037136532E+03  0.00000000000E+00 0. -1.
         25    1    1    2    0    0  0.43800621341E+02 -0.25261383973E+02 -0.17616890572E+03  0.22184930762E+03  0.12500000000E+03 0.  0.
         25    1    1    2    0    0 -0.50326260880E+02  0.18884271160E+03 -0.11893103913E+02  0.23229452895E+03  0.12500000000E+03 0.  0.
         25    1    1    2    0    0  0.65256395391E+01 -0.16358132763E+03  0.75792975315E+01  0.20611618197E+03  0.12500000000E+03 0.  0.
</event>
<event>
 5    0  0.5568866E-005  0.2488492E+03  0.7546771E-02  0.1114034E+00
         21   -1    0    0  502  501  0.00000000000E+00  0.00000000000E+00  0.63689689748E+03  0.63689689748E+03  0.00000000000E+00 0. -1.
         21   -1    0    0  501  502 -0.00000000000E+00 -0.00000000000E+00 -0.97230699222E+02  0.97230699222E+02  0.00000000000E+00 0. -1.
         25    1    1    2    0    0 -0.80151803109E+00  0.42742467206E+02  0.66852058448E+02  0.14805998329E+03  0.12500000000E+03 0.  0.
         25    1    1    2    0    0  0.10767750908E+03 -0.34605195740E+01  0.15666632067E+03  0.22754286891E+03  0.12500000000E+03 0.  0.
         25    1    1    2    0    0 -0.10687599105E+03 -0.39281947632E+02  0.31614781913E+03  0.35852474450E+03  0.12500000000E+03 0.  0.
</event>
<event>
 5    0  0.5568866E-005  0.3840071E+03  0.7546771E-02  0.1049463E+00
         21   -1    0    0  502  501  0.00000000000E+00  0.00000000000E+00  0.24912206909E+03  0.24912206909E+03  0.00000000000E+00 0.  1.
         21   -1    0    0  501  502 -0.00000000000E+00 -0.00000000000E+00 -0.59192455887E+03  0.59192455887E+03  0.00000000000E+00 0.  1.
         25    1    1    2    0    0  0.22427866577E+03  0.84712803613E+02 -0.13981501278E+03  0.30438530979E+03  0.12500000000E+03 0.  0.
         25    1    1    2    0    0 -0.42075095103E+02 -0.18206640784E+03 -0.19084779995E+03  0.29490061587E+03  0.12500000000E+03 0.  0.
         25    1    1    2    0    0 -0.18220357067E+03  0.97353604226E+02 -0.12139677049E+02  0.24176070230E+03  0.12500000000E+03 0.  0.
</event>
<event>
 5    0  0.5568866E-005  0.2298215E+03  0.7546771E-02  0.1126765E+00
         21   -1    0    0  502  501  0.00000000000E+00  0.00000000000E+00  0.17682764088E+03  0.17682764088E+03  0.00000000000E+00 0.  1.
         21   -1    0    0  501  502 -0.00000000000E+00 -0.00000000000E+00 -0.29869725072E+03  0.29869725072E+03  0.00000000000E+00 0.  1.
         25    1    1    2    0    0 -0.21680684523E+02  0.35292784018E+02 -0.11876992201E+03  0.17733281439E+03  0.12500000000E+03 0.  0.
         25    1    1    2    0    0  0.82015455931E+02  0.11541551847E+02  0.14509385091E+02  0.15064947622E+03  0.12500000000E+03 0.  0.
         25    1    1    2    0    0 -0.60334771408E+02 -0.46834335865E+02 -0.17609072927E+02  0.14754260099E+03  0.12500000000E+03 0.  0.
</event>
<event>
 5    0  0.5568866E-005  0.4503142E+03  0.7546771E-02  0.1027628E+00
         21   -1    0    0  502  501  0.00000000000E+00  0.00000000000E+00  0.84434918053E+03  0.84434918053E+03  0.00000000000E+00 0. -1.
         21   -1    0    0  501  502 -0.00000000000E+00 -0.00000000000E+00 -0.24016469035E+03  0.24016469035E+03  0.00000000000E+00 0. -1.
         25    1    1    2    0    0  0.10070999032E+03 -0.30521046004E+03  0.45999503634E+03  0.57490552313E+03  0.12500000000E+03 0.  0.
         25    1    1    2    0    0  0.66428522889E+01  0.28582692720E+03  0.14409712034E+03  0.34370065448E+03  0.12500000000E+03 0.  0.
         25    1    1    2    0    0 -0.10735284261E+03  0.19383532842E+02  0.92333499070E-01  0.16590769327E+03  0.12500000000E+03 0.  0.
</event>
<event>
 5    0  0.5568866E-005  0.4457213E+03  0.7546771E-02  0.1029006E+00
         21   -1    0    0  502  501  0.00000000000E+00  0.00000000000E+00  0.17329496655E+04  0.17329496655E+04  0.00000000000E+00 0.  1.
         21   -1    0    0  501  502 -0.00000000000E+00 -0.00000000000E+00 -0.11464121068E+03  0.11464121068E+03  0.00000000000E+00 0.  1.
         25    1    1    2    0    0  0.23416989298E+03 -0.76303297532E+02  0.12573409978E+04  0.12873185763E+04  0.12500000000E+03 0.  0.
         25    1    1    2    0    0 -0.14800369178E+03  0.12000829672E+02  0.38185527994E+02  0.19781872318E+03  0.12500000000E+03 0.  0.
         25    1    1    2    0    0 -0.86166201208E+02  0.64302467860E+02  0.32278192905E+03  0.36245357678E+03  0.12500000000E+03 0.  0.
</event>
<event>
 5    0  0.5568866E-005  0.2798778E+03  0.7546771E-02  0.1095756E+00
         21   -1    0    0  502  501  0.00000000000E+00  0.00000000000E+00  0.13624166853E+03  0.13624166853E+03  0.00000000000E+00 0.  1.
         21   -1    0    0  501  502 -0.00000000000E+00 -0.00000000000E+00 -0.57494575964E+03  0.57494575964E+03  0.00000000000E+00 0.  1.
         25    1    1    2    0    0  0.43183580542E+02  0.13079526337E+02 -0.73898622037E+01  0.13309960819E+03  0.12500000000E+03 0.  0.
         25    1    1    2    0    0 -0.11754946641E+03 -0.11562315524E+03 -0.22795598124E+03  0.30785633088E+03  0.12500000000E+03 0.  0.
         25    1    1    2    0    0  0.74365885867E+02  0.10254362890E+03 -0.20335824766E+03  0.27023148910E+03  0.12500000000E+03 0.  0.
</event>
<event>
 5    0  0.5568866E-005  0.3017531E+03  0.7546771E-02  0.1084368E+00
         21   -1    0    0  502  501  0.00000000000E+00  0.00000000000E+00  0.13907577744E+04  0.13907577744E+04  0.00000000000E+00 0. -1.
         21   -1    0    0  501  502 -0.00000000000E+00 -0.00000000000E+00 -0.65471451620E+02  0.65471451620E+02  0.00000000000E+00 0. -1.
         25    1    1    2    0    0  0.18794751139E+02  0.56331585668E+02  0.23304694121E+03  0.27103941969E+03  0.12500000000E+03 0.  0.
         25    1    1    2    0    0 -0.19188300516E+03 -0.69172040076E+02  0.47306745911E+03  0.53011477971E+03  0.12500000000E+03 0.  0.
         25    1    1    2    0    0  0.17308825402E+03  0.12840454407E+02  0.61917192243E+03  0.65507502660E+03  0.12500000000E+03 0.  0.
</event>
<event>
 5    0  0.5568866E-005  0.2385314E+03  0.7546771E-02  0.1120775E+00
         21   -1    0    0  502  501  0.00000000000E+00  0.00000000000E+00  0.90020477125E+03  0.90020477125E+03  0.00000000000E+00 0.  1.
         21   -1    0    0  501  502 -0.00000000000E+00 -0.00000000000E+00 -0.63204742458E+02  0.63204742458E+02  0.00000000000E+00 0.  1.
         25    1    1    2    0    0  0.64559251178E+02 -0.88573365736E+02  0.32035511810E+03  0.36092317704E+03  0.12500000000E+03 0.  0.
         25    1    1    2    0    0 -0.30915823504E+02  0.10990214557E+03  0.21579213482E+03  0.27427270224E+03  0.12500000000E+03 0.  0.
         25    1    1    2    0    0 -0.33643427674E+02 -0.21328779835E+02  0.30085277588E+03  0.32821363443E+03  0.12500000000E+03 0.  0.
</event>
<event>
 5    0  0.5568866E-005  0.2520226E+03  0.7546771E-02  0.1112033E+00
         21   -1    0    0  502  501  0.00000000000E+00  0.00000000000E+00  0.40857438637E+03  0.40857438637E+03  0.00000000000E+00 0.  1.
         21   -1    0    0  501  502 -0.00000000000E+00 -0.00000000000E+00 -0.15545608441E+03  0.15545608441E+03  0.00000000000E+00 0.  1.
         25    1    1    2    0    0  0.18501467086E+02 -0.12451466584E+02  0.11318148357E+02  0.12747722850E+03  0.12500000000E+03 0.  0.
         25    1    1    2    0    0 -0.77734521088E+02 -0.74053805709E+02  0.21553532545E+03  0.27130628158E+03  0.12500000000E+03 0.  0.
         25    1    1    2    0    0  0.59233054003E+02  0.86505272293E+02  0.26264828152E+02  0.16524696069E+03  0.12500000000E+03 0.  0.
</event>
<event>
 5    0  0.5568866E-005  0.2432240E+03  0.7546771E-02  0.1117664E+00
         21   -1    0    0  502  501  0.00000000000E+00  0.00000000000E+00  0.75117449167E+02  0.75117449167E+02  0.00000000000E+00 0.  1.
         21   -1    0    0  501  502 -0.00000000000E+00 -0.00000000000E+00 -0.78753914106E+03  0.78753914106E+03  0.00000000000E+00 0.  1.
         25    1    1    2    0    0 -0.91833493967E+02 -0.33283852396E+02 -0.20387781858E+03  0.25832609306E+03  0.12500000000E+03 0.  0.
         25    1    1    2    0    0  0.13141654586E+03  0.51623764572E+02 -0.35181587127E+03  0.39916754486E+03  0.12500000000E+03 0.  0.
         25    1    1    2    0    0 -0.39583051893E+02 -0.18339912176E+02 -0.15672800204E+03  0.20516295231E+03  0.12500000000E+03 0.  0.
</event>
<event>
 5    0  0.5568866E-005  0.2233928E+03  0.7546771E-02  0.1131379E+00
         21   -1    0    0  502  501  0.00000000000E+00  0.00000000000E+00  0.82293535803E+03  0.82293535803E+03  0.00000000000E+00 0.  1.
         21   -1    0    0  501  502 -0.00000000000E+00 -0.00000000000E+00 -0.60641855103E+02  0.60641855103E+02  0.00000000000E+00 0.  1.
         25    1    1    2    0    0  0.52022864896E+02  0.63737553612E+01  0.37869121885E+03  0.40221765559E+03  0.12500000000E+03 0.  0.
         25    1    1    2    0    0 -0.61693257756E+02  0.14974304317E+02  0.29421518711E+03  0.32591082241E+03  0.12500000000E+03 0.  0.
         25    1    1    2    0    0  0.96703928598E+01 -0.21348059679E+02  0.89387096968E+02  0.15544873513E+03  0.12500000000E+03 0.  0.
</event>
<event>
 5    0  0.5568866E-005  0.3825607E+03  0.7546771E-02  0.1049991E+00
         21   -1    0    0  502  501  0.00000000000E+00  0.00000000000E+00  0.19162414176E+03  0.19162414176E+03  0.00000000000E+00 0.  1.
         21   -1    0    0  501  502 -0.00000000000E+00 -0.00000000000E+00 -0.76374880585E+03  0.76374880585E+03  0.00000000000E+00 0.  1.
         25    1    1    2    0    0 -0.10323944559E+03 -0.87594168913E+01 -0.23851451670E+03  0.28852952221E+03  0.12500000000E+03 0.  0.
         25    1    1    2    0    0  0.25438587199E+03 -0.16649334919E+02 -0.36934382798E+03  0.46586396672E+03  0.12500000000E+03 0.  0.
         25    1    1    2    0    0 -0.15114642640E+03  0.25408751810E+02  0.35733680592E+02  0.20097945868E+03  0.12500000000E+03 0.  0.
</event>
<event>
 5    0  0.5568866E-005  0.2865981E+03  0.7546771E-02  0.1092139E+00
         21   -1    0    0  502  501  0.00000000000E+00  0.00000000000E+00  0.87233515883E+03  0.87233515883E+03  0.00000000000E+00 0. -1.
         21   -1    0    0  501  502 -0.00000000000E+00 -0.00000000000E+00 -0.94159315324E+02  0.94159315324E+02  0.00000000000E+00 0. -1.
         25    1    1    2    0    0 -0.92480235390E+01 -0.18432715609E+03  0.42641694537E+03  0.48116362883E+03  0.12500000000E+03 0.  0.
         25    1    1    2    0    0 -0.30402477877E+02  0.30449524367E+02  0.14061365601E+03  0.19299918251E+03  0.12500000000E+03 0.  0.
         25    1    1    2    0    0  0.39650501416E+02  0.15387763173E+03  0.21114524214E+03  0.29233166282E+03  0.12500000000E+03 0.  0.
</event>
<event>
 5    0  0.5568866E-005  0.2821553E+03  0.7546771E-02  0.1094518E+00
         21   -1    0    0  502  501  0.00000000000E+00  0.00000000000E+00  0.71753199451E+03  0.71753199451E+03  0.00000000000E+00 0. -1.
         21   -1    0    0  501  502 -0.00000000000E+00 -0.00000000000E+00 -0.11095200003E+03  0.11095200003E+03  0.00000000000E+00 0. -1.
         25    1    1    2    0    0 -0.44764936963E+02 -0.78381758558E+02  0.46461692866E+03  0.48953190913E+03  0.12500000000E+03 0.  0.
         25    1    1    2    0    0 -0.51143619874E+02  0.63744939835E+02  0.62647260589E+02  0.16195297610E+03  0.12500000000E+03 0.  0.
         25    1    1    2    0    0  0.95908556837E+02  0.14636818722E+02  0.79315805236E+02  0.17699910931E+03  0.12500000000E+03 0.  0.
</event>
<event>
 5    0  0.5568866E-005  0.2559654E+03  0.7546771E-02  0.1109592E+00
         21   -1    0    0  502  501  0.00000000000E+00  0.00000000000E+00  0.35031166166E+02  0.35031166166E+02  0.00000000000E+00 0.  1.
         21   -1    0    0  501  502 -0.00000000000E+00 -0.00000000000E+00 -0.18702862486E+04  0.18702862486E+04  0.00000000000E+00 0.  1.
         25    1    1    2    0    0  0.30398480586E+02  0.62795554849E+02 -0.10238522073E+04  0.10338112457E+04  0.12500000000E+03 0.  0.
         25    1    1    2    0    0 -0.43284936358E+02 -0.83646413590E+02 -0.24326199258E+03  0.28926061823E+03  0.12500000000E+03 0.  0.
         25    1    1    2    0    0  0.12886455772E+02  0.20850858741E+02 -0.56814088254E+03  0.58224555083E+03  0.12500000000E+03 0.  0.
</event>
<event>
 5    0  0.6661795E-005  0.2972186E+03  0.7546771E-02  0.1086639E+00
         21   -1    0    0  502  501  0.00000000000E+00  0.00000000000E+00  0.10439627561E+04  0.10439627561E+04  0.00000000000E+00 0. -1.
         21   -1    0    0  501  502 -0.00000000000E+00 -0.00000000000E+00 -0.84618797977E+02  0.84618797977E+02  0.00000000000E+00 0. -1.
         25    1    1    2    0    0 -0.68614479926E+02 -0.30057045374E+02  0.54291810379E+03  0.56213560664E+03  0.12500000000E+03 0.  0.
         25    1    1    2    0    0  0.13926769720E+03  0.93814611029E+02  0.31910239832E+03  0.38163858995E+03  0.12500000000E+03 0.  0.
         25    1    1    2    0    0 -0.70653217278E+02 -0.63757565655E+02  0.97323456018E+02  0.18480735749E+03  0.12500000000E+03 0.  0.
</event>
<event>
 5    0  0.5568866E-005  0.4758468E+03  0.7546771E-02  0.1020283E+00
         21   -1    0    0  502  501  0.00000000000E+00  0.00000000000E+00  0.18752458087E+03  0.18752458087E+03  0.00000000000E+00 0. -1.
         21   -1    0    0  501  502 -0.00000000000E+00 -0.00000000000E+00 -0.12074694009E+04  0.12074694009E+04  0.00000000000E+00 0. -1.
         25    1    1    2    0    0  0.22822384846E+03  0.95067580382E+02 -0.38613106114E+02  0.27971403578E+03  0.12500000000E+03 0.  0.
         25    1    1    2    0    0  0.10529663676E+03 -0.10374923420E+02 -0.29517892436E+03  0.33756572417E+03  0.12500000000E+03 0.  0.
         25    1    1    2    0    0 -0.33352048522E+03 -0.84692656962E+02 -0.68615278954E+03  0.77771422180E+03  0.12500000000E+03 0.  0.
</event>
<event>
 5    0  0.5568866E-005  0.2123798E+03  0.7546771E-02  0.1139695E+00
         21   -1    0    0  502  501  0.00000000000E+00  0.00000000000E+00  0.10958416159E+04  0.10958416159E+04  0.00000000000E+00 0.  1.
         21   -1    0    0  501  502 -0.00000000000E+00 -0.00000000000E+00 -0.41160294466E+02  0.41160294466E+02  0.00000000000E+00 0.  1.
         25    1    1    2    0    0 -0.76923167670E+01 -0.86510825581E+02  0.32089243648E+03  0.35516228751E+03  0.12500000000E+03 0.  0.
         25    1    1    2    0    0  0.40327091524E+01  0.40051957579E+02  0.28819735840E+03  0.31670670886E+03  0.12500000000E+03 0.  0.
         25    1    1    2    0    0  0.36596076146E+01  0.46458868002E+02  0.44559152655E+03  0.46513291399E+03  0.12500000000E+03 0.  0.
</event>
<event>
 5    0  0.5568866E-005  0.3411461E+03  0.7546771E-02  0.1066309E+00
         21   -1    0    0  502  501  0.00000000000E+00  0.00000000000E+00  0.18071153612E+04  0.18071153612E+04  0.00000000000E+00 0. -1.
         21   -1    0    0  501  502 -0.00000000000E+00 -0.00000000000E+00 -0.64401350766E+02  0.64401350766E+02  0.00000000000E+00 0. -1.
         25    1    1    2    0    0  0.98004318069E+02  0.58476631647E+02  0.25114914483E+03  0.30286177665E+03  0.12500000000E+03 0.  0.
         25    1    1    2    0    0  0.91677709915E+02 -0.47781996464E+02  0.20140882435E+03  0.25860865455E+03  0.12500000000E+03 0.  0.
         25    1    1    2    0    0 -0.18968202798E+03 -0.10694635183E+02  0.12901560413E+04  0.13100462808E+04  0.12500000000E+03 0.  0.
</event>
<event>
 5    0  0.5568866E-005  0.2088041E+03  0.7546771E-02  0.1142517E+00
         21   -1    0    0  502  501  0.00000000000E+00  0.00000000000E+00  0.23058035046E+03  0.23058035046E+03  0.00000000000E+00 0. -1.
         21   -1    0    0  501  502 -0.00000000000E+00 -0.00000000000E+00 -0.18908442385E+03  0.18908442385E+03  0.00000000000E+00 0. -1.
         25    1    1    2    0    0  0.54129545207E+02  0.43858266038E+02  0.51755812197E+02  0.15217496266E+03  0.12500000000E+03 0.  0.
         25    1    1    2    0    0 -0.26210357836E+01 -0.14228529891E+02 -0.25026106685E+02  0.12829897469E+03  0.12500000000E+03 0.  0.
         25    1    1    2    0    0 -0.51508509424E+02 -0.29629736147E+02  0.14766221106E+02  0.13919083696E+03  0.12500000000E+03 0.  0.
</event>
<event>
 5    0  0.5568866E-005  0.2064192E+03  0.7546771E-02  0.1144433E+00
         21   -1    0    0  502  501  0.00000000000E+00  0.00000000000E+00  0.43140523719E+03  0.43140523719E+03  0.00000000000E+00 0. -1.
         21   -1    0    0  501  502 -0.00000000000E+00 -0.00000000000E+00 -0.98767685519E+02  0.98767685519E+02  0.00000000000E+00 0. -1.
         25    1    1    2    0    0 -0.31439466571E+02  0.38614017854E+02  0.15121853962E+03  0.20241425137E+03  0.12500000000E+03 0.  0.
         25    1    1    2    0    0  0.40278496910E+02 -0.36219053686E+02  0.47344581108E+02  0.14422443109E+03  0.12500000000E+03 0.  0.
         25    1    1    2    0    0 -0.88390303388E+01 -0.23949641685E+01  0.13407443095E+03  0.18353424025E+03  0.12500000000E+03 0.  0.
</event>
<event>
 5    0  0.5568866E-005  0.4389792E+03  0.7546771E-02  0.1031060E+00
         21   -1    0    0  502  501  0.00000000000E+00  0.00000000000E+00  0.32912760304E+03  0.32912760304E+03  0.00000000000E+00 0.  1.
         21   -1    0    0  501  502 -0.00000000000E+00 -0.00000000000E+00 -0.58549556571E+03  0.58549556571E+03  0.00000000000E+00 0.  1.
         25    1    1    2    0    0  0.18413025371E+03 -0.13934084927E+03 -0.43464042672E+02  0.26614647398E+03  0.12500000000E+03 0.  0.
         25    1    1    2    0    0 -0.17971361013E+03  0.28091637012E+03 -0.27463480805E+03  0.44973355052E+03  0.12500000000E+03 0.  0.
         25    1    1    2    0    0 -0.44166435744E+01 -0.14157552085E+03  0.61730888057E+02  0.19874314425E+03  0.12500000000E+03 0.  0.
</event>
<event>
 5    0  0.5568866E-005  0.3180152E+03  0.7546771E-02  0.1076566E+00
         21   -1    0    0  502  501  0.00000000000E+00  0.00000000000E+00  0.47509748131E+02  0.47509748131E+02  0.00000000000E+00 0. -1.
         21   -1    0    0  501  502 -0.00000000000E+00 -0.00000000000E+00 -0.21286932728E+04  0.21286932728E+04  0.00000000000E+00 0. -1.
         25    1    1    2    0    0  0.83021641987E+02 -0.16313306800E+03 -0.94512872302E+03  0.97077200928E+03  0.12500000000E+03 0.  0.
         25    1    1    2    0    0  0.38381952101E+02 -0.15254796550E+02 -0.59912167505E+03  0.61341475739E+03  0.12500000000E+03 0.  0.
         25    1    1    2    0    0 -0.12140359409E+03  0.17838786455E+03 -0.53693312656E+03  0.59201625424E+03  0.12500000000E+03 0.  0.
</event>
<event>
 5    0  0.5585935E-005  0.3528771E+03  0.7546771E-02  0.1061440E+00
         21   -1    0    0  502  501  0.00000000000E+00  0.00000000000E+00  0.11446505583E+03  0.11446505583E+03  0.00000000000E+00 0.  1.
         21   -1    0    0  501  502 -0.00000000000E+00 -0.00000000000E+00 -0.10878624038E+04  0.10878624038E+04  0.00000000000E+00 0.  1.
         25    1    1    2    0    0  0.14505007738E+03 -0.57642608879E+02 -0.54080219336E+03  0.57658842137E+03  0.12500000000E+03 0.  0.
         25    1    1    2    0    0 -0.75783123270E+02  0.89989329206E+00 -0.44796336584E+03  0.47121127821E+03  0.12500000000E+03 0.  0.
         25    1    1    2    0    0 -0.69266954105E+02  0.56742715587E+02  0.15368211251E+02  0.15452776003E+03  0.12500000000E+03 0.  0.
</event>
<event>
 5    0  0.5568866E-005  0.3445919E+03  0.7546771E-02  0.1064857E+00
         21   -1    0    0  502  501  0.00000000000E+00  0.00000000000E+00  0.45518153952E+03  0.45518153952E+03  0.00000000000E+00 0. -1.
         21   -1    0    0  501  502 -0.00000000000E+00 -0.00000000000E+00 -0.26087081775E+03  0.26087081775E+03  0.00000000000E+00 0.  1.
         25    1    1    2    0    0 -0.12143104078E+03 -0.76891077012E+02 -0.67089574595E+02  0.20194986112E+03  0.12500000000E+03 0.  0.
         25    1    1    2    0    0  0.20513543243E+03  0.13536312945E+03  0.20323860596E+03  0.34254146232E+03  0.12500000000E+03 0.  0.
         25    1    1    2    0    0 -0.83704391649E+02 -0.58472052439E+02  0.58161690406E+02  0.17156103383E+03  0.12500000000E+03 0.  0.
</event>
<event>
 5    0  0.5905293E-005  0.3129827E+03  0.7546771E-02  0.1078925E+00
         21   -1    0    0  502  501  0.00000000000E+00  0.00000000000E+00  0.73334327750E+03  0.73334327750E+03  0.00000000000E+00 0.  1.
         21   -1    0    0  501  502 -0.00000000000E+00 -0.00000000000E+00 -0.13357750902E+03  0.13357750902E+03  0.00000000000E+00 0.  1.
         25    1    1    2    0    0 -0.17776110282E+03  0.12240734257E+03  0.30672279272E+03  0.39533079663E+03  0.12500000000E+03 0.  0.
         25    1    1    2    0    0  0.39580189082E+02 -0.82915737255E+02  0.50392711491E+02  0.16311356848E+03  0.12500000000E+03 0.  0.
         25    1    1    2    0    0  0.13818091374E+03 -0.39491605311E+02  0.24265026426E+03  0.30847642140E+03  0.12500000000E+03 0.  0.
</event>
<event>
 5    0  0.6409019E-005  0.4041540E+03  0.7546771E-02  0.1042351E+00
         21   -1    0    0  502  501  0.00000000000E+00  0.00000000000E+00  0.62091437842E+03  0.62091437842E+03  0.00000000000E+00 0.  1.
         21   -1    0    0  501  502 -0.00000000000E+00 -0.00000000000E+00 -0.26306441161E+03  0.26306441161E+03  0.00000000000E+00 0. -1.
         25    1    1    2    0    0  0.37309637973E+02 -0.13364739294E+03 -0.14004603806E+03  0.23343420380E+03  0.12500000000E+03 0.  0.
         25    1    1    2    0    0  0.67529488416E+02 -0.30757683502E+02  0.34127869908E+03  0.37094799817E+03  0.12500000000E+03 0.  0.
         25    1    1    2    0    0 -0.10483912639E+03  0.16440507645E+03  0.15661730579E+03  0.27959658806E+03  0.12500000000E+03 0.  0.
</event>
<event>
 5    0  0.5568866E-005  0.3207000E+03  0.7546771E-02  0.1075328E+00
         21   -1    0    0  502  501  0.00000000000E+00  0.00000000000E+00  0.91492343365E+03  0.91492343365E+03  0.00000000000E+00 0. -1.
         21   -1    0    0  501  502 -0.00000000000E+00 -0.00000000000E+00 -0.11241211968E+03  0.11241211968E+03  0.00000000000E+00 0. -1.
         25    1    1    2    0    0 -0.64537128574E+02  0.31531065501E+02  0.29253477961E+02  0.14710545547E+03  0.12500000000E+03 0.  0.
         25    1    1    2    0    0  0.15246126434E+03 -0.54148688041E+02  0.65356498369E+03  0.68479829545E+03  0.12500000000E+03 0.  0.
         25    1    1    2    0    0 -0.87924135768E+02  0.22617622540E+02  0.11969285231E+03  0.19543180241E+03  0.12500000000E+03 0.  0.
</event>
<event>
 5    0  0.5568866E-005  0.3385056E+03  0.7546771E-02  0.1067434E+00
         21   -1    0    0  502  501  0.00000000000E+00  0.00000000000E+00  0.29516934593E+03  0.29516934593E+03  0.00000000000E+00 0.  1.
         21   -1    0    0  501  502 -0.00000000000E+00 -0.00000000000E+00 -0.38820446845E+03  0.38820446845E+03  0.00000000000E+00 0.  1.
         25    1    1    2    0    0 -0.15373142207E+03 -0.26084600268E+02 -0.19785696987E+03  0.28122257560E+03  0.12500000000E+03 0.  0.
         25    1    1    2    0    0  0.17096310905E+03  0.10785289681E+03  0.57545437796E+02  0.24453447490E+03  0.12500000000E+03 0.  0.
         25    1    1    2    0    0 -0.17231686980E+02 -0.81768296540E+02  0.47276409547E+02  0.15761676388E+03  0.12500000000E+03 0.  0.
</event>
<event>
 5    0  0.5568866E-005  0.3528425E+03  0.7546771E-02  0.1061454E+00
         21   -1    0    0  502  501  0.00000000000E+00  0.00000000000E+00  0.14746511693E+03  0.14746511693E+03  0.00000000000E+00 0.  1.
         21   -1    0    0  501  502 -0.00000000000E+00 -0.00000000000E+00 -0.84425273568E+03  0.84425273568E+03  0.00000000000E+00 0.  1.
         25    1    1    2    0    0 -0.64891764809E+01  0.18066875080E+01 -0.66606521021E+02  0.14179845618E+03  0.12500000000E+03 0.  0.
         25    1    1    2    0    0 -0.11192924477E+03  0.21402562944E+03 -0.19538292703E+03  0.33486506845E+03  0.12500000000E+03 0.  0.
         25    1    1    2    0    0  0.11841842125E+03 -0.21583231695E+03 -0.43479817070E+03  0.51505432798E+03  0.12500000000E+03 0.  0.
</event>
<event>
 5    0  0.5568866E-005  0.4021990E+03  0.7546771E-02  0.1043021E+00
         21   -1    0    0  502  501  0.00000000000E+00  0.00000000000E+00  0.12424048932E+03  0.12424048932E+03  0.00000000000E+00 0.  1.
         21   -1    0    0  501  502 -0.00000000000E+00 -0.00000000000E+00 -0.13020238002E+04  0.13020238002E+04  0.00000000000E+00 0.  1.
         25    1    1    2    0    0 -0.31221392737E+02  0.14061479956E+03 -0.61543410396E+02  0.20039932281E+03  0.12500000000E+03 0.  0.
         25    1    1    2    0    0 -0.12355740064E+03 -0.12238627466E+03 -0.92440567945E+03  0.94889182295E+03  0.12500000000E+03 0.  0.
         25    1    1    2    0    0  0.15477879337E+03 -0.18228524893E+02 -0.19183422101E+03  0.27697314373E+03  0.12500000000E+03 0.  0.
</event>
<event>
 5    0  0.6022718E-005  0.2964142E+03  0.7546771E-02  0.1087047E+00
         21   -1    0    0  502  501  0.00000000000E+00  0.00000000000E+00  0.23342337155E+03  0.23342337155E+03  0.00000000000E+00 0. -1.
         21   -1    0    0  501  502 -0.00000000000E+00 -0.00000000000E+00 -0.37640349895E+03  0.37640349895E+03  0.00000000000E+00 0. -1.
         25    1    1    2    0    0  0.15843863141E+02 -0.16613178891E+03 -0.20656088153E+03  0.29350161339E+03  0.12500000000E+03 0.  0.
         25    1    1    2    0    0 -0.41871531024E+02  0.66076677457E+02  0.24664317697E+02  0.14950813015E+03  0.12500000000E+03 0.  0.
         25    1    1    2    0    0  0.26027667884E+02  0.10005511145E+03  0.38916436424E+02  0.16681712696E+03  0.12500000000E+03 0.  0.
</event>
<event>
 5    0  0.5568866E-005  0.3112748E+03  0.7546771E-02  0.1079736E+00
         21   -1    0    0  502  501  0.00000000000E+00  0.00000000000E+00  0.34745304467E+03  0.34745304467E+03  0.00000000000E+00 0. -1.
         21   -1    0    0  501  502 -0.00000000000E+00 -0.00000000000E+00 -0.27886356024E+03  0.27886356024E+03  0.00000000000E+00 0. -1.
         25    1    1    2    0    0  0.10988315463E+02  0.13583879558E+03  0.14051219050E+02  0.18545985608E+03  0.12500000000E+03 0.  0.
         25    1    1    2    0    0 -0.73061887738E+02 -0.13415210687E+03  0.16939120282E+03  0.26010230066E+03  0.12500000000E+03 0.  0.
         25    1    1    2    0    0  0.62073572274E+02 -0.16866887101E+01 -0.11485293745E+03  0.18075444817E+03  0.12500000000E+03 0.  0.
</event>
<event>
 5    0  0.5929567E-005  0.2972826E+03  0.7546771E-02  0.1086607E+00
         21   -1    0    0  502  501  0.00000000000E+00  0.00000000000E+00  0.12862283199E+03  0.12862283199E+03  0.00000000000E+00 0.  1.
         21   -1    0    0  501  502 -0.00000000000E+00 -0.00000000000E+00 -0.68710175523E+03  0.68710175523E+03  0.00000000000E+00 0.  1.
         25    1    1    2    0    0 -0.90296072279E+02 -0.13125827418E+03 -0.22115740470E+03  0.29986282341E+03  0.12500000000E+03 0.  0.
         25    1    1    2    0    0  0.52934199101E+02 -0.16171201268E+02 -0.14133152022E+02  0.13743465055E+03  0.12500000000E+03 0.  0.
         25    1    1    2    0    0  0.37361873179E+02  0.14742947544E+03 -0.32318836652E+03  0.37842711326E+03  0.12500000000E+03 0.  0.
</event>
<event>
 5    0  0.5568866E-005  0.3704494E+03  0.7546771E-02  0.1054521E+00
         21   -1    0    0  502  501  0.00000000000E+00  0.00000000000E+00  0.31122746479E+04  0.31122746479E+04  0.00000000000E+00 0.  1.
         21   -1    0    0  501  502 -0.00000000000E+00 -0.00000000000E+00 -0.44094027470E+02  0.44094027470E+02  0.00000000000E+00 0.  1.
         25    1    1    2    0    0 -0.12741957040E+03 -0.83060421740E+02  0.61680429562E+03  0.64746221486E+03  0.12500000000E+03 0.  0.
         25    1    1    2    0    0  0.17419581895E+03  0.77322897444E+02  0.22812089475E+04  0.22925667440E+04  0.12500000000E+03 0.  0.
         25    1    1    2    0    0 -0.46776248551E+02  0.57375242956E+01  0.17016737733E+03  0.21633971646E+03  0.12500000000E+03 0.  0.
</event>
<event>
 5    0  0.5568866E-005  0.5252562E+03  0.7546771E-02  0.1007389E+00
         21   -1    0    0  502  501  0.00000000000E+00  0.00000000000E+00  0.15114673281E+04  0.15114673281E+04  0.00000000000E+00 0.  1.
         21   -1    0    0  501  502 -0.00000000000E+00 -0.00000000000E+00 -0.18253391254E+03  0.18253391254E+03  0.00000000000E+00 0.  1.
         25    1    1    2    0    0  0.12111223026E+02 -0.28882918609E+02  0.51309126383E+03  0.52902603880E+03  0.12500000000E+03 0.  0.
         25    1    1    2    0    0  0.30356760848E+03 -0.21590343813E+03  0.52291371463E+03  0.65408817484E+03  0.12500000000E+03 0.  0.
         25    1    1    2    0    0 -0.31567883150E+03  0.24478635674E+03  0.29292843710E+03  0.51088702701E+03  0.12500000000E+03 0.  0.
</event>
<event>
 5    0  0.5568866E-005  0.2923221E+03  0.7546771E-02  0.1089143E+00
         21   -1    0    0  502  501  0.00000000000E+00  0.00000000000E+00  0.13911277590E+03  0.13911277590E+03  0.00000000000E+00 0.  1.
         21   -1    0    0  501  502 -0.00000000000E+00 -0.00000000000E+00 -0.61426584238E+03  0.61426584238E+03  0.00000000000E+00 0.  1.
         25    1    1    2    0    0 -0.22838918212E+02  0.15014787766E+03 -0.75493362009E+02  0.21068993582E+03  0.12500000000E+03 0.  0.
         25    1    1    2    0    0 -0.57483846488E+02  0.22119409199E+02 -0.16226862840E+03  0.21389195552E+03  0.12500000000E+03 0.  0.
         25    1    1    2    0    0  0.80322764700E+02 -0.17226728686E+03 -0.23739107607E+03  0.32879672694E+03  0.12500000000E+03 0.  0.
</event>
<event>
 5    0  0.5921865E-005  0.3036307E+03  0.7546771E-02  0.1083440E+00
         21   -1    0    0  502  501  0.00000000000E+00  0.00000000000E+00  0.43127970473E+03  0.43127970473E+03  0.00000000000E+00 0. -1.
         21   -1    0    0  501  502 -0.00000000000E+00 -0.00000000000E+00 -0.21376286022E+03  0.21376286022E+03  0.00000000000E+00 0. -1.
         25    1    1    2    0    0  0.13404648577E+02  0.11590393266E+03 -0.10736993560E+03  0.20190767514E+03  0.12500000000E+03 0.  0.
         25    1    1    2    0    0  0.41947793565E+02 -0.53252265583E+02  0.21123647376E+03  0.25463948834E+03  0.12500000000E+03 0.  0.
         25    1    1    2    0    0 -0.55352442142E+02 -0.62651667079E+02  0.11365030636E+03  0.18849540147E+03  0.12500000000E+03 0.  0.
</event>
<event>
 5    0  0.5568866E-005  0.3478526E+03  0.7546771E-02  0.1063500E+00
         21   -1    0    0  502  501  0.00000000000E+00  0.00000000000E+00  0.46065490830E+03  0.46065490830E+03  0.00000000000E+00 0. -1.
         21   -1    0    0  501  502 -0.00000000000E+00 -0.00000000000E+00 -0.26267259204E+03  0.26267259204E+03  0.00000000000E+00 0. -1.
         25    1    1    2    0    0  0.18676748158E+03  0.17846641902E+02  0.70354373360E+02  0.23616801785E+03  0.12500000000E+03 0.  0.
         25    1    1    2    0    0  0.80227980114E+02  0.64990878456E+02  0.24106944753E+02  0.16390999927E+03  0.12500000000E+03 0.  0.
         25    1    1    2    0    0 -0.26699546170E+03 -0.82837520358E+02  0.10352099814E+03  0.32324948322E+03  0.12500000000E+03 0.  0.
</event>
<event>
 5    0  0.5755947E-005  0.3023576E+03  0.7546771E-02  0.1084068E+00
         21   -1    0    0  502  501  0.00000000000E+00  0.00000000000E+00  0.10686063957E+03  0.10686063957E+03  0.00000000000E+00 0.  1.
         21   -1    0    0  501  502 -0.00000000000E+00 -0.00000000000E+00 -0.85550785346E+03  0.85550785346E+03  0.00000000000E+00 0.  1.
         25    1    1    2    0    0  0.12506235928E+03  0.80111332160E+00 -0.31380046316E+03  0.36019018056E+03  0.12500000000E+03 0.  0.
         25    1    1    2    0    0 -0.17187738628E+03 -0.69253010383E+02 -0.12064398005E+03  0.25400351431E+03  0.12500000000E+03 0.  0.
         25    1    1    2    0    0  0.46815026998E+02  0.68451897061E+02 -0.31420277068E+03  0.34817479815E+03  0.12500000000E+03 0.  0.
</event>
<event>
 5    0  0.5568866E-005  0.2244427E+03  0.7546771E-02  0.1130614E+00
         21   -1    0    0  502  501  0.00000000000E+00  0.00000000000E+00  0.42485261208E+02  0.42485261208E+02  0.00000000000E+00 0.  1.
         21   -1    0    0  501  502 -0.00000000000E+00 -0.00000000000E+00 -0.11856944958E+04  0.11856944958E+04  0.00000000000E+00 0.  1.
         25    1    1    2    0    0 -0.87402511558E+02  0.43428365146E+02 -0.41468498882E+03  0.44397506898E+03  0.12500000000E+03 0.  0.
         25    1    1    2    0    0  0.27990773133E+02  0.30064088839E+02 -0.28780493178E+03  0.31645538639E+03  0.12500000000E+03 0.  0.
         25    1    1    2    0    0  0.59411738425E+02 -0.73492453985E+02 -0.44071931402E+03  0.46774930167E+03  0.12500000000E+03 0.  0.
</event>
<event>
 5    0  0.5568866E-005  0.3440898E+03  0.7546771E-02  0.1065067E+00
         21   -1    0    0  502  501  0.00000000000E+00  0.00000000000E+00  0.93848688570E+02  0.93848688570E+02  0.00000000000E+00 0.  1.
         21   -1    0    0  501  502 -0.00000000000E+00 -0.00000000000E+00 -0.12615819425E+04  0.12615819425E+04  0.00000000000E+00 0.  1.
         25    1    1    2    0    0  0.60212948139E+02  0.30997305859E+02 -0.13055345817E+03  0.19301719492E+03  0.12500000000E+03 0.  0.
         25    1    1    2    0    0  0.17521553173E+03  0.88515132299E+02 -0.46082156092E+03  0.51625276969E+03  0.12500000000E+03 0.  0.
         25    1    1    2    0    0 -0.23542847987E+03 -0.11951243816E+03 -0.57635823480E+03  0.64616066642E+03  0.12500000000E+03 0.  0.
</event>
<event>
 5    0  0.5568866E-005  0.3599289E+03  0.7546771E-02  0.1058612E+00
         21   -1    0    0  502  501  0.00000000000E+00  0.00000000000E+00  0.62965704991E+03  0.62965704991E+03  0.00000000000E+00 0. -1.
         21   -1    0    0  501  502 -0.00000000000E+00 -0.00000000000E+00 -0.20574504988E+03  0.20574504988E+03  0.00000000000E+00 0. -1.
         25    1    1    2    0    0  0.94977669266E+02 -0.17837980089E+03  0.38295996591E+02  0.24069003797E+03  0.12500000000E+03 0.  0.
         25    1    1    2    0    0 -0.85808471427E+02 -0.25843027596E+02  0.30554247670E+03  0.34207040344E+03  0.12500000000E+03 0.  0.
         25    1    1    2    0    0 -0.91691978396E+01  0.20422282848E+03  0.80073526752E+02  0.25264165838E+03  0.12500000000E+03 0.  0.
</event>
<event>
 5    0  0.5568866E-005  0.2702123E+03  0.7546771E-02  0.1101158E+00
         21   -1    0    0  502  501  0.00000000000E+00  0.00000000000E+00  0.42450415468E+03  0.42450415468E+03  0.00000000000E+00 0. -1.
         21   -1    0    0  501  502 -0.00000000000E+00 -0.00000000000E+00 -0.17199988405E+03  0.17199988405E+03  0.00000000000E+00 0. -1.
         25    1    1    2    0    0 -0.15483643087E+02  0.20746690837E+02 -0.13477528246E+01  0.12765964445E+03  0.12500000000E+03 0.  0.
         25    1    1    2    0    0 -0.79057390061E+01 -0.14518997060E+02  0.30622804197E+03  0.33117052356E+03  0.12500000000E+03 0.  0.
         25    1    1    2    0    0  0.23389382093E+02 -0.62276937772E+01 -0.52376018519E+02  0.13767387072E+03  0.12500000000E+03 0.  0.
</event>
<event>
 5    0  0.5568866E-005  0.2744935E+03  0.7546771E-02  0.1098735E+00
         21   -1    0    0  502  501  0.00000000000E+00  0.00000000000E+00  0.27870221329E+03  0.27870221329E+03  0.00000000000E+00 0.  1.
         21   -1    0    0  501  502 -0.00000000000E+00 -0.00000000000E+00 -0.27034829112E+03  0.27034829112E+03  0.00000000000E+00 0.  1.
         25    1    1    2    0    0  0.11830062036E+03 -0.11446381747E+03 -0.58837386740E+01  0.20677674112E+03  0.12500000000E+03 0.  0.
         25    1    1    2    0    0  0.22419263238E+02  0.49584848220E+02  0.38623377408E+02  0.14169702121E+03  0.12500000000E+03 0.  0.
         25    1    1    2    0    0 -0.14071988360E+03  0.64878969253E+02 -0.24385716563E+02  0.20057674208E+03  0.12500000000E+03 0.  0.
</event>
<event>
 5    0  0.5787104E-005  0.3682396E+03  0.7546771E-02  0.1055368E+00
         21   -1    0    0  502  501  0.00000000000E+00  0.00000000000E+00  0.90268037692E+03  0.90268037692E+03  0.00000000000E+00 0. -1.
         21   -1    0    0  501  502 -0.00000000000E+00 -0.00000000000E+00 -0.15021975620E+03  0.15021975620E+03  0.00000000000E+00 0. -1.
         25    1    1    2    0    0 -0.18683305707E+03  0.43140033250E+02  0.61016177617E+02  0.23688737327E+03  0.12500000000E+03 0.  0.
         25    1    1    2    0    0 -0.33729787846E+02 -0.60473470177E+02  0.42247930940E+03  0.44599159864E+03  0.12500000000E+03 0.  0.
         25    1    1    2    0    0  0.22056284492E+03  0.17333436927E+02  0.26896513370E+03  0.37002116121E+03  0.12500000000E+03 0.  0.
</event>
<event>
 5    0  0.5568866E-005  0.5799186E+03  0.7546771E-02  0.9947967E-01
         21   -1    0    0  502  501  0.00000000000E+00  0.00000000000E+00  0.76995416026E+03  0.76995416026E+03  0.00000000000E+00 0. -1.
         21   -1    0    0  501  502 -0.00000000000E+00 -0.00000000000E+00 -0.43678650094E+03  0.43678650094E+03  0.00000000000E+00 0. -1.
         25    1    1    2    0    0  0.24464112268E+03  0.62830260469E+02 -0.91736321850E+02  0.29637387416E+03  0.12500000000E+03 0.  0.
         25    1    1    2    0    0 -0.14425706613E+03 -0.15525527356E+03 -0.16225942571E+03  0.29473279818E+03  0.12500000000E+03 0.  0.
         25    1    1    2    0    0 -0.10038405655E+03  0.92425013088E+02  0.58716340688E+03  0.61563398885E+03  0.12500000000E+03 0.  0.
</event>
<event>
 5    0  0.5568866E-005  0.2532583E+03  0.7546771E-02  0.1111263E+00
         21   -1    0    0  502  501  0.00000000000E+00  0.00000000000E+00  0.24934388105E+03  0.24934388105E+03  0.00000000000E+00 0. -1.
         21   -1    0    0  501  502 -0.00000000000E+00 -0.00000000000E+00 -0.25723415470E+03  0.25723415470E+03  0.00000000000E+00 0. -1.
         25    1    1    2    0    0 -0.98696932179E+02 -0.45499331987E+00 -0.69329678352E+02  0.17370347072E+03  0.12500000000E+03 0.  0.
         25    1    1    2    0    0  0.60298170818E+02 -0.32345148892E+02  0.11960701072E+03  0.18604546507E+03  0.12500000000E+03 0.  0.
         25    1    1    2    0    0  0.38398761361E+02  0.32800142212E+02 -0.58167606026E+02  0.14682909996E+03  0.12500000000E+03 0.  0.
</event>
<event>
 5    0  0.5568866E-005  0.3375105E+03  0.7546771E-02  0.1067861E+00
         21   -1    0    0  502  501  0.00000000000E+00  0.00000000000E+00  0.54420434922E+02  0.54420434922E+02  0.00000000000E+00 0.  1.
         21   -1    0    0  501  502 -0.00000000000E+00 -0.00000000000E+00 -0.20932088738E+04  0.20932088738E+04  0.00000000000E+00 0.  1.
         25    1    1    2    0    0  0.13731585306E+02  0.24656303931E+03 -0.59629473204E+03  0.65739964729E+03  0.12500000000E+03 0.  0.
         25    1    1    2    0    0  0.42718489795E+02 -0.13954606924E+03 -0.90901644711E+03  0.92910380255E+03  0.12500000000E+03 0.  0.
         25    1    1    2    0    0 -0.56450075101E+02 -0.10701697007E+03 -0.53347725978E+03  0.56112585893E+03  0.12500000000E+03 0.  0.
</event>
<event>
 5    0  0.5568866E-005  0.2349612E+03  0.7546771E-02  0.1123196E+00
         21   -1    0    0  502  501  0.00000000000E+00  0.00000000000E+00  0.12101870978E+04  0.12101870978E+04  0.00000000000E+00 0.  1.
         21   -1    0    0  501  502 -0.00000000000E+00 -0.00000000000E+00 -0.45618378739E+02  0.45618378739E+02  0.00000000000E+00 0.  1.
         25    1    1    2    0    0  0.45950149737E+01  0.35622696750E+01  0.13159311198E+03  0.18159171526E+03  0.12500000000E+03 0.  0.
         25    1    1    2    0    0 -0.68449394936E+02  0.42669664039E+01  0.37052777924E+03  0.39701304999E+03  0.12500000000E+03 0.  0.
         25    1    1    2    0    0  0.63854379962E+02 -0.78292360789E+01  0.66244782788E+03  0.67720071134E+03  0.12500000000E+03 0.  0.
</event>
<event>
 5    0  0.5568866E-005  0.3424327E+03  0.7546771E-02  0.1065765E+00
         21   -1    0    0  502  501  0.00000000000E+00  0.00000000000E+00  0.38282925232E+03  0.38282925232E+03  0.00000000000E+00 0. -1.
         21   -1    0    0  501  502 -0.00000000000E+00 -0.00000000000E+00 -0.30629883499E+03  0.30629883499E+03  0.00000000000E+00 0. -1.
         25    1    1    2    0    0 -0.19019719273E+03  0.16015174072E+03 -0.15373013011E+02  0.27872007769E+03  0.12500000000E+03 0.  0.
         25    1    1    2    0    0  0.19571313895E+03 -0.86370121417E+02  0.20673903567E+02  0.24862791662E+03  0.12500000000E+03 0.  0.
         25    1    1    2    0    0 -0.55159462245E+01 -0.73781619303E+02  0.71229526776E+02  0.16178009301E+03  0.12500000000E+03 0.  0.
</event>
<event>
 5    0  0.5568866E-005  0.2321044E+03  0.7546771E-02  0.1125167E+00
         21   -1    0    0  502  501  0.00000000000E+00  0.00000000000E+00  0.75310341677E+02  0.75310341677E+02  0.00000000000E+00 0. -1.
         21   -1    0    0  501  502 -0.00000000000E+00 -0.00000000000E+00 -0.71533926813E+03  0.71533926813E+03  0.00000000000E+00 0. -1.
         25    1    1    2    0    0 -0.21949044281E+02 -0.49887779650E+02 -0.34759599383E+03  0.37338790290E+03  0.12500000000E+03 0.  0.
         25    1    1    2    0    0  0.20386209857E+02 -0.45096302604E+02 -0.17760146649E+03  0.22274773840E+03  0.12500000000E+03 0.  0.
         25    1    1    2    0    0  0.15628344234E+01  0.94984082254E+02 -0.11483146613E+03  0.19451396852E+03  0.12500000000E+03 0.  0.
</event>
<event>
 5    0  0.5568866E-005  0.2586339E+03  0.7546771E-02  0.1107967E+00
         21   -1    0    0  502  501  0.00000000000E+00  0.00000000000E+00  0.17713065532E+03  0.17713065532E+03  0.00000000000E+00 0.  1.
         21   -1    0    0  501  502 -0.00000000000E+00 -0.00000000000E+00 -0.37763938283E+03  0.37763938283E+03  0.00000000000E+00 0.  1.
         25    1    1    2    0    0 -0.37598883177E+02  0.75316482753E+02  0.47199914063E+02  0.15792112106E+03  0.12500000000E+03 0.  0.
         25    1    1    2    0    0  0.40547037692E+02 -0.58135961750E+02 -0.32444433920E+02  0.14731426817E+03  0.12500000000E+03 0.  0.
         25    1    1    2    0    0 -0.29481545151E+01 -0.17180521003E+02 -0.21526420765E+03  0.24953464892E+03  0.12500000000E+03 0.  0.
</event>
<event>
 5    0  0.5568866E-005  0.3615184E+03  0.7546771E-02  0.1057984E+00
         21   -1    0    0  502  501  0.00000000000E+00  0.00000000000E+00  0.46903696057E+03  0.46903696057E+03  0.00000000000E+00 0.  1.
         21   -1    0    0  501  502 -0.00000000000E+00 -0.00000000000E+00 -0.27864663171E+03  0.27864663171E+03  0.00000000000E+00 0.  1.
         25    1    1    2    0    0 -0.10057108296E+03  0.25815811269E+02 -0.12612042558E+03  0.20569968544E+03  0.12500000000E+03 0.  0.
         25    1    1    2    0    0 -0.50405844454E+02 -0.14166860873E+03  0.22096943089E+03  0.29506479499E+03  0.12500000000E+03 0.  0.
         25    1    1    2    0    0  0.15097692742E+03  0.11585279747E+03  0.95541323551E+02  0.24691911185E+03  0.12500000000E+03 0.  0.
</event>
<event>
 5    0  0.5568866E-005  0.2370425E+03  0.7546771E-02  0.1121779E+00
         21   -1    0    0  502  501  0.00000000000E+00  0.00000000000E+00  0.24092742694E+03  0.24092742694E+03  0.00000000000E+00 0.  1.
         21   -1    0    0  501  502 -0.00000000000E+00 -0.00000000000E+00 -0.23322013182E+03  0.23322013182E+03  0.00000000000E+00 0.  1.
         25    1    1    2    0    0  0.10272573549E+03  0.13712661327E+02 -0.24386051701E+02  0.16419589925E+03  0.12500000000E+03 0.  0.
         25    1    1    2    0    0 -0.28437302869E+02  0.29210556548E+02  0.76314240884E+02  0.15202236733E+03  0.12500000000E+03 0.  0.
         25    1    1    2    0    0 -0.74288432618E+02 -0.42923217875E+02 -0.44220894064E+02  0.15792929217E+03  0.12500000000E+03 0.  0.
</event>
<event>
 5    0  0.5568866E-005  0.3098078E+03  0.7546771E-02  0.1080438E+00
         21   -1    0    0  502  501  0.00000000000E+00  0.00000000000E+00  0.73312097480E+03  0.73312097480E+03  0.00000000000E+00 0.  1.
         21   -1    0    0  501  502 -0.00000000000E+00 -0.00000000000E+00 -0.13092090847E+03  0.13092090847E+03  0.00000000000E+00 0.  1.
         25    1    1    2    0    0  0.10447494062E+02  0.77427452377E+01  0.26524778143E+02  0.12844323295E+03  0.12500000000E+03 0.  0.
         25    1    1    2    0    0 -0.53311173711E+02  0.10637905037E+03  0.47040486656E+02  0.17887535041E+03  0.12500000000E+03 0.  0.
         25    1    1    2    0    0  0.42863679649E+02 -0.11412179561E+03  0.52863480153E+03  0.55672329990E+03  0.12500000000E+03 0.  0.
</event>
<event>
 5    0  0.5568866E-005  0.3992382E+03  0.7546771E-02  0.1044044E+00
         21   -1    0    0  502  501  0.00000000000E+00  0.00000000000E+00  0.22528940028E+04  0.22528940028E+04  0.00000000000E+00 0. -1.
         21   -1    0    0  501  502 -0.00000000000E+00 -0.00000000000E+00 -0.70749523506E+02  0.70749523506E+02  0.00000000000E+00 0. -1.
         25    1    1    2    0    0  0.25610445346E+03 -0.14268348468E+02  0.13610157501E+04  0.13906048859E+04  0.12500000000E+03 0.  0.
         25    1    1    2    0    0 -0.25041112072E+03  0.16718491959E+02  0.71823001927E+03  0.77101530331E+03  0.12500000000E+03 0.  0.
         25    1    1    2    0    0 -0.56933327340E+01 -0.24501434906E+01  0.10289870994E+03  0.16202333705E+03  0.12500000000E+03 0.  0.
</event>
<event>
 5    0  0.5568866E-005  0.2727006E+03  0.7546771E-02  0.1099744E+00
         21   -1    0    0  502  501  0.00000000000E+00  0.00000000000E+00  0.12821370386E+04  0.12821370386E+04  0.00000000000E+00 0. -1.
         21   -1    0    0  501  502 -0.00000000000E+00 -0.00000000000E+00 -0.58001308576E+02  0.58001308576E+02  0.00000000000E+00 0. -1.
         25    1    1    2    0    0  0.11509409029E+03 -0.92544795233E+01  0.72097046789E+03  0.74078047394E+03  0.12500000000E+03 0.  0.
         25    1    1    2    0    0 -0.13149957575E+03  0.29827998394E+02  0.37885530485E+03  0.42111541164E+03  0.12500000000E+03 0.  0.
         25    1    1    2    0    0  0.16405485467E+02 -0.20573518871E+02  0.12430995729E+03  0.17824246159E+03  0.12500000000E+03 0.  0.
</event>
<event>
 5    0  0.5568866E-005  0.3118214E+03  0.7546771E-02  0.1079476E+00
         21   -1    0    0  502  501  0.00000000000E+00  0.00000000000E+00  0.19947888600E+04  0.19947888600E+04  0.00000000000E+00 0. -1.
         21   -1    0    0  501  502 -0.00000000000E+00 -0.00000000000E+00 -0.48743296414E+02  0.48743296414E+02  0.00000000000E+00 0. -1.
         25    1    1    2    0    0 -0.15261885728E+03 -0.86728073833E+01  0.60466610386E+03  0.63609262717E+03  0.12500000000E+03 0.  0.
         25    1    1    2    0    0 -0.59644027262E+02 -0.48871369057E+02  0.27830099048E+03  0.31467802911E+03  0.12500000000E+03 0.  0.
         25    1    1    2    0    0  0.21226288454E+03  0.57544176441E+02  0.10630784692E+04  0.10927615001E+04  0.12500000000E+03 0.  0.
</event>
<event>
 5    0  0.5568866E-005  0.2759028E+03  0.7546771E-02  0.1097948E+00
         21   -1    0    0  502  501  0.00000000000E+00  0.00000000000E+00  0.43454425435E+02  0.43454425435E+02  0.00000000000E+00 0.  1.
         21   -1    0    0  501  502 -0.00000000000E+00 -0.00000000000E+00 -0.17517749791E+04  0.17517749791E+04  0.00000000000E+00 0.  1.
         25    1    1    2    0    0  0.92469355650E+02 -0.28316877767E+02 -0.71795514563E+03  0.73514421608E+03  0.12500000000E+03 0.  0.
         25    1    1    2    0    0 -0.76696419911E+02  0.35082208947E+02 -0.15874435575E+03  0.21894719157E+03  0.12500000000E+03 0.  0.
         25    1    1    2    0    0 -0.15772935739E+02 -0.67653311799E+01 -0.83162105230E+03  0.84113799690E+03  0.12500000000E+03 0.  0.
</event>
<event>
 5    0  0.5568866E-005  0.4097514E+03  0.7546771E-02  0.1040454E+00
         21   -1    0    0  502  501  0.00000000000E+00  0.00000000000E+00  0.63910479400E+03  0.63910479400E+03  0.00000000000E+00 0. -1.
         21   -1    0    0  501  502 -0.00000000000E+00 -0.00000000000E+00 -0.26270528458E+03  0.26270528458E+03  0.00000000000E+00 0. -1.
         25    1    1    2    0    0  0.60063333766E+02 -0.27270676575E+02  0.66440797843E+02  0.15617513721E+03  0.12500000000E+03 0.  0.
         25    1    1    2    0    0  0.98532780784E+02 -0.21248955623E+03 -0.48029593202E+02  0.26980059714E+03  0.12500000000E+03 0.  0.
         25    1    1    2    0    0 -0.15859611455E+03  0.23976023280E+03  0.35798830478E+03  0.47583434422E+03  0.12500000000E+03 0.  0.
</event>
<event>
 5    0  0.5568866E-005  0.3663597E+03  0.7546771E-02  0.1056094E+00
         21   -1    0    0  502  501  0.00000000000E+00  0.00000000000E+00  0.78268059500E+03  0.78268059500E+03  0.00000000000E+00 0.  1.
         21   -1    0    0  501  502 -0.00000000000E+00 -0.00000000000E+00 -0.17148680620E+03  0.17148680620E+03  0.00000000000E+00 0.  1.
         25    1    1    2    0    0  0.12690832458E+03 -0.18146236218E+03  0.11865455513E+03  0.28060330573E+03  0.12500000000E+03 0.  0.
         25    1    1    2    0    0 -0.11409444388E+03  0.18882003495E+03  0.48522181299E+03  0.54748128327E+03  0.12500000000E+03 0.  0.
         25    1    1    2    0    0 -0.12813880694E+02 -0.73576727685E+01  0.73174206812E+01  0.12608281220E+03  0.12500000000E+03 0.  0.
</event>
<event>
 5    0  0.5568866E-005  0.3315387E+03  0.7546771E-02  0.1070458E+00
         21   -1    0    0  502  501  0.00000000000E+00  0.00000000000E+00  0.64439332541E+03  0.64439332541E+03  0.00000000000E+00 0. -1.
         21   -1    0    0  501  502 -0.00000000000E+00 -0.00000000000E+00 -0.17057580416E+03  0.17057580416E+03  0.00000000000E+00 0. -1.
         25    1    1    2    0    0 -0.26635488791E+02 -0.14786602356E+03  0.14777182460E+01  0.19545074530E+03  0.12500000000E+03 0.  0.
         25    1    1    2    0    0 -0.49503576374E+02 -0.57677291220E+02  0.20563561856E+03  0.25236537326E+03  0.12500000000E+03 0.  0.
         25    1    1    2    0    0  0.76139065165E+02  0.20554331478E+03  0.26670418444E+03  0.36715301101E+03  0.12500000000E+03 0.  0.
</event>
<event>
 5    0  0.5568866E-005  0.3785647E+03  0.7546771E-02  0.1051466E+00
         21   -1    0    0  502  501  0.00000000000E+00  0.00000000000E+00  0.21187036061E+03  0.21187036061E+03  0.00000000000E+00 0. -1.
         21   -1    0    0  501  502 -0.00000000000E+00 -0.00000000000E+00 -0.67640996436E+03  0.67640996436E+03  0.00000000000E+00 0. -1.
         25    1    1    2    0    0 -0.19516901244E+03 -0.32022170889E+02 -0.22166791234E+03  0.32230114211E+03  0.12500000000E+03 0.  0.
         25    1    1    2    0    0  0.27333943877E+03  0.85529433287E+02 -0.26223556204E+03  0.40794879917E+03  0.12500000000E+03 0.  0.
         25    1    1    2    0    0 -0.78170426331E+02 -0.53507262398E+02  0.19363870623E+02  0.15803038369E+03  0.12500000000E+03 0.  0.
</event>
<event>
 5    0  0.5568866E-005  0.3176901E+03  0.7546771E-02  0.1076717E+00
         21   -1    0    0  502  501  0.00000000000E+00  0.00000000000E+00  0.28040969699E+03  0.28040969699E+03  0.00000000000E+00 0.  1.
         21   -1    0    0  501  502 -0.00000000000E+00 -0.00000000000E+00 -0.35992696593E+03  0.35992696593E+03  0.00000000000E+00 0.  1.
         25    1    1    2    0    0 -0.13880931982E+03 -0.79788122386E+02 -0.21433627810E+03  0.29529512670E+03  0.12500000000E+03 0.  0.
         25    1    1    2    0    0  0.88924029336E+02  0.74189324512E+01  0.11301769847E+03  0.19068435625E+03  0.12500000000E+03 0.  0.
         25    1    1    2    0    0  0.49885290487E+02  0.72369189935E+02  0.21801310687E+02  0.15435717996E+03  0.12500000000E+03 0.  0.
</event>
<event>
 5    0  0.5568866E-005  0.2360742E+03  0.7546771E-02  0.1122436E+00
         21   -1    0    0  502  501  0.00000000000E+00  0.00000000000E+00  0.47065663106E+02  0.47065663106E+02  0.00000000000E+00 0.  1.
         21   -1    0    0  501  502 -0.00000000000E+00 -0.00000000000E+00 -0.11841118820E+04  0.11841118820E+04  0.00000000000E+00 0.  1.
         25    1    1    2    0    0 -0.57055423955E+01  0.60831673764E+02 -0.28710472122E+03  0.31904101099E+03  0.12500000000E+03 0.  0.
         25    1    1    2    0    0 -0.57627627870E+02  0.52605376705E+02 -0.31821117165E+03  0.35067309409E+03  0.12500000000E+03 0.  0.
         25    1    1    2    0    0  0.63333170265E+02 -0.11343705047E+03 -0.53173032598E+03  0.56146343998E+03  0.12500000000E+03 0.  0.
</event>
<event>
 5    0  0.5568866E-005  0.2738732E+03  0.7546771E-02  0.1099083E+00
         21   -1    0    0  502  501  0.00000000000E+00  0.00000000000E+00  0.63304280714E+03  0.63304280714E+03  0.00000000000E+00 0.  1.
         21   -1    0    0  501  502 -0.00000000000E+00 -0.00000000000E+00 -0.11848570319E+03  0.11848570319E+03  0.00000000000E+00 0.  1.
         25    1    1    2    0    0  0.76425870001E+02  0.12193563118E+02  0.12378871905E+03  0.19219324533E+03  0.12500000000E+03 0.  0.
         25    1    1    2    0    0 -0.63115816131E+02 -0.13057650830E+03  0.87849459581E+02  0.21065696835E+03  0.12500000000E+03 0.  0.
         25    1    1    2    0    0 -0.13310053869E+02  0.11838294518E+03  0.30291892532E+03  0.34867829666E+03  0.12500000000E+03 0.  0.
</event>
<event>
 5    0  0.5568866E-005  0.5373989E+03  0.7546771E-02  0.1004453E+00
         21   -1    0    0  502  501  0.00000000000E+00  0.00000000000E+00  0.55569809667E+03  0.55569809667E+03  0.00000000000E+00 0. -1.
         21   -1    0    0  501  502 -0.00000000000E+00 -0.00000000000E+00 -0.51970239005E+03  0.51970239005E+03  0.00000000000E+00 0. -1.
         25    1    1    2    0    0 -0.76445817453E+01  0.23210646745E+03  0.11385010029E+02  0.26398195074E+03  0.12500000000E+03 0.  0.
         25    1    1    2    0    0 -0.32717601814E+03 -0.20302910162E+03 -0.12380803951E+03  0.42334193460E+03  0.12500000000E+03 0.  0.
         25    1    1    2    0    0  0.33482059988E+03 -0.29077365836E+02  0.14841873610E+03  0.38807660138E+03  0.12500000000E+03 0.  0.
</event>
<event>
 5    0  0.5568866E-005  0.3947980E+03  0.7546771E-02  0.1045596E+00
         21   -1    0    0  502  501  0.00000000000E+00  0.00000000000E+00  0.10054297015E+03  0.10054297015E+03  0.00000000000E+00 0. -1.
         21   -1    0    0  501  502 -0.00000000000E+00 -0.00000000000E+00 -0.15502370754E+04  0.15502370754E+04  0.00000000000E+00 0. -1.
         25    1    1    2    0    0  0.14534242890E+03 -0.43366015070E+02 -0.96845001251E+03  0.98819302752E+03  0.12500000000E+03 0.  0.
         25    1    1    2    0    0 -0.31747673952E+01  0.48252750740E+02 -0.45140470404E+03  0.47088174092E+03  0.12500000000E+03 0.  0.
         25    1    1    2    0    0 -0.14216766150E+03 -0.48867356705E+01 -0.29839388712E+02  0.19170527714E+03  0.12500000000E+03 0.  0.
</event>
<event>
 5    0  0.5568866E-005  0.2516979E+03  0.7546771E-02  0.1112236E+00
         21   -1    0    0  502  501  0.00000000000E+00  0.00000000000E+00  0.65263205296E+03  0.65263205296E+03  0.00000000000E+00 0. -1.
         21   -1    0    0  501  502 -0.00000000000E+00 -0.00000000000E+00 -0.97071277650E+02  0.97071277650E+02  0.00000000000E+00 0. -1.
         25    1    1    2    0    0 -0.72542830833E+02 -0.81648532956E+01  0.83962738069E+02  0.16734356432E+03  0.12500000000E+03 0.  0.
         25    1    1    2    0    0  0.92111077823E+02 -0.74978749439E+02  0.15685680859E+03  0.23309938208E+03  0.12500000000E+03 0.  0.
         25    1    1    2    0    0 -0.19568246990E+02  0.83143602734E+02  0.31474122865E+03  0.34926038421E+03  0.12500000000E+03 0.  0.
</event>
<event>
 5    0  0.5568866E-005  0.2665061E+03  0.7546771E-02  0.1103296E+00
         21   -1    0    0  502  501  0.00000000000E+00  0.00000000000E+00  0.55328298218E+03  0.55328298218E+03  0.00000000000E+00 0. -1.
         21   -1    0    0  501  502 -0.00000000000E+00 -0.00000000000E+00 -0.12837102674E+03  0.12837102674E+03  0.00000000000E+00 0. -1.
         25    1    1    2    0    0  0.59172749134E+02 -0.54861576440E+01 -0.92583196243E+01  0.13871636042E+03  0.12500000000E+03 0.  0.
         25    1    1    2    0    0 -0.79621768989E+02 -0.81248111952E+02  0.18780802081E+03  0.25266130387E+03  0.12500000000E+03 0.  0.
         25    1    1    2    0    0  0.20449019855E+02  0.86734269596E+02  0.24636225425E+03  0.29027634464E+03  0.12500000000E+03 0.  0.
</event>
<event>
 5    0  0.5568866E-005  0.2757649E+03  0.7546771E-02  0.1098025E+00
         21   -1    0    0  502  501  0.00000000000E+00  0.00000000000E+00  0.21406073709E+03  0.21406073709E+03  0.00000000000E+00 0.  1.
         21   -1    0    0  501  502 -0.00000000000E+00 -0.00000000000E+00 -0.35525564055E+03  0.35525564055E+03  0.00000000000E+00 0.  1.
         25    1    1    2    0    0 -0.16540967711E+03  0.47562521110E+02 -0.67648925594E+02  0.22321275015E+03  0.12500000000E+03 0.  0.
         25    1    1    2    0    0  0.11642375066E+03  0.41293406902E+02 -0.54427736787E+02  0.18397557909E+03  0.12500000000E+03 0.  0.
         25    1    1    2    0    0  0.48985926452E+02 -0.88855928012E+02 -0.19118241077E+02  0.16212804839E+03  0.12500000000E+03 0.  0.
</event>
<event>
 5    0  0.5568866E-005  0.3790708E+03  0.7546771E-02  0.1051278E+00
         21   -1    0    0  502  501  0.00000000000E+00  0.00000000000E+00  0.18241787887E+03  0.18241787887E+03  0.00000000000E+00 0. -1.
         21   -1    0    0  501  502 -0.00000000000E+00 -0.00000000000E+00 -0.78772253923E+03  0.78772253923E+03  0.00000000000E+00 0. -1.
         25    1    1    2    0    0  0.20175555696E+03 -0.10042161331E+03 -0.17462240595E+03  0.31130016037E+03  0.12500000000E+03 0.  0.
         25    1    1    2    0    0  0.69708349951E+02  0.11109104082E+03 -0.25234851125E+03  0.31065293260E+03  0.12500000000E+03 0.  0.
         25    1    1    2    0    0 -0.27146390691E+03 -0.10669427508E+02 -0.17833374315E+03  0.34818732513E+03  0.12500000000E+03 0.  0.
</event>
<event>
 5    0  0.5568866E-005  0.2715334E+03  0.7546771E-02  0.1100405E+00
         21   -1    0    0  502  501  0.00000000000E+00  0.00000000000E+00  0.85315634883E+02  0.85315634883E+02  0.00000000000E+00 0.  1.
         21   -1    0    0  501  502 -0.00000000000E+00 -0.00000000000E+00 -0.86420704455E+03  0.86420704455E+03  0.00000000000E+00 0. -1.
         25    1    1    2    0    0  0.37204413975E+02 -0.10299074843E+03 -0.21752539196E+03  0.27373994745E+03  0.12500000000E+03 0.  0.
         25    1    1    2    0    0 -0.75678542521E+01  0.15142628876E+02 -0.40991652588E+02  0.13263441186E+03  0.12500000000E+03 0.  0.
         25    1    1    2    0    0 -0.29636559723E+02  0.87848119556E+02 -0.52037436512E+03  0.54314832012E+03  0.12500000000E+03 0.  0.
</event>
<event>
 5    0  0.5568866E-005  0.2331206E+03  0.7546771E-02  0.1124462E+00
         21   -1    0    0  502  501  0.00000000000E+00  0.00000000000E+00  0.34091190587E+03  0.34091190587E+03  0.00000000000E+00 0.  1.
         21   -1    0    0  501  502 -0.00000000000E+00 -0.00000000000E+00 -0.15941134925E+03  0.15941134925E+03  0.00000000000E+00 0.  1.
         25    1    1    2    0    0 -0.98571318354E+02 -0.60117930372E+02  0.52681915972E+02  0.17813156549E+03  0.12500000000E+03 0.  0.
         25    1    1    2    0    0 -0.70536431257E+01  0.21748376205E+02  0.50279364437E+02  0.13665928522E+03  0.12500000000E+03 0.  0.
         25    1    1    2    0    0  0.10562496148E+03  0.38369554167E+02  0.78539276209E+02  0.18553240440E+03  0.12500000000E+03 0.  0.
</event>
<event>
 5    0  0.5568866E-005  0.3376480E+03  0.7546771E-02  0.1067802E+00
         21   -1    0    0  502  501  0.00000000000E+00  0.00000000000E+00  0.58341555105E+03  0.58341555105E+03  0.00000000000E+00 0. -1.
         21   -1    0    0  501  502 -0.00000000000E+00 -0.00000000000E+00 -0.19541155325E+03  0.19541155325E+03  0.00000000000E+00 0. -1.
         25    1    1    2    0    0  0.65965670534E+02  0.10026179452E+03  0.93569824024E+02  0.19693706887E+03  0.12500000000E+03 0.  0.
         25    1    1    2    0    0 -0.79625845931E+02 -0.90757756376E+01  0.37756732904E+03  0.40571508846E+03  0.12500000000E+03 0.  0.
         25    1    1    2    0    0  0.13660175397E+02 -0.91186018879E+02 -0.83133155266E+02  0.17617494696E+03  0.12500000000E+03 0.  0.
</event>
<event>
 5    0  0.5568866E-005  0.3793162E+03  0.7546771E-02  0.1051187E+00
         21   -1    0    0  502  501  0.00000000000E+00  0.00000000000E+00  0.12197001582E+04  0.12197001582E+04  0.00000000000E+00 0. -1.
         21   -1    0    0  501  502 -0.00000000000E+00 -0.00000000000E+00 -0.11796403883E+03  0.11796403883E+03  0.00000000000E+00 0. -1.
         25    1    1    2    0    0  0.64948501990E+02  0.52338946319E+02  0.11190569610E+03  0.18736477265E+03  0.12500000000E+03 0.  0.
         25    1    1    2    0    0  0.39631686949E+02 -0.26946631753E+02 -0.12530826945E+02  0.13445747728E+03  0.12500000000E+03 0.  0.
         25    1    1    2    0    0 -0.10458018894E+03 -0.25392314566E+02  0.10023612502E+04  0.10158419471E+04  0.12500000000E+03 0.  0.
</event>
<event>
 5    0  0.5568866E-005  0.2962193E+03  0.7546771E-02  0.1087146E+00
         21   -1    0    0  502  501  0.00000000000E+00  0.00000000000E+00  0.69597892225E+03  0.69597892225E+03  0.00000000000E+00 0.  1.
         21   -1    0    0  501  502 -0.00000000000E+00 -0.00000000000E+00 -0.12607548528E+03  0.12607548528E+03  0.00000000000E+00 0.  1.
         25    1    1    2    0    0  0.61515235284E+02 -0.59235935585E+02  0.18786740258E+03  0.24127200664E+03  0.12500000000E+03 0.  0.
         25    1    1    2    0    0 -0.11778841676E+03 -0.22948194204E+02  0.38362459175E+03  0.42094365197E+03  0.12500000000E+03 0.  0.
         25    1    1    2    0    0  0.56273181473E+02  0.82184129789E+02 -0.15885573527E+01  0.15983874892E+03  0.12500000000E+03 0.  0.
</event>
<event>
 5    0  0.5568866E-005  0.2971408E+03  0.7546771E-02  0.1086679E+00
         21   -1    0    0  502  501  0.00000000000E+00  0.00000000000E+00  0.18457481270E+03  0.18457481270E+03  0.00000000000E+00 0.  1.
         21   -1    0    0  501  502 -0.00000000000E+00 -0.00000000000E+00 -0.47835709298E+03  0.47835709298E+03  0.00000000000E+00 0.  1.
         25    1    1    2    0    0  0.69792579411E+02 -0.56424076051E+02 -0.11570884684E+02  0.15431644718E+03  0.12500000000E+03 0.  0.
         25    1    1    2    0    0 -0.35041845455E+02 -0.10116919817E+03 -0.25383674992E+03  0.30252476460E+03  0.12500000000E+03 0.  0.
         25    1    1    2    0    0 -0.34750733957E+02  0.15759327422E+03 -0.28374645684E+02  0.20609069389E+03  0.12500000000E+03 0.  0.
</event>
<event>
 5    0  0.5568866E-005  0.2832567E+03  0.7546771E-02  0.1093923E+00
         21   -1    0    0  502  501  0.00000000000E+00  0.00000000000E+00  0.89758701895E+03  0.89758701895E+03  0.00000000000E+00 0. -1.
         21   -1    0    0  501  502 -0.00000000000E+00 -0.00000000000E+00 -0.89388955314E+02  0.89388955314E+02  0.00000000000E+00 0. -1.
         25    1    1    2    0    0 -0.84375410896E+02  0.58274854657E+02  0.59571047106E+03  0.61726099340E+03  0.12500000000E+03 0.  0.
         25    1    1    2    0    0  0.78224322331E+02  0.24312760658E+02  0.79431863164E+02  0.16924708512E+03  0.12500000000E+03 0.  0.
         25    1    1    2    0    0  0.61510885646E+01 -0.82587615315E+02  0.13305572941E+03  0.20046789574E+03  0.12500000000E+03 0.  0.
</event>
<event>
 5    0  0.5568866E-005  0.3594431E+03  0.7546771E-02  0.1058805E+00
         21   -1    0    0  502  501  0.00000000000E+00  0.00000000000E+00  0.57649821433E+03  0.57649821433E+03  0.00000000000E+00 0. -1.
         21   -1    0    0  501  502 -0.00000000000E+00 -0.00000000000E+00 -0.22411053790E+03  0.22411053790E+03  0.00000000000E+00 0. -1.
         25    1    1    2    0    0 -0.70178160106E+01  0.17037477592E+03  0.11275775219E+03  0.23961662023E+03  0.12500000000E+03 0.  0.
         25    1    1    2    0    0  0.14933112144E+03  0.44414668038E+02  0.17911420152E+03  0.26828966390E+03  0.12500000000E+03 0.  0.
         25    1    1    2    0    0 -0.14231330543E+03 -0.21478944396E+03  0.60515722731E+02  0.29270246811E+03  0.12500000000E+03 0.  0.
</event>
<event>
 5    0  0.5568866E-005  0.3316782E+03  0.7546771E-02  0.1070397E+00
         21   -1    0    0  502  501  0.00000000000E+00  0.00000000000E+00  0.11522004232E+03  0.11522004232E+03  0.00000000000E+00 0. -1.
         21   -1    0    0  501  502 -0.00000000000E+00 -0.00000000000E+00 -0.95478569679E+03  0.95478569679E+03  0.00000000000E+00 0. -1.
         25    1    1    2    0    0  0.12461459133E+03  0.52853249430E+01 -0.56984735941E+03  0.59658003994E+03  0.12500000000E+03 0.  0.
         25    1    1    2    0    0 -0.17531362972E+03  0.73183106306E+02 -0.19863142302E+03  0.30194383257E+03  0.12500000000E+03 0.  0.
         25    1    1    2    0    0  0.50699038386E+02 -0.78468431249E+02 -0.71086872040E+02  0.17148186660E+03  0.12500000000E+03 0.  0.
</event>
<event>
 5    0  0.5568866E-005  0.2942883E+03  0.7546771E-02  0.1088131E+00
         21   -1    0    0  502  501  0.00000000000E+00  0.00000000000E+00  0.21941095700E+03  0.21941095700E+03  0.00000000000E+00 0.  1.
         21   -1    0    0  501  502 -0.00000000000E+00 -0.00000000000E+00 -0.39471861165E+03  0.39471861165E+03  0.00000000000E+00 0.  1.
         25    1    1    2    0    0 -0.10448638885E+03  0.42018283837E+02  0.73758869311E+02  0.18370713768E+03  0.12500000000E+03 0.  0.
         25    1    1    2    0    0  0.15694498792E+03 -0.69267156385E+02 -0.16204087942E+03  0.26704290814E+03  0.12500000000E+03 0.  0.
         25    1    1    2    0    0 -0.52458599078E+02  0.27248872548E+02 -0.87025644542E+02  0.16337952283E+03  0.12500000000E+03 0.  0.
</event>
<event>
 5    0  0.5568866E-005  0.3291536E+03  0.7546771E-02  0.1071512E+00
         21   -1    0    0  502  501  0.00000000000E+00  0.00000000000E+00  0.96745813490E+02  0.96745813490E+02  0.00000000000E+00 0. -1.
         21   -1    0    0  501  502 -0.00000000000E+00 -0.00000000000E+00 -0.11198636669E+04  0.11198636669E+04  0.00000000000E+00 0. -1.
         25    1    1    2    0    0  0.68067354417E+02  0.96521601002E+02 -0.31243104885E+03  0.35663390821E+03  0.12500000000E+03 0.  0.
         25    1    1    2    0    0  0.15013247623E+03 -0.12141338394E+03 -0.30470291176E+03  0.38177196683E+03  0.12500000000E+03 0.  0.
         25    1    1    2    0    0 -0.21819983065E+03  0.24891782942E+02 -0.40598389275E+03  0.47820360531E+03  0.12500000000E+03 0.  0.
</event>
<event>
 5    0  0.5568866E-005  0.2769277E+03  0.7546771E-02  0.1097379E+00
         21   -1    0    0  502  501  0.00000000000E+00  0.00000000000E+00  0.45000434545E+03  0.45000434545E+03  0.00000000000E+00 0.  1.
         21   -1    0    0  501  502 -0.00000000000E+00 -0.00000000000E+00 -0.17041828209E+03  0.17041828209E+03  0.00000000000E+00 0.  1.
         25    1    1    2    0    0  0.81423427247E+02 -0.55476432277E+02 -0.28826616552E+02  0.16175099030E+03  0.12500000000E+03 0.  0.
         25    1    1    2    0    0  0.15167164331E+02 -0.10552576444E+02  0.26913373003E+02  0.12919260579E+03  0.12500000000E+03 0.  0.
         25    1    1    2    0    0 -0.96590591578E+02  0.66029008721E+02  0.28149930691E+03  0.32947903145E+03  0.12500000000E+03 0.  0.
</event>
<event>
 5    0  0.5568866E-005  0.2706790E+03  0.7546771E-02  0.1100892E+00
         21   -1    0    0  502  501  0.00000000000E+00  0.00000000000E+00  0.49435513926E+03  0.49435513926E+03  0.00000000000E+00 0. -1.
         21   -1    0    0  501  502 -0.00000000000E+00 -0.00000000000E+00 -0.14820748983E+03  0.14820748983E+03  0.00000000000E+00 0. -1.
         25    1    1    2    0    0 -0.75297369546E+02 -0.18521542224E+02  0.13141315857E+02  0.14768356567E+03  0.12500000000E+03 0.  0.
         25    1    1    2    0    0 -0.74540082358E+02 -0.48312810601E+02  0.18868973659E+03  0.24314433623E+03  0.12500000000E+03 0.  0.
         25    1    1    2    0    0  0.14983745190E+03  0.66834352826E+02  0.14431659698E+03  0.25173472719E+03  0.12500000000E+03 0.  0.
</event>
<event>
 5    0  0.5568866E-005  0.2406513E+03  0.7546771E-02  0.1119360E+00
         21   -1    0    0  502  501  0.00000000000E+00  0.00000000000E+00  0.35879983206E+03  0.35879983206E+03  0.00000000000E+00 0.  1.
         21   -1    0    0  501  502 -0.00000000000E+00 -0.00000000000E+00 -0.16140763738E+03  0.16140763738E+03  0.00000000000E+00 0.  1.
         25    1    1    2    0    0  0.12297970009E+02  0.51721537159E+02 -0.19179615683E+02  0.13718314448E+03  0.12500000000E+03 0.  0.
         25    1    1    2    0    0 -0.95872426631E+01 -0.10933574021E+03  0.65880536568E+02  0.17891747932E+03  0.12500000000E+03 0.  0.
         25    1    1    2    0    0 -0.27107273456E+01  0.57614203051E+02  0.15069127380E+03  0.20410684563E+03  0.12500000000E+03 0.  0.
</event>
<event>
 5    0  0.5568866E-005  0.2713870E+03  0.7546771E-02  0.1100488E+00
         21   -1    0    0  502  501  0.00000000000E+00  0.00000000000E+00  0.31390790647E+03  0.31390790647E+03  0.00000000000E+00 0. -1.
         21   -1    0    0  501  502 -0.00000000000E+00 -0.00000000000E+00 -0.23462585614E+03  0.23462585614E+03  0.00000000000E+00 0. -1.
         25    1    1    2    0    0  0.72738774112E+02 -0.74407729513E+02  0.23551948368E+02  0.16433847311E+03  0.12500000000E+03 0.  0.
         25    1    1    2    0    0 -0.25976849755E+02  0.10555253168E+03 -0.86335148881E+02  0.18680174410E+03  0.12500000000E+03 0.  0.
         25    1    1    2    0    0 -0.46761924358E+02 -0.31144802172E+02  0.14206525084E+03  0.19739354541E+03  0.12500000000E+03 0.  0.
</event>
