<event>
 5    0  0.5619558E-005  0.2672542E+03  0.7546771E-02  0.1102861E+00
         21   -1    0    0  502  501  0.00000000000E+00  0.00000000000E+00  0.21812644874E+03  0.21812644874E+03  0.00000000000E+00 0.  1.
         21   -1    0    0  501  502 -0.00000000000E+00 -0.00000000000E+00 -0.32744676549E+03  0.32744676549E+03  0.00000000000E+00 0.  1.
         25    1    1    2    0    0  0.14436792337E+03  0.49189084268E+02 -0.21347743593E+02  0.19834916049E+03  0.12500000000E+03 0.  0.
         25    1    1    2    0    0 -0.39707808340E+02  0.49430162476E+02 -0.67568100937E+02  0.15559723413E+03  0.12500000000E+03 0.  0.
         25    1    1    2    0    0 -0.10466011503E+03 -0.98619246744E+02 -0.20404472217E+02  0.19162681961E+03  0.12500000000E+03 0.  0.
</event>
<event>
 5    0  0.5619558E-005  0.2609585E+03  0.7546771E-02  0.1106569E+00
         21   -1    0    0  502  501  0.00000000000E+00  0.00000000000E+00  0.61086284951E+03  0.61086284951E+03  0.00000000000E+00 0. -1.
         21   -1    0    0  501  502 -0.00000000000E+00 -0.00000000000E+00 -0.11148060488E+03  0.11148060488E+03  0.00000000000E+00 0. -1.
         25    1    1    2    0    0 -0.28152076047E+02  0.97781799884E+02  0.59854710248E+02  0.17193430755E+03  0.12500000000E+03 0.  0.
         25    1    1    2    0    0 -0.44508029324E+02 -0.73919308225E+02  0.10344533045E+03  0.18376878188E+03  0.12500000000E+03 0.  0.
         25    1    1    2    0    0  0.72660105371E+02 -0.23862491659E+02  0.33608220393E+03  0.36664036496E+03  0.12500000000E+03 0.  0.
</event>
<event>
 5    0  0.5619558E-005  0.6776977E+03  0.7546771E-02  0.9756151E-01
         21   -1    0    0  502  501  0.00000000000E+00  0.00000000000E+00  0.41247625802E+03  0.41247625802E+03  0.00000000000E+00 0.  1.
         21   -1    0    0  501  502 -0.00000000000E+00 -0.00000000000E+00 -0.11134560879E+04  0.11134560879E+04  0.00000000000E+00 0.  1.
         25    1    1    2    0    0  0.23582631249E+02  0.24980978264E+03  0.10373110705E+03  0.29890836484E+03  0.12500000000E+03 0.  0.
         25    1    1    2    0    0  0.14974581409E+03 -0.41580955513E+02 -0.89368273979E+03  0.91566731082E+03  0.12500000000E+03 0.  0.
         25    1    1    2    0    0 -0.17332844534E+03 -0.20822882713E+03  0.88971802877E+02  0.31135667026E+03  0.12500000000E+03 0.  0.
</event>
<event>
 5    0  0.5619558E-005  0.3625920E+03  0.7546771E-02  0.1057562E+00
         21   -1    0    0  502  501  0.00000000000E+00  0.00000000000E+00  0.28357240359E+04  0.28357240359E+04  0.00000000000E+00 0.  1.
         21   -1    0    0  501  502 -0.00000000000E+00 -0.00000000000E+00 -0.46363091525E+02  0.46363091525E+02  0.00000000000E+00 0.  1.
         25    1    1    2    0    0  0.19728964361E+03 -0.22235738782E+03  0.14784867821E+04  0.15132462379E+04  0.12500000000E+03 0.  0.
         25    1    1    2    0    0 -0.89386163893E+02  0.67983443295E+02  0.56801553308E+03  0.59234979588E+03  0.12500000000E+03 0.  0.
         25    1    1    2    0    0 -0.10790347971E+03  0.15437394452E+03  0.74285862913E+03  0.77649109367E+03  0.12500000000E+03 0.  0.
</event>
<event>
 5    0  0.5619558E-005  0.2671295E+03  0.7546771E-02  0.1102934E+00
         21   -1    0    0  502  501  0.00000000000E+00  0.00000000000E+00  0.58376127797E+02  0.58376127797E+02  0.00000000000E+00 0.  1.
         21   -1    0    0  501  502 -0.00000000000E+00 -0.00000000000E+00 -0.12223865911E+04  0.12223865911E+04  0.00000000000E+00 0.  1.
         25    1    1    2    0    0  0.44452298063E+02 -0.16108876934E+03 -0.66507040602E+03  0.69704321486E+03  0.12500000000E+03 0.  0.
         25    1    1    2    0    0 -0.26071245713E+02  0.61617087691E+02 -0.21919827953E+03  0.26105413442E+03  0.12500000000E+03 0.  0.
         25    1    1    2    0    0 -0.18381052350E+02  0.99471681647E+02 -0.27974177777E+03  0.32266536964E+03  0.12500000000E+03 0.  0.
</event>
<event>
 5    0  0.5817406E-005  0.2888203E+03  0.7546771E-02  0.1090967E+00
         21   -1    0    0  502  501  0.00000000000E+00  0.00000000000E+00  0.43676686509E+03  0.43676686509E+03  0.00000000000E+00 0. -1.
         21   -1    0    0  501  502 -0.00000000000E+00 -0.00000000000E+00 -0.19098778774E+03  0.19098778774E+03  0.00000000000E+00 0. -1.
         25    1    1    2    0    0 -0.13348478989E+02  0.57911819264E+02 -0.15598294524E+02  0.13928484302E+03  0.12500000000E+03 0.  0.
         25    1    1    2    0    0  0.98192391576E+02 -0.12375308836E+03  0.25307353288E+03  0.32346218586E+03  0.12500000000E+03 0.  0.
         25    1    1    2    0    0 -0.84843912587E+02  0.65841269096E+02  0.83038390045E+01  0.16500762395E+03  0.12500000000E+03 0.  0.
</event>
<event>
 5    0  0.5619558E-005  0.5307890E+03  0.7546771E-02  0.1006041E+00
         21   -1    0    0  502  501  0.00000000000E+00  0.00000000000E+00  0.94880733285E+03  0.94880733285E+03  0.00000000000E+00 0.  1.
         21   -1    0    0  501  502 -0.00000000000E+00 -0.00000000000E+00 -0.29693795830E+03  0.29693795830E+03  0.00000000000E+00 0.  1.
         25    1    1    2    0    0 -0.40768046756E+02 -0.14755626029E+03 -0.15587027244E+03  0.25170503654E+03  0.12500000000E+03 0.  0.
         25    1    1    2    0    0 -0.91739482642E+02  0.28752434999E+03  0.60539941145E+03  0.68790975564E+03  0.12500000000E+03 0.  0.
         25    1    1    2    0    0  0.13250752940E+03 -0.13996808970E+03  0.20234023555E+03  0.30613049898E+03  0.12500000000E+03 0.  0.
</event>
<event>
 5    0  0.7611764E-005  0.4347547E+03  0.7546771E-02  0.1032368E+00
         21   -1    0    0  502  501  0.00000000000E+00  0.00000000000E+00  0.32513927413E+03  0.32513927413E+03  0.00000000000E+00 0. -1.
         21   -1    0    0  501  502 -0.00000000000E+00 -0.00000000000E+00 -0.58132525249E+03  0.58132525249E+03  0.00000000000E+00 0. -1.
         25    1    1    2    0    0  0.20290419391E+02 -0.21702256102E+03 -0.25396538336E+03  0.35725888240E+03  0.12500000000E+03 0.  0.
         25    1    1    2    0    0 -0.22831181400E+03  0.10295035795E+03  0.16462589336E+02  0.28039450326E+03  0.12500000000E+03 0.  0.
         25    1    1    2    0    0  0.20802139461E+03  0.11407220307E+03 -0.18683184336E+02  0.26881114096E+03  0.12500000000E+03 0.  0.
</event>
<event>
 5    0  0.5619558E-005  0.3135908E+03  0.7546771E-02  0.1078637E+00
         21   -1    0    0  502  501  0.00000000000E+00  0.00000000000E+00  0.88444669614E+02  0.88444669614E+02  0.00000000000E+00 0.  1.
         21   -1    0    0  501  502 -0.00000000000E+00 -0.00000000000E+00 -0.11118723201E+04  0.11118723201E+04  0.00000000000E+00 0.  1.
         25    1    1    2    0    0  0.32044381434E+02  0.17935111697E+03 -0.32051842897E+03  0.38929516932E+03  0.12500000000E+03 0.  0.
         25    1    1    2    0    0  0.59006334700E+02 -0.46461046797E+02 -0.10609322222E+03  0.18033620880E+03  0.12500000000E+03 0.  0.
         25    1    1    2    0    0 -0.91050716134E+02 -0.13289007017E+03 -0.59681599925E+03  0.63068561155E+03  0.12500000000E+03 0.  0.
</event>
<event>
 5    0  0.5619558E-005  0.3277883E+03  0.7546771E-02  0.1072120E+00
         21   -1    0    0  502  501  0.00000000000E+00  0.00000000000E+00  0.72708581533E+03  0.72708581533E+03  0.00000000000E+00 0. -1.
         21   -1    0    0  501  502 -0.00000000000E+00 -0.00000000000E+00 -0.14777509219E+03  0.14777509219E+03  0.00000000000E+00 0. -1.
         25    1    1    2    0    0  0.99819856046E+02  0.76273616768E+02  0.37609279643E+02  0.18116601831E+03  0.12500000000E+03 0.  0.
         25    1    1    2    0    0  0.30160918024E+02  0.56858922591E+02  0.41063138221E+03  0.43403427296E+03  0.12500000000E+03 0.  0.
         25    1    1    2    0    0 -0.12998077407E+03 -0.13313253936E+03  0.13107006128E+03  0.25966061625E+03  0.12500000000E+03 0.  0.
</event>
<event>
 5    0  0.5619558E-005  0.3861742E+03  0.7546771E-02  0.1048675E+00
         21   -1    0    0  502  501  0.00000000000E+00  0.00000000000E+00  0.96903812782E+03  0.96903812782E+03  0.00000000000E+00 0. -1.
         21   -1    0    0  501  502 -0.00000000000E+00 -0.00000000000E+00 -0.15389540223E+03  0.15389540223E+03  0.00000000000E+00 0. -1.
         25    1    1    2    0    0 -0.22977441961E+03  0.36955817570E+02  0.19544815263E+03  0.32861375006E+03  0.12500000000E+03 0.  0.
         25    1    1    2    0    0  0.74729720157E+02 -0.76180242827E+02  0.25388752100E+02  0.16630558982E+03  0.12500000000E+03 0.  0.
         25    1    1    2    0    0  0.15504469945E+03  0.39224425257E+02  0.59430582085E+03  0.62801419018E+03  0.12500000000E+03 0.  0.
</event>
<event>
 5    0  0.5619558E-005  0.4612548E+03  0.7546771E-02  0.1024418E+00
         21   -1    0    0  502  501  0.00000000000E+00  0.00000000000E+00  0.23158760737E+03  0.23158760737E+03  0.00000000000E+00 0. -1.
         21   -1    0    0  501  502 -0.00000000000E+00 -0.00000000000E+00 -0.91868468252E+03  0.91868468252E+03  0.00000000000E+00 0. -1.
         25    1    1    2    0    0  0.26401293260E+03  0.33712196320E+02 -0.37692938316E+02  0.29645420955E+03  0.12500000000E+03 0.  0.
         25    1    1    2    0    0  0.37189652867E+02 -0.15617959222E+03 -0.20105427105E+03  0.28604712062E+03  0.12500000000E+03 0.  0.
         25    1    1    2    0    0 -0.30120258546E+03  0.12246739590E+03 -0.44834986579E+03  0.56777095972E+03  0.12500000000E+03 0.  0.
</event>
<event>
 5    0  0.5619558E-005  0.2910433E+03  0.7546771E-02  0.1089806E+00
         21   -1    0    0  502  501  0.00000000000E+00  0.00000000000E+00  0.24161834966E+03  0.24161834966E+03  0.00000000000E+00 0. -1.
         21   -1    0    0  501  502 -0.00000000000E+00 -0.00000000000E+00 -0.35057862953E+03  0.35057862953E+03  0.00000000000E+00 0. -1.
         25    1    1    2    0    0  0.33576725997E+02 -0.14757421463E+03  0.20517697080E+02  0.19736139756E+03  0.12500000000E+03 0.  0.
         25    1    1    2    0    0 -0.10221786015E+03  0.30086293300E+02  0.81306191958E+01  0.16445298096E+03  0.12500000000E+03 0.  0.
         25    1    1    2    0    0  0.68641134155E+02  0.11748792133E+03 -0.13760859615E+03  0.23038260067E+03  0.12500000000E+03 0.  0.
</event>
<event>
 5    0  0.5619558E-005  0.3274365E+03  0.7546771E-02  0.1072277E+00
         21   -1    0    0  502  501  0.00000000000E+00  0.00000000000E+00  0.21215042334E+03  0.21215042334E+03  0.00000000000E+00 0.  1.
         21   -1    0    0  501  502 -0.00000000000E+00 -0.00000000000E+00 -0.50537088507E+03  0.50537088507E+03  0.00000000000E+00 0.  1.
         25    1    1    2    0    0 -0.23860374074E+02  0.23441967956E+03 -0.47379133353E+02  0.27090899929E+03  0.12500000000E+03 0.  0.
         25    1    1    2    0    0  0.80505528553E+02 -0.12697565320E+03 -0.15829758274E+03  0.25156923765E+03  0.12500000000E+03 0.  0.
         25    1    1    2    0    0 -0.56645154479E+02 -0.10744402636E+03 -0.87543745636E+02  0.19504307147E+03  0.12500000000E+03 0.  0.
</event>
<event>
 5    0  0.5619558E-005  0.2824096E+03  0.7546771E-02  0.1094380E+00
         21   -1    0    0  502  501  0.00000000000E+00  0.00000000000E+00  0.28630139230E+02  0.28630139230E+02  0.00000000000E+00 0.  1.
         21   -1    0    0  501  502 -0.00000000000E+00 -0.00000000000E+00 -0.27857066009E+04  0.27857066009E+04  0.00000000000E+00 0.  1.
         25    1    1    2    0    0 -0.66430238889E+02 -0.18934551208E+02 -0.17949720653E+04  0.18006446649E+04  0.12500000000E+03 0.  0.
         25    1    1    2    0    0  0.69432539064E+02  0.65173898677E+02 -0.72352695346E+03  0.74039500737E+03  0.12500000000E+03 0.  0.
         25    1    1    2    0    0 -0.30023001749E+01 -0.46239347468E+02 -0.23857744291E+03  0.27329706790E+03  0.12500000000E+03 0.  0.
</event>
<event>
 5    0  0.5619558E-005  0.3433049E+03  0.7546771E-02  0.1065397E+00
         21   -1    0    0  502  501  0.00000000000E+00  0.00000000000E+00  0.35459132449E+03  0.35459132449E+03  0.00000000000E+00 0. -1.
         21   -1    0    0  501  502 -0.00000000000E+00 -0.00000000000E+00 -0.33237779676E+03  0.33237779676E+03  0.00000000000E+00 0. -1.
         25    1    1    2    0    0 -0.19474191521E+03 -0.84072402684E+02  0.11621847928E+02  0.24648052617E+03  0.12500000000E+03 0.  0.
         25    1    1    2    0    0 -0.25229768384E+00  0.15404028463E+03  0.23439895324E+01  0.19839094543E+03  0.12500000000E+03 0.  0.
         25    1    1    2    0    0  0.19499421290E+03 -0.69967881942E+02  0.82476902676E+01  0.24209764964E+03  0.12500000000E+03 0.  0.
</event>
<event>
 5    0  0.5619558E-005  0.2471684E+03  0.7546771E-02  0.1115108E+00
         21   -1    0    0  502  501  0.00000000000E+00  0.00000000000E+00  0.10819883249E+03  0.10819883249E+03  0.00000000000E+00 0. -1.
         21   -1    0    0  501  502 -0.00000000000E+00 -0.00000000000E+00 -0.56462919826E+03  0.56462919826E+03  0.00000000000E+00 0. -1.
         25    1    1    2    0    0 -0.19353100754E+01 -0.12870131936E+02 -0.25265883609E+03  0.28218942782E+03  0.12500000000E+03 0.  0.
         25    1    1    2    0    0 -0.73715772505E+02 -0.46108180504E+02 -0.28419875811E+02  0.15489567059E+03  0.12500000000E+03 0.  0.
         25    1    1    2    0    0  0.75651082580E+02  0.58978312440E+02 -0.17535165387E+03  0.23574293234E+03  0.12500000000E+03 0.  0.
</event>
<event>
 5    0  0.5619558E-005  0.2987636E+03  0.7546771E-02  0.1085860E+00
         21   -1    0    0  502  501  0.00000000000E+00  0.00000000000E+00  0.12744225129E+03  0.12744225129E+03  0.00000000000E+00 0. -1.
         21   -1    0    0  501  502 -0.00000000000E+00 -0.00000000000E+00 -0.70039333550E+03  0.70039333550E+03  0.00000000000E+00 0. -1.
         25    1    1    2    0    0  0.85103877343E+02 -0.62281678754E+01 -0.31241224583E+03  0.34714243670E+03  0.12500000000E+03 0.  0.
         25    1    1    2    0    0  0.12434056803E+02 -0.39072140394E+02 -0.28509063445E+03  0.31397915182E+03  0.12500000000E+03 0.  0.
         25    1    1    2    0    0 -0.97537934145E+02  0.45300308270E+02  0.24551796072E+02  0.16671399826E+03  0.12500000000E+03 0.  0.
</event>
<event>
 5    0  0.5619558E-005  0.3164549E+03  0.7546771E-02  0.1077293E+00
         21   -1    0    0  502  501  0.00000000000E+00  0.00000000000E+00  0.22524652514E+03  0.22524652514E+03  0.00000000000E+00 0. -1.
         21   -1    0    0  501  502 -0.00000000000E+00 -0.00000000000E+00 -0.44459590174E+03  0.44459590174E+03  0.00000000000E+00 0. -1.
         25    1    1    2    0    0 -0.66990015219E+02  0.21672613076E+02 -0.16829977125E+03  0.22114967171E+03  0.12500000000E+03 0.  0.
         25    1    1    2    0    0  0.64574615100E+02  0.10606086817E+03  0.11032644825E+03  0.20788389514E+03  0.12500000000E+03 0.  0.
         25    1    1    2    0    0  0.24154001188E+01 -0.12773348125E+03 -0.16137605361E+03  0.24080886003E+03  0.12500000000E+03 0.  0.
</event>
<event>
 5    0  0.5619558E-005  0.2562223E+03  0.7546771E-02  0.1109434E+00
         21   -1    0    0  502  501  0.00000000000E+00  0.00000000000E+00  0.26715708480E+03  0.26715708480E+03  0.00000000000E+00 0. -1.
         21   -1    0    0  501  502 -0.00000000000E+00 -0.00000000000E+00 -0.24573505596E+03  0.24573505596E+03  0.00000000000E+00 0. -1.
         25    1    1    2    0    0  0.45787936740E+02 -0.99203262545E+02 -0.55755733596E+02  0.17513287607E+03  0.12500000000E+03 0.  0.
         25    1    1    2    0    0  0.97677722898E+01 -0.28367350093E+02  0.78663855621E+02  0.15070871942E+03  0.12500000000E+03 0.  0.
         25    1    1    2    0    0 -0.55555709030E+02  0.12757061264E+03 -0.14860931822E+01  0.18705054527E+03  0.12500000000E+03 0.  0.
</event>
<event>
 5    0  0.5619558E-005  0.3194711E+03  0.7546771E-02  0.1075893E+00
         21   -1    0    0  502  501  0.00000000000E+00  0.00000000000E+00  0.12545609912E+04  0.12545609912E+04  0.00000000000E+00 0.  1.
         21   -1    0    0  501  502 -0.00000000000E+00 -0.00000000000E+00 -0.81352589038E+02  0.81352589038E+02  0.00000000000E+00 0.  1.
         25    1    1    2    0    0  0.66443027813E+02  0.86769473893E+01  0.18462031035E+03  0.23280812777E+03  0.12500000000E+03 0.  0.
         25    1    1    2    0    0  0.17031297670E+03  0.17473381492E+02  0.53898186622E+03  0.57917033868E+03  0.12500000000E+03 0.  0.
         25    1    1    2    0    0 -0.23675600451E+03 -0.26150328881E+02  0.44960622560E+03  0.52393511380E+03  0.12500000000E+03 0.  0.
</event>
<event>
 5    0  0.5619558E-005  0.3888867E+03  0.7546771E-02  0.1047697E+00
         21   -1    0    0  502  501  0.00000000000E+00  0.00000000000E+00  0.12392829963E+03  0.12392829963E+03  0.00000000000E+00 0. -1.
         21   -1    0    0  501  502 -0.00000000000E+00 -0.00000000000E+00 -0.12203254679E+04  0.12203254679E+04  0.00000000000E+00 0. -1.
         25    1    1    2    0    0 -0.17198864151E+03  0.19536344397E+03 -0.25920638368E+03  0.38802051155E+03  0.12500000000E+03 0.  0.
         25    1    1    2    0    0  0.14495782172E+03 -0.20941044926E+03 -0.34077739809E+03  0.44341824656E+03  0.12500000000E+03 0.  0.
         25    1    1    2    0    0  0.27030819788E+02  0.14047005293E+02 -0.49641338655E+03  0.51281500945E+03  0.12500000000E+03 0.  0.
</event>
<event>
 5    0  0.5619558E-005  0.3820370E+03  0.7546771E-02  0.1050183E+00
         21   -1    0    0  502  501  0.00000000000E+00  0.00000000000E+00  0.89500780029E+02  0.89500780029E+02  0.00000000000E+00 0.  1.
         21   -1    0    0  501  502 -0.00000000000E+00 -0.00000000000E+00 -0.16307371715E+04  0.16307371715E+04  0.00000000000E+00 0.  1.
         25    1    1    2    0    0  0.77855371707E+02  0.10413904383E+03 -0.91463132691E+03  0.93224560258E+03  0.12500000000E+03 0.  0.
         25    1    1    2    0    0 -0.66283587023E+02  0.13312372640E+03 -0.16910465079E+03  0.25755935890E+03  0.12500000000E+03 0.  0.
         25    1    1    2    0    0 -0.11571784684E+02 -0.23726277022E+03 -0.45750041375E+03  0.53043299004E+03  0.12500000000E+03 0.  0.
</event>
<event>
 5    0  0.5619558E-005  0.4966184E+03  0.7546771E-02  0.1014665E+00
         21   -1    0    0  502  501  0.00000000000E+00  0.00000000000E+00  0.19412512257E+03  0.19412512257E+03  0.00000000000E+00 0. -1.
         21   -1    0    0  501  502 -0.00000000000E+00 -0.00000000000E+00 -0.12704684040E+04  0.12704684040E+04  0.00000000000E+00 0. -1.
         25    1    1    2    0    0  0.80497623617E+02 -0.28505893801E+02 -0.68415767468E+02  0.16612697140E+03  0.12500000000E+03 0.  0.
         25    1    1    2    0    0  0.34447190960E+03 -0.23981727481E+02 -0.38239592475E+03  0.53017701103E+03  0.12500000000E+03 0.  0.
         25    1    1    2    0    0 -0.42496953321E+03  0.52487621281E+02 -0.62553158922E+03  0.76828954416E+03  0.12500000000E+03 0.  0.
</event>
<event>
 5    0  0.5619558E-005  0.4961987E+03  0.7546771E-02  0.1014776E+00
         21   -1    0    0  502  501  0.00000000000E+00  0.00000000000E+00  0.42199642491E+03  0.42199642491E+03  0.00000000000E+00 0.  1.
         21   -1    0    0  501  502 -0.00000000000E+00 -0.00000000000E+00 -0.58344836776E+03  0.58344836776E+03  0.00000000000E+00 0.  1.
         25    1    1    2    0    0 -0.17240700957E+03 -0.30312629149E+03 -0.22368211127E+03  0.43274520499E+03  0.12500000000E+03 0.  0.
         25    1    1    2    0    0 -0.44253944321E+02  0.17788000344E+03  0.16306220318E+03  0.27534340253E+03  0.12500000000E+03 0.  0.
         25    1    1    2    0    0  0.21666095389E+03  0.12524628805E+03 -0.10083203475E+03  0.29735618515E+03  0.12500000000E+03 0.  0.
</event>
<event>
 5    0  0.5619558E-005  0.2816780E+03  0.7546771E-02  0.1094776E+00
         21   -1    0    0  502  501  0.00000000000E+00  0.00000000000E+00  0.50917673354E+02  0.50917673354E+02  0.00000000000E+00 0.  1.
         21   -1    0    0  501  502 -0.00000000000E+00 -0.00000000000E+00 -0.15582510174E+04  0.15582510174E+04  0.00000000000E+00 0.  1.
         25    1    1    2    0    0  0.37214897123E+02 -0.30250407517E+02 -0.37057435692E+03  0.39401826066E+03  0.12500000000E+03 0.  0.
         25    1    1    2    0    0  0.91018997096E+02  0.37337706611E+02 -0.17359451190E+03  0.23545406501E+03  0.12500000000E+03 0.  0.
         25    1    1    2    0    0 -0.12823389422E+03 -0.70872990934E+01 -0.96316447526E+03  0.97969636513E+03  0.12500000000E+03 0.  0.
</event>
<event>
 5    0  0.5619558E-005  0.2956093E+03  0.7546771E-02  0.1087456E+00
         21   -1    0    0  502  501  0.00000000000E+00  0.00000000000E+00  0.30027781340E+04  0.30027781340E+04  0.00000000000E+00 0. -1.
         21   -1    0    0  501  502 -0.00000000000E+00 -0.00000000000E+00 -0.29101327920E+02  0.29101327920E+02  0.00000000000E+00 0. -1.
         25    1    1    2    0    0  0.19397130895E+03  0.50408906717E+02  0.12813863623E+04  0.13029742653E+04  0.12500000000E+03 0.  0.
         25    1    1    2    0    0 -0.18309655262E+03 -0.50641986599E+02  0.11528466545E+04  0.11750614312E+04  0.12500000000E+03 0.  0.
         25    1    1    2    0    0 -0.10874756332E+02  0.23307988141E+00  0.53944378928E+03  0.55384376537E+03  0.12500000000E+03 0.  0.
</event>
<event>
 5    0  0.5619558E-005  0.2776828E+03  0.7546771E-02  0.1096961E+00
         21   -1    0    0  502  501  0.00000000000E+00  0.00000000000E+00  0.12732459776E+04  0.12732459776E+04  0.00000000000E+00 0.  1.
         21   -1    0    0  501  502 -0.00000000000E+00 -0.00000000000E+00 -0.60559962867E+02  0.60559962867E+02  0.00000000000E+00 0.  1.
         25    1    1    2    0    0  0.22963936578E+02  0.93257788165E+02  0.22715243663E+03  0.27649156751E+03  0.12500000000E+03 0.  0.
         25    1    1    2    0    0  0.91130372294E+02 -0.65091526729E+02  0.24369936628E+03  0.29589868660E+03  0.12500000000E+03 0.  0.
         25    1    1    2    0    0 -0.11409430887E+03 -0.28166261436E+02  0.74183421178E+03  0.76141568632E+03  0.12500000000E+03 0.  0.
</event>
<event>
 5    0  0.5619558E-005  0.2759399E+03  0.7546771E-02  0.1097927E+00
         21   -1    0    0  502  501  0.00000000000E+00  0.00000000000E+00  0.51554120006E+02  0.51554120006E+02  0.00000000000E+00 0.  1.
         21   -1    0    0  501  502 -0.00000000000E+00 -0.00000000000E+00 -0.14769496036E+04  0.14769496036E+04  0.00000000000E+00 0.  1.
         25    1    1    2    0    0 -0.10454274922E+03 -0.69690748338E+02 -0.46919830179E+03  0.50155561328E+03  0.12500000000E+03 0.  0.
         25    1    1    2    0    0  0.13152655794E+01  0.14831417644E+03 -0.47091729047E+03  0.50930042148E+03  0.12500000000E+03 0.  0.
         25    1    1    2    0    0  0.10322748364E+03 -0.78623428105E+02 -0.48527989134E+03  0.51764768884E+03  0.12500000000E+03 0.  0.
</event>
<event>
 5    0  0.5619558E-005  0.2442488E+03  0.7546771E-02  0.1116994E+00
         21   -1    0    0  502  501  0.00000000000E+00  0.00000000000E+00  0.49110790143E+02  0.49110790143E+02  0.00000000000E+00 0.  1.
         21   -1    0    0  501  502 -0.00000000000E+00 -0.00000000000E+00 -0.12147525172E+04  0.12147525172E+04  0.00000000000E+00 0.  1.
         25    1    1    2    0    0  0.20836134739E+02  0.62787260958E+02 -0.29808781495E+03  0.32993594844E+03  0.12500000000E+03 0.  0.
         25    1    1    2    0    0  0.37004554270E+02 -0.10341267423E+03 -0.66585654058E+03  0.68633333801E+03  0.12500000000E+03 0.  0.
         25    1    1    2    0    0 -0.57840689009E+02  0.40625413269E+02 -0.20169737158E+03  0.24759402095E+03  0.12500000000E+03 0.  0.
</event>
<event>
 5    0  0.5619558E-005  0.4127643E+03  0.7546771E-02  0.1039447E+00
         21   -1    0    0  502  501  0.00000000000E+00  0.00000000000E+00  0.13110362578E+03  0.13110362578E+03  0.00000000000E+00 0.  1.
         21   -1    0    0  501  502 -0.00000000000E+00 -0.00000000000E+00 -0.12995398511E+04  0.12995398511E+04  0.00000000000E+00 0.  1.
         25    1    1    2    0    0  0.29428836951E+03 -0.20234395181E+02 -0.54861702251E+03  0.63531150829E+03  0.12500000000E+03 0.  0.
         25    1    1    2    0    0 -0.20096089114E+03  0.15294134551E+03 -0.44157840056E+03  0.52382517959E+03  0.12500000000E+03 0.  0.
         25    1    1    2    0    0 -0.93327478366E+02 -0.13270695033E+03 -0.17824080223E+03  0.27150678898E+03  0.12500000000E+03 0.  0.
</event>
<event>
 5    0  0.5619558E-005  0.3448561E+03  0.7546771E-02  0.1064746E+00
         21   -1    0    0  502  501  0.00000000000E+00  0.00000000000E+00  0.12544188994E+03  0.12544188994E+03  0.00000000000E+00 0. -1.
         21   -1    0    0  501  502 -0.00000000000E+00 -0.00000000000E+00 -0.94805411977E+03  0.94805411977E+03  0.00000000000E+00 0. -1.
         25    1    1    2    0    0 -0.19223721100E+03  0.19701203256E+03 -0.27833143935E+03  0.41092855389E+03  0.12500000000E+03 0.  0.
         25    1    1    2    0    0  0.12930240362E+03 -0.11902819699E+03 -0.27861032471E+03  0.35232873328E+03  0.12500000000E+03 0.  0.
         25    1    1    2    0    0  0.62934807382E+02 -0.77983835573E+02 -0.26567046576E+03  0.31023872255E+03  0.12500000000E+03 0.  0.
</event>
<event>
 5    0  0.5619558E-005  0.3472268E+03  0.7546771E-02  0.1063759E+00
         21   -1    0    0  502  501  0.00000000000E+00  0.00000000000E+00  0.98244968055E+03  0.98244968055E+03  0.00000000000E+00 0. -1.
         21   -1    0    0  501  502 -0.00000000000E+00 -0.00000000000E+00 -0.12272021448E+03  0.12272021448E+03  0.00000000000E+00 0. -1.
         25    1    1    2    0    0 -0.32548851096E+02  0.25603697937E+02  0.68530449775E+02  0.14844662206E+03  0.12500000000E+03 0.  0.
         25    1    1    2    0    0 -0.17700656129E+03  0.28735105989E+02  0.60998294633E+03  0.64796699288E+03  0.12500000000E+03 0.  0.
         25    1    1    2    0    0  0.20955541239E+03 -0.54338803925E+02  0.18121606997E+03  0.30875628008E+03  0.12500000000E+03 0.  0.
</event>
<event>
 5    0  0.5619558E-005  0.2542842E+03  0.7546771E-02  0.1110627E+00
         21   -1    0    0  502  501  0.00000000000E+00  0.00000000000E+00  0.16307035170E+03  0.16307035170E+03  0.00000000000E+00 0. -1.
         21   -1    0    0  501  502 -0.00000000000E+00 -0.00000000000E+00 -0.39651875909E+03  0.39651875909E+03  0.00000000000E+00 0. -1.
         25    1    1    2    0    0 -0.46304663697E+02  0.10295291771E+03 -0.16914039730E+03  0.23869834340E+03  0.12500000000E+03 0.  0.
         25    1    1    2    0    0  0.15793118116E+00 -0.28442034369E+02 -0.10179021078E+03  0.16369245942E+03  0.12500000000E+03 0.  0.
         25    1    1    2    0    0  0.46146732516E+02 -0.74510883336E+02  0.37482200700E+02  0.15719830796E+03  0.12500000000E+03 0.  0.
</event>
<event>
 5    0  0.5619558E-005  0.2851965E+03  0.7546771E-02  0.1092884E+00
         21   -1    0    0  502  501  0.00000000000E+00  0.00000000000E+00  0.14343939665E+04  0.14343939665E+04  0.00000000000E+00 0.  1.
         21   -1    0    0  501  502 -0.00000000000E+00 -0.00000000000E+00 -0.56704822265E+02  0.56704822265E+02  0.00000000000E+00 0.  1.
         25    1    1    2    0    0  0.85948524205E+02 -0.12767150799E+02  0.52070034819E+03  0.54249792770E+03  0.12500000000E+03 0.  0.
         25    1    1    2    0    0 -0.13237216900E+03 -0.96662693047E+02  0.63407458023E+03  0.66673955984E+03  0.12500000000E+03 0.  0.
         25    1    1    2    0    0  0.46423644795E+02  0.10942984385E+03  0.22291421581E+03  0.28186130123E+03  0.12500000000E+03 0.  0.
</event>
<event>
 5    0  0.5619558E-005  0.3092238E+03  0.7546771E-02  0.1080719E+00
         21   -1    0    0  502  501  0.00000000000E+00  0.00000000000E+00  0.16688698950E+04  0.16688698950E+04  0.00000000000E+00 0. -1.
         21   -1    0    0  501  502 -0.00000000000E+00 -0.00000000000E+00 -0.57295856368E+02  0.57295856368E+02  0.00000000000E+00 0. -1.
         25    1    1    2    0    0  0.61740610695E+02  0.54891160687E+02  0.20115439752E+03  0.25082470806E+03  0.12500000000E+03 0.  0.
         25    1    1    2    0    0  0.71013523081E+02  0.52019096838E+02  0.23020743201E+03  0.27635008349E+03  0.12500000000E+03 0.  0.
         25    1    1    2    0    0 -0.13275413378E+03 -0.10691025752E+03  0.11802122091E+04  0.11989909598E+04  0.12500000000E+03 0.  0.
</event>
<event>
 5    0  0.5619558E-005  0.4025115E+03  0.7546771E-02  0.1042914E+00
         21   -1    0    0  502  501  0.00000000000E+00  0.00000000000E+00  0.12809983563E+04  0.12809983563E+04  0.00000000000E+00 0. -1.
         21   -1    0    0  501  502 -0.00000000000E+00 -0.00000000000E+00 -0.12647594244E+03  0.12647594244E+03  0.00000000000E+00 0. -1.
         25    1    1    2    0    0  0.12246882238E+03  0.71828778650E+02  0.10613199992E+04  0.10780459761E+04  0.12500000000E+03 0.  0.
         25    1    1    2    0    0 -0.34704480489E+02 -0.91634995769E+02  0.70422015223E+02  0.17374013251E+03  0.12500000000E+03 0.  0.
         25    1    1    2    0    0 -0.87764341895E+02  0.19806217119E+02  0.22780399433E+02  0.15568819012E+03  0.12500000000E+03 0.  0.
</event>
<event>
 5    0  0.5619558E-005  0.3338552E+03  0.7546771E-02  0.1069444E+00
         21   -1    0    0  502  501  0.00000000000E+00  0.00000000000E+00  0.15266438066E+03  0.15266438066E+03  0.00000000000E+00 0. -1.
         21   -1    0    0  501  502 -0.00000000000E+00 -0.00000000000E+00 -0.73009376739E+03  0.73009376739E+03  0.00000000000E+00 0. -1.
         25    1    1    2    0    0  0.69796248526E+02 -0.12291411026E+02 -0.13126192350E+03  0.19462088185E+03  0.12500000000E+03 0.  0.
         25    1    1    2    0    0 -0.14481837760E+03 -0.96706255544E+02 -0.45804630670E+03  0.50572312725E+03  0.12500000000E+03 0.  0.
         25    1    1    2    0    0  0.75022129071E+02  0.10899766657E+03  0.11878843460E+02  0.18241413895E+03  0.12500000000E+03 0.  0.
</event>
<event>
 5    0  0.5619558E-005  0.2178306E+03  0.7546771E-02  0.1135511E+00
         21   -1    0    0  502  501  0.00000000000E+00  0.00000000000E+00  0.53466783327E+03  0.53466783327E+03  0.00000000000E+00 0.  1.
         21   -1    0    0  501  502 -0.00000000000E+00 -0.00000000000E+00 -0.88746995511E+02  0.88746995511E+02  0.00000000000E+00 0.  1.
         25    1    1    2    0    0  0.26768633029E+02 -0.20583595216E+02  0.11267734037E+03  0.17164331370E+03  0.12500000000E+03 0.  0.
         25    1    1    2    0    0 -0.65547252467E+02 -0.54410524545E+02  0.13563854228E+03  0.20317421500E+03  0.12500000000E+03 0.  0.
         25    1    1    2    0    0  0.38778619438E+02  0.74994119761E+02  0.19760495510E+03  0.24859730008E+03  0.12500000000E+03 0.  0.
</event>
<event>
 5    0  0.5619558E-005  0.2648133E+03  0.7546771E-02  0.1104285E+00
         21   -1    0    0  502  501  0.00000000000E+00  0.00000000000E+00  0.51150780145E+03  0.51150780145E+03  0.00000000000E+00 0. -1.
         21   -1    0    0  501  502 -0.00000000000E+00 -0.00000000000E+00 -0.13709680811E+03  0.13709680811E+03  0.00000000000E+00 0. -1.
         25    1    1    2    0    0  0.11824325536E+02  0.21329867627E+01  0.18764718197E+03  0.22578934698E+03  0.12500000000E+03 0.  0.
         25    1    1    2    0    0  0.14622894438E+01 -0.14284948133E+03  0.79764539455E+02  0.20590166187E+03  0.12500000000E+03 0.  0.
         25    1    1    2    0    0 -0.13286614980E+02  0.14071649457E+03  0.10699927192E+03  0.21691360071E+03  0.12500000000E+03 0.  0.
</event>
<event>
 5    0  0.5619558E-005  0.2517942E+03  0.7546771E-02  0.1112176E+00
         21   -1    0    0  502  501  0.00000000000E+00  0.00000000000E+00  0.21762066494E+03  0.21762066494E+03  0.00000000000E+00 0.  1.
         21   -1    0    0  501  502 -0.00000000000E+00 -0.00000000000E+00 -0.29133398902E+03  0.29133398902E+03  0.00000000000E+00 0.  1.
         25    1    1    2    0    0 -0.18025671136E+02 -0.73289709056E+02  0.11064558964E+03  0.18320412872E+03  0.12500000000E+03 0.  0.
         25    1    1    2    0    0 -0.81925056301E+01  0.92541752745E+01 -0.90170913053E+02  0.15462390006E+03  0.12500000000E+03 0.  0.
         25    1    1    2    0    0  0.26218176766E+02  0.64035533782E+02 -0.94188000665E+02  0.17112662519E+03  0.12500000000E+03 0.  0.
</event>
<event>
 5    0  0.5619558E-005  0.3163587E+03  0.7546771E-02  0.1077337E+00
         21   -1    0    0  502  501  0.00000000000E+00  0.00000000000E+00  0.47407167892E+03  0.47407167892E+03  0.00000000000E+00 0.  1.
         21   -1    0    0  501  502 -0.00000000000E+00 -0.00000000000E+00 -0.21111334568E+03  0.21111334568E+03  0.00000000000E+00 0.  1.
         25    1    1    2    0    0 -0.91956119787E+02 -0.36961263886E+02  0.10260277963E+03  0.18966916825E+03  0.12500000000E+03 0.  0.
         25    1    1    2    0    0  0.16058913415E+03  0.34777317700E+02  0.25216602089E+03  0.32590034355E+03  0.12500000000E+03 0.  0.
         25    1    1    2    0    0 -0.68633014363E+02  0.21839461852E+01 -0.91810467279E+02  0.16961551280E+03  0.12500000000E+03 0.  0.
</event>
<event>
 5    0  0.5619558E-005  0.2702358E+03  0.7546771E-02  0.1101145E+00
         21   -1    0    0  502  501  0.00000000000E+00  0.00000000000E+00  0.14319559792E+04  0.14319559792E+04  0.00000000000E+00 0.  1.
         21   -1    0    0  501  502 -0.00000000000E+00 -0.00000000000E+00 -0.50998348427E+02  0.50998348427E+02  0.00000000000E+00 0.  1.
         25    1    1    2    0    0 -0.20639538325E+02  0.43275154092E+01  0.19985200569E+03  0.23666546455E+03  0.12500000000E+03 0.  0.
         25    1    1    2    0    0 -0.12838613913E+03  0.22343781680E+02  0.76743667491E+03  0.78839475854E+03  0.12500000000E+03 0.  0.
         25    1    1    2    0    0  0.14902567746E+03 -0.26671297090E+02  0.41366895018E+03  0.45789410454E+03  0.12500000000E+03 0.  0.
</event>
<event>
 5    0  0.5619558E-005  0.4016797E+03  0.7546771E-02  0.1043200E+00
         21   -1    0    0  502  501  0.00000000000E+00  0.00000000000E+00  0.22178303811E+04  0.22178303811E+04  0.00000000000E+00 0.  1.
         21   -1    0    0  501  502 -0.00000000000E+00 -0.00000000000E+00 -0.72749739221E+02  0.72749739221E+02  0.00000000000E+00 0.  1.
         25    1    1    2    0    0  0.81789911008E+01 -0.63399764545E+02  0.11098000730E+04  0.11186454434E+04  0.12500000000E+03 0.  0.
         25    1    1    2    0    0  0.17181176492E+03  0.19930573165E+03  0.55462641900E+03  0.62648026456E+03  0.12500000000E+03 0.  0.
         25    1    1    2    0    0 -0.17999075602E+03 -0.13590596711E+03  0.48065414988E+03  0.54545441234E+03  0.12500000000E+03 0.  0.
</event>
<event>
 5    0  0.5619558E-005  0.2931398E+03  0.7546771E-02  0.1088721E+00
         21   -1    0    0  502  501  0.00000000000E+00  0.00000000000E+00  0.47631922775E+02  0.47631922775E+02  0.00000000000E+00 0.  1.
         21   -1    0    0  501  502 -0.00000000000E+00 -0.00000000000E+00 -0.18040616543E+04  0.18040616543E+04  0.00000000000E+00 0.  1.
         25    1    1    2    0    0 -0.67099497990E+02 -0.48783303782E+02 -0.37487138291E+03  0.40377680355E+03  0.12500000000E+03 0.  0.
         25    1    1    2    0    0  0.80629635327E+02 -0.10802291581E+03 -0.99900638806E+03  0.10157799229E+04  0.12500000000E+03 0.  0.
         25    1    1    2    0    0 -0.13530137337E+02  0.15680621960E+03 -0.38255196051E+03  0.43213685056E+03  0.12500000000E+03 0.  0.
</event>
<event>
 5    0  0.5619558E-005  0.3408606E+03  0.7546771E-02  0.1066430E+00
         21   -1    0    0  502  501  0.00000000000E+00  0.00000000000E+00  0.65673816166E+03  0.65673816166E+03  0.00000000000E+00 0.  1.
         21   -1    0    0  501  502 -0.00000000000E+00 -0.00000000000E+00 -0.17691368680E+03  0.17691368680E+03  0.00000000000E+00 0.  1.
         25    1    1    2    0    0  0.43657276246E+02  0.19852658686E+03  0.20491692703E+03  0.31453888542E+03  0.12500000000E+03 0.  0.
         25    1    1    2    0    0 -0.22558434974E+02  0.46611203704E+02  0.18432185364E+03  0.22865046037E+03  0.12500000000E+03 0.  0.
         25    1    1    2    0    0 -0.21098841272E+02 -0.24513779056E+03  0.90585694194E+02  0.29046250267E+03  0.12500000000E+03 0.  0.
</event>
<event>
 5    0  0.5619558E-005  0.4143373E+03  0.7546771E-02  0.1038925E+00
         21   -1    0    0  502  501  0.00000000000E+00  0.00000000000E+00  0.13368577752E+04  0.13368577752E+04  0.00000000000E+00 0. -1.
         21   -1    0    0  501  502 -0.00000000000E+00 -0.00000000000E+00 -0.12841709087E+03  0.12841709087E+03  0.00000000000E+00 0. -1.
         25    1    1    2    0    0 -0.22096289843E+03 -0.42550364575E+02  0.62911685729E+03  0.67974124204E+03  0.12500000000E+03 0.  0.
         25    1    1    2    0    0  0.21655089283E+02 -0.16608705969E+03  0.29549293568E+03  0.36193221648E+03  0.12500000000E+03 0.  0.
         25    1    1    2    0    0  0.19930780915E+03  0.20863742426E+03  0.28383089138E+03  0.42360140756E+03  0.12500000000E+03 0.  0.
</event>
<event>
 5    0  0.5619558E-005  0.3637570E+03  0.7546771E-02  0.1057106E+00
         21   -1    0    0  502  501  0.00000000000E+00  0.00000000000E+00  0.26864904406E+03  0.26864904406E+03  0.00000000000E+00 0.  1.
         21   -1    0    0  501  502 -0.00000000000E+00 -0.00000000000E+00 -0.49253526171E+03  0.49253526171E+03  0.00000000000E+00 0.  1.
         25    1    1    2    0    0 -0.83631038877E+02  0.16211892121E+03  0.89448847558E+02  0.23854306028E+03  0.12500000000E+03 0.  0.
         25    1    1    2    0    0  0.19828737890E+02 -0.16806984290E+03 -0.31891440142E+03  0.38206288275E+03  0.12500000000E+03 0.  0.
         25    1    1    2    0    0  0.63802300987E+02  0.59509216973E+01  0.55793362073E+01  0.14057836275E+03  0.12500000000E+03 0.  0.
</event>
<event>
 5    0  0.5619558E-005  0.4014806E+03  0.7546771E-02  0.1043268E+00
         21   -1    0    0  502  501  0.00000000000E+00  0.00000000000E+00  0.80430080145E+03  0.80430080145E+03  0.00000000000E+00 0.  1.
         21   -1    0    0  501  502 -0.00000000000E+00 -0.00000000000E+00 -0.20040598489E+03  0.20040598489E+03  0.00000000000E+00 0.  1.
         25    1    1    2    0    0 -0.14865347483E+03  0.21296618245E+03  0.97570343460E+02  0.30429824576E+03  0.12500000000E+03 0.  0.
         25    1    1    2    0    0  0.14725425497E+03 -0.22537199091E+03  0.17152006791E+03  0.34281260711E+03  0.12500000000E+03 0.  0.
         25    1    1    2    0    0  0.13992198555E+01  0.12405808457E+02  0.33480440520E+03  0.35759593348E+03  0.12500000000E+03 0.  0.
</event>
<event>
 5    0  0.5921042E-005  0.3218982E+03  0.7546771E-02  0.1074779E+00
         21   -1    0    0  502  501  0.00000000000E+00  0.00000000000E+00  0.72551791049E+02  0.72551791049E+02  0.00000000000E+00 0.  1.
         21   -1    0    0  501  502 -0.00000000000E+00 -0.00000000000E+00 -0.14281995030E+04  0.14281995030E+04  0.00000000000E+00 0.  1.
         25    1    1    2    0    0  0.10151165373E+03 -0.23558333759E+01 -0.12164126188E+03  0.20182111481E+03  0.12500000000E+03 0.  0.
         25    1    1    2    0    0  0.37584066304E+02  0.13606094200E+01 -0.94971083987E+03  0.95863970951E+03  0.12500000000E+03 0.  0.
         25    1    1    2    0    0 -0.13909572004E+03  0.99522395593E+00 -0.28429561025E+03  0.34029046976E+03  0.12500000000E+03 0.  0.
</event>
<event>
 5    0  0.5619558E-005  0.2699889E+03  0.7546771E-02  0.1101286E+00
         21   -1    0    0  502  501  0.00000000000E+00  0.00000000000E+00  0.23858329303E+03  0.23858329303E+03  0.00000000000E+00 0. -1.
         21   -1    0    0  501  502 -0.00000000000E+00 -0.00000000000E+00 -0.30552844840E+03  0.30552844840E+03  0.00000000000E+00 0. -1.
         25    1    1    2    0    0  0.64385641473E+02  0.12436878633E+03  0.64917956707E+02  0.19862640042E+03  0.12500000000E+03 0.  0.
         25    1    1    2    0    0 -0.33028665221E+02  0.12240715497E+02 -0.36740198337E+02  0.13496506961E+03  0.12500000000E+03 0.  0.
         25    1    1    2    0    0 -0.31356976252E+02 -0.13660950182E+03 -0.95122913739E+02  0.21052027139E+03  0.12500000000E+03 0.  0.
</event>
<event>
 5    0  0.5619558E-005  0.2966824E+03  0.7546771E-02  0.1086911E+00
         21   -1    0    0  502  501  0.00000000000E+00  0.00000000000E+00  0.88601690038E+02  0.88601690038E+02  0.00000000000E+00 0.  1.
         21   -1    0    0  501  502 -0.00000000000E+00 -0.00000000000E+00 -0.99343972179E+03  0.99343972179E+03  0.00000000000E+00 0.  1.
         25    1    1    2    0    0 -0.86086892663E+02 -0.81582427456E+02 -0.56308339890E+03  0.58885869245E+03  0.12500000000E+03 0.  0.
         25    1    1    2    0    0 -0.33338582579E+02  0.11702804337E+03 -0.13016574297E+03  0.21765832092E+03  0.12500000000E+03 0.  0.
         25    1    1    2    0    0  0.11942547524E+03 -0.35445615911E+02 -0.21158888987E+03  0.27552439845E+03  0.12500000000E+03 0.  0.
</event>
<event>
 5    0  0.5619558E-005  0.2238156E+03  0.7546771E-02  0.1131070E+00
         21   -1    0    0  502  501  0.00000000000E+00  0.00000000000E+00  0.44674093566E+03  0.44674093566E+03  0.00000000000E+00 0.  1.
         21   -1    0    0  501  502 -0.00000000000E+00 -0.00000000000E+00 -0.11213077203E+03  0.11213077203E+03  0.00000000000E+00 0.  1.
         25    1    1    2    0    0  0.11459096335E+02 -0.32937195492E+02  0.62763068674E+02  0.14415398893E+03  0.12500000000E+03 0.  0.
         25    1    1    2    0    0  0.73236378057E+02 -0.27890428942E+02  0.10136538412E+03  0.17900107317E+03  0.12500000000E+03 0.  0.
         25    1    1    2    0    0 -0.84695474392E+02  0.60827624434E+02  0.17048171084E+03  0.23571664559E+03  0.12500000000E+03 0.  0.
</event>
<event>
 5    0  0.5619558E-005  0.2725355E+03  0.7546771E-02  0.1099837E+00
         21   -1    0    0  502  501  0.00000000000E+00  0.00000000000E+00  0.27940322251E+03  0.27940322251E+03  0.00000000000E+00 0. -1.
         21   -1    0    0  501  502 -0.00000000000E+00 -0.00000000000E+00 -0.26583658359E+03  0.26583658359E+03  0.00000000000E+00 0.  1.
         25    1    1    2    0    0 -0.58136182851E+02 -0.12889659850E+03 -0.18055591785E+01  0.18873899678E+03  0.12500000000E+03 0.  0.
         25    1    1    2    0    0 -0.23598215683E+02  0.79628016509E+02 -0.82509692597E+02  0.17126104685E+03  0.12500000000E+03 0.  0.
         25    1    1    2    0    0  0.81734398534E+02  0.49268581987E+02  0.97881890694E+02  0.18523976247E+03  0.12500000000E+03 0.  0.
</event>
<event>
 5    0  0.5619558E-005  0.3147750E+03  0.7546771E-02  0.1078079E+00
         21   -1    0    0  502  501  0.00000000000E+00  0.00000000000E+00  0.13083952356E+04  0.13083952356E+04  0.00000000000E+00 0. -1.
         21   -1    0    0  501  502 -0.00000000000E+00 -0.00000000000E+00 -0.75728889883E+02  0.75728889883E+02  0.00000000000E+00 0. -1.
         25    1    1    2    0    0 -0.24510711771E+02 -0.18281328282E+02  0.47188383990E+03  0.48911587616E+03  0.12500000000E+03 0.  0.
         25    1    1    2    0    0 -0.14327099671E+03  0.11897245869E+03  0.26243252262E+03  0.34522000717E+03  0.12500000000E+03 0.  0.
         25    1    1    2    0    0  0.16778170848E+03 -0.10069113041E+03  0.49834998316E+03  0.54978824210E+03  0.12500000000E+03 0.  0.
</event>
<event>
 5    0  0.5619558E-005  0.2611308E+03  0.7546771E-02  0.1106466E+00
         21   -1    0    0  502  501  0.00000000000E+00  0.00000000000E+00  0.15452024007E+03  0.15452024007E+03  0.00000000000E+00 0. -1.
         21   -1    0    0  501  502 -0.00000000000E+00 -0.00000000000E+00 -0.44129696602E+03  0.44129696602E+03  0.00000000000E+00 0. -1.
         25    1    1    2    0    0 -0.72028891917E+02 -0.10828349994E+03 -0.94135758205E+02  0.20346994521E+03  0.12500000000E+03 0.  0.
         25    1    1    2    0    0  0.12559358379E+03  0.20928231256E+02 -0.81302577413E+02  0.19607867872E+03  0.12500000000E+03 0.  0.
         25    1    1    2    0    0 -0.53564691877E+02  0.87355268679E+02 -0.11133839033E+03  0.19626858216E+03  0.12500000000E+03 0.  0.
</event>
<event>
 5    0  0.5619558E-005  0.2208610E+03  0.7546771E-02  0.1133243E+00
         21   -1    0    0  502  501  0.00000000000E+00  0.00000000000E+00  0.38634753376E+02  0.38634753376E+02  0.00000000000E+00 0.  1.
         21   -1    0    0  501  502 -0.00000000000E+00 -0.00000000000E+00 -0.12625825793E+04  0.12625825793E+04  0.00000000000E+00 0.  1.
         25    1    1    2    0    0 -0.26629335242E+02 -0.72612901474E+02 -0.52930691995E+03  0.54933830238E+03  0.12500000000E+03 0.  0.
         25    1    1    2    0    0  0.20835231946E+01  0.16394409882E+02 -0.18736449225E+03  0.22583970134E+03  0.12500000000E+03 0.  0.
         25    1    1    2    0    0  0.24545812048E+02  0.56218491592E+02 -0.50727641368E+03  0.52603932891E+03  0.12500000000E+03 0.  0.
</event>
<event>
 5    0  0.7092484E-005  0.4656268E+03  0.7546771E-02  0.1023162E+00
         21   -1    0    0  502  501  0.00000000000E+00  0.00000000000E+00  0.84792829352E+03  0.84792829352E+03  0.00000000000E+00 0. -1.
         21   -1    0    0  501  502 -0.00000000000E+00 -0.00000000000E+00 -0.25569177016E+03  0.25569177016E+03  0.00000000000E+00 0. -1.
         25    1    1    2    0    0  0.58476041049E+02  0.16526148908E+03  0.56843597154E+03  0.60784476710E+03  0.12500000000E+03 0.  0.
         25    1    1    2    0    0 -0.96886469714E+02 -0.23159023765E+03  0.13548989599E+03  0.31145391008E+03  0.12500000000E+03 0.  0.
         25    1    1    2    0    0  0.38410428665E+02  0.66328748572E+02 -0.11168934418E+03  0.18432138650E+03  0.12500000000E+03 0.  0.
</event>
<event>
 5    0  0.5619558E-005  0.2086257E+03  0.7546771E-02  0.1142659E+00
         21   -1    0    0  502  501  0.00000000000E+00  0.00000000000E+00  0.38106970139E+03  0.38106970139E+03  0.00000000000E+00 0.  1.
         21   -1    0    0  501  502 -0.00000000000E+00 -0.00000000000E+00 -0.11421714192E+03  0.11421714192E+03  0.00000000000E+00 0.  1.
         25    1    1    2    0    0  0.12819123554E+02  0.68463640869E+02  0.86878429825E+02  0.16740508242E+03  0.12500000000E+03 0.  0.
         25    1    1    2    0    0  0.26969141926E+02 -0.34482052171E+02  0.12344992603E+03  0.18105587749E+03  0.12500000000E+03 0.  0.
         25    1    1    2    0    0 -0.39788265480E+02 -0.33981588697E+02  0.56524203614E+02  0.14682588339E+03  0.12500000000E+03 0.  0.
</event>
<event>
 5    0  0.5619558E-005  0.2932516E+03  0.7546771E-02  0.1088664E+00
         21   -1    0    0  502  501  0.00000000000E+00  0.00000000000E+00  0.13669024415E+04  0.13669024415E+04  0.00000000000E+00 0.  1.
         21   -1    0    0  501  502 -0.00000000000E+00 -0.00000000000E+00 -0.62913412229E+02  0.62913412229E+02  0.00000000000E+00 0.  1.
         25    1    1    2    0    0 -0.67808440345E+02  0.87796861198E+02  0.61588030412E+03  0.63815344740E+03  0.12500000000E+03 0.  0.
         25    1    1    2    0    0  0.10196010893E+03 -0.93619411505E+02  0.61522967152E+03  0.64287868742E+03  0.12500000000E+03 0.  0.
         25    1    1    2    0    0 -0.34151668581E+02  0.58225503069E+01  0.72879053655E+02  0.14878371894E+03  0.12500000000E+03 0.  0.
</event>
<event>
 5    0  0.5932933E-005  0.2963337E+03  0.7546771E-02  0.1087088E+00
         21   -1    0    0  502  501  0.00000000000E+00  0.00000000000E+00  0.42912150013E+03  0.42912150013E+03  0.00000000000E+00 0. -1.
         21   -1    0    0  501  502 -0.00000000000E+00 -0.00000000000E+00 -0.20463587932E+03  0.20463587932E+03  0.00000000000E+00 0. -1.
         25    1    1    2    0    0 -0.58109172150E+02 -0.10305246855E+03  0.23323306383E+01  0.17212474235E+03  0.12500000000E+03 0.  0.
         25    1    1    2    0    0  0.15796022149E+03  0.12529704356E+03  0.17017612711E+03  0.29195152840E+03  0.12500000000E+03 0.  0.
         25    1    1    2    0    0 -0.99851049335E+02 -0.22244575008E+02  0.51977163070E+02  0.16968110871E+03  0.12500000000E+03 0.  0.
</event>
<event>
 5    0  0.5619558E-005  0.3148691E+03  0.7546771E-02  0.1078035E+00
         21   -1    0    0  502  501  0.00000000000E+00  0.00000000000E+00  0.76080428224E+02  0.76080428224E+02  0.00000000000E+00 0. -1.
         21   -1    0    0  501  502 -0.00000000000E+00 -0.00000000000E+00 -0.13031282793E+04  0.13031282793E+04  0.00000000000E+00 0. -1.
         25    1    1    2    0    0 -0.10342353535E+02  0.36613876377E+02 -0.11461578071E+03  0.17380827773E+03  0.12500000000E+03 0.  0.
         25    1    1    2    0    0 -0.11153533233E+03  0.13886868070E+02 -0.93987769515E+03  0.95479215398E+03  0.12500000000E+03 0.  0.
         25    1    1    2    0    0  0.12187768587E+03 -0.50500744447E+02 -0.17255437523E+03  0.25060827583E+03  0.12500000000E+03 0.  0.
</event>
<event>
 5    0  0.5619558E-005  0.3468467E+03  0.7546771E-02  0.1063917E+00
         21   -1    0    0  502  501  0.00000000000E+00  0.00000000000E+00  0.76473611319E+03  0.76473611319E+03  0.00000000000E+00 0. -1.
         21   -1    0    0  501  502 -0.00000000000E+00 -0.00000000000E+00 -0.15731263414E+03  0.15731263414E+03  0.00000000000E+00 0. -1.
         25    1    1    2    0    0 -0.62997810693E+02 -0.18182322546E+03  0.54057123134E+03  0.58725689917E+03  0.12500000000E+03 0.  0.
         25    1    1    2    0    0  0.63057448598E+02  0.11413851825E+03  0.66951969509E+02  0.19264321788E+03  0.12500000000E+03 0.  0.
         25    1    1    2    0    0 -0.59637904574E-01  0.67684707212E+02 -0.99721797978E-01  0.14214863028E+03  0.12500000000E+03 0.  0.
</event>
<event>
 5    0  0.5619558E-005  0.3861057E+03  0.7546771E-02  0.1048700E+00
         21   -1    0    0  502  501  0.00000000000E+00  0.00000000000E+00  0.44543211470E+02  0.44543211470E+02  0.00000000000E+00 0. -1.
         21   -1    0    0  501  502 -0.00000000000E+00 -0.00000000000E+00 -0.33468086593E+04  0.33468086593E+04  0.00000000000E+00 0. -1.
         25    1    1    2    0    0 -0.18087811852E+03  0.61072181300E+02 -0.50449722231E+03  0.55370493262E+03  0.12500000000E+03 0.  0.
         25    1    1    2    0    0  0.25254139129E+02 -0.78682688319E+02 -0.33795761207E+03  0.36968782038E+03  0.12500000000E+03 0.  0.
         25    1    1    2    0    0  0.15562397939E+03  0.17610507019E+02 -0.24598106135E+04  0.24679591178E+04  0.12500000000E+03 0.  0.
</event>
<event>
 5    0  0.5619558E-005  0.2772755E+03  0.7546771E-02  0.1097186E+00
         21   -1    0    0  502  501  0.00000000000E+00  0.00000000000E+00  0.88481664478E+03  0.88481664478E+03  0.00000000000E+00 0. -1.
         21   -1    0    0  501  502 -0.00000000000E+00 -0.00000000000E+00 -0.86890006797E+02  0.86890006797E+02  0.00000000000E+00 0. -1.
         25    1    1    2    0    0 -0.47445893785E+02 -0.12448142233E+03  0.32496872693E+03  0.37279540076E+03  0.12500000000E+03 0.  0.
         25    1    1    2    0    0 -0.87574115404E+02  0.15096067636E+02  0.19885869639E+03  0.25113123676E+03  0.12500000000E+03 0.  0.
         25    1    1    2    0    0  0.13502000919E+03  0.10938535469E+03  0.27409921466E+03  0.34778001406E+03  0.12500000000E+03 0.  0.
</event>
<event>
 5    0  0.5619558E-005  0.2767415E+03  0.7546771E-02  0.1097482E+00
         21   -1    0    0  502  501  0.00000000000E+00  0.00000000000E+00  0.11872793266E+03  0.11872793266E+03  0.00000000000E+00 0. -1.
         21   -1    0    0  501  502 -0.00000000000E+00 -0.00000000000E+00 -0.64505348056E+03  0.64505348056E+03  0.00000000000E+00 0. -1.
         25    1    1    2    0    0  0.27293459933E+02 -0.24669944213E+02 -0.71396112662E+02  0.14857975638E+03  0.12500000000E+03 0.  0.
         25    1    1    2    0    0  0.14792027356E+03  0.40166804056E+02 -0.20152132272E+03  0.28236434440E+03  0.12500000000E+03 0.  0.
         25    1    1    2    0    0 -0.17521373349E+03 -0.15496859843E+02 -0.25340811252E+03  0.33283731245E+03  0.12500000000E+03 0.  0.
</event>
<event>
 5    0  0.5619558E-005  0.5212606E+03  0.7546771E-02  0.1008374E+00
         21   -1    0    0  502  501  0.00000000000E+00  0.00000000000E+00  0.98765927261E+02  0.98765927261E+02  0.00000000000E+00 0. -1.
         21   -1    0    0  501  502 -0.00000000000E+00 -0.00000000000E+00 -0.27510767807E+04  0.27510767807E+04  0.00000000000E+00 0. -1.
         25    1    1    2    0    0 -0.21083521906E+03 -0.12729462687E+03 -0.14567382176E+04  0.14826889918E+04  0.12500000000E+03 0.  0.
         25    1    1    2    0    0 -0.11813454745E+03  0.23356657864E+03 -0.44168077835E+03  0.52840895897E+03  0.12500000000E+03 0.  0.
         25    1    1    2    0    0  0.32896976651E+03 -0.10627195178E+03 -0.75389185752E+03  0.83874475727E+03  0.12500000000E+03 0.  0.
</event>
<event>
 5    0  0.5619558E-005  0.5996680E+03  0.7546771E-02  0.9906095E-01
         21   -1    0    0  502  501  0.00000000000E+00  0.00000000000E+00  0.49317359957E+03  0.49317359957E+03  0.00000000000E+00 0. -1.
         21   -1    0    0  501  502 -0.00000000000E+00 -0.00000000000E+00 -0.72915845416E+03  0.72915845416E+03  0.00000000000E+00 0. -1.
         25    1    1    2    0    0  0.28961683738E+03 -0.28356565640E+03 -0.42592457795E+03  0.60110243726E+03  0.12500000000E+03 0.  0.
         25    1    1    2    0    0 -0.32729875503E+03  0.11758919521E+03  0.17672898180E+03  0.40964597750E+03  0.12500000000E+03 0.  0.
         25    1    1    2    0    0  0.37681917650E+02  0.16597646119E+03  0.13210741554E+02  0.21158363897E+03  0.12500000000E+03 0.  0.
</event>
<event>
 5    0  0.5619558E-005  0.2470066E+03  0.7546771E-02  0.1115211E+00
         21   -1    0    0  502  501  0.00000000000E+00  0.00000000000E+00  0.11215252539E+03  0.11215252539E+03  0.00000000000E+00 0. -1.
         21   -1    0    0  501  502 -0.00000000000E+00 -0.00000000000E+00 -0.54401148570E+03  0.54401148570E+03  0.00000000000E+00 0. -1.
         25    1    1    2    0    0  0.29605400428E+02  0.75781423228E+01 -0.31688530200E+03  0.34201637768E+03  0.12500000000E+03 0.  0.
         25    1    1    2    0    0  0.31044128684E+02 -0.61450576233E+02 -0.66561171967E+02  0.15746523698E+03  0.12500000000E+03 0.  0.
         25    1    1    2    0    0 -0.60649529112E+02  0.53872433910E+02 -0.48412486342E+02  0.15668239643E+03  0.12500000000E+03 0.  0.
</event>
<event>
 5    0  0.5619558E-005  0.2694056E+03  0.7546771E-02  0.1101620E+00
         21   -1    0    0  502  501  0.00000000000E+00  0.00000000000E+00  0.40654781882E+03  0.40654781882E+03  0.00000000000E+00 0.  1.
         21   -1    0    0  501  502 -0.00000000000E+00 -0.00000000000E+00 -0.17852603875E+03  0.17852603875E+03  0.00000000000E+00 0.  1.
         25    1    1    2    0    0 -0.21077575804E+02 -0.75654342482E+02  0.12435287563E+03  0.19301938093E+03  0.12500000000E+03 0.  0.
         25    1    1    2    0    0 -0.10398462370E+03  0.68362923408E+02 -0.17991087741E+02  0.17729909899E+03  0.12500000000E+03 0.  0.
         25    1    1    2    0    0  0.12506219950E+03  0.72914190731E+01  0.12165999218E+03  0.21475537766E+03  0.12500000000E+03 0.  0.
</event>
<event>
 5    0  0.5619558E-005  0.3182751E+03  0.7546771E-02  0.1076446E+00
         21   -1    0    0  502  501  0.00000000000E+00  0.00000000000E+00  0.31650354755E+03  0.31650354755E+03  0.00000000000E+00 0. -1.
         21   -1    0    0  501  502 -0.00000000000E+00 -0.00000000000E+00 -0.32005648416E+03  0.32005648416E+03  0.00000000000E+00 0. -1.
         25    1    1    2    0    0  0.14426861574E+03  0.15508880281E+02 -0.17449671603E+03  0.25909083882E+03  0.12500000000E+03 0.  0.
         25    1    1    2    0    0 -0.57342271225E+02 -0.23450075608E+02 -0.11176507755E+02  0.13995698068E+03  0.12500000000E+03 0.  0.
         25    1    1    2    0    0 -0.86926344516E+02  0.79411953266E+01  0.18212028717E+03  0.23751221222E+03  0.12500000000E+03 0.  0.
</event>
<event>
 5    0  0.5619558E-005  0.4572245E+03  0.7546771E-02  0.1025589E+00
         21   -1    0    0  502  501  0.00000000000E+00  0.00000000000E+00  0.22334609699E+03  0.22334609699E+03  0.00000000000E+00 0.  1.
         21   -1    0    0  501  502 -0.00000000000E+00 -0.00000000000E+00 -0.93601045356E+03  0.93601045356E+03  0.00000000000E+00 0.  1.
         25    1    1    2    0    0  0.12864041090E+03  0.84243934246E+02 -0.17336174506E+03  0.26329582302E+03  0.12500000000E+03 0.  0.
         25    1    1    2    0    0  0.93045484281E+02 -0.31534067004E+03 -0.16716775220E+03  0.38944480700E+03  0.12500000000E+03 0.  0.
         25    1    1    2    0    0 -0.22168589518E+03  0.23109673579E+03 -0.37213485931E+03  0.50661592052E+03  0.12500000000E+03 0.  0.
</event>
<event>
 5    0  0.5619558E-005  0.3183734E+03  0.7546771E-02  0.1076400E+00
         21   -1    0    0  502  501  0.00000000000E+00  0.00000000000E+00  0.38897141440E+03  0.38897141440E+03  0.00000000000E+00 0. -1.
         21   -1    0    0  501  502 -0.00000000000E+00 -0.00000000000E+00 -0.26058894466E+03  0.26058894466E+03  0.00000000000E+00 0. -1.
         25    1    1    2    0    0 -0.65934981315E+02  0.23117671835E+03  0.13432371676E+03  0.30242016757E+03  0.12500000000E+03 0.  0.
         25    1    1    2    0    0  0.30256170776E+02 -0.12294374310E+03 -0.47766449664E+01  0.17798431441E+03  0.12500000000E+03 0.  0.
         25    1    1    2    0    0  0.35678810539E+02 -0.10823297525E+03 -0.11646020436E+01  0.16915587708E+03  0.12500000000E+03 0.  0.
</event>
<event>
 5    0  0.5619558E-005  0.2433436E+03  0.7546771E-02  0.1117585E+00
         21   -1    0    0  502  501  0.00000000000E+00  0.00000000000E+00  0.39881912008E+02  0.39881912008E+02  0.00000000000E+00 0.  1.
         21   -1    0    0  501  502 -0.00000000000E+00 -0.00000000000E+00 -0.14847861650E+04  0.14847861650E+04  0.00000000000E+00 0.  1.
         25    1    1    2    0    0  0.60028219066E+02 -0.45639897458E+02 -0.45823309742E+03  0.48092510737E+03  0.12500000000E+03 0.  0.
         25    1    1    2    0    0  0.57382462251E+02  0.39804521825E+02 -0.65324224473E+03  0.66875075868E+03  0.12500000000E+03 0.  0.
         25    1    1    2    0    0 -0.11741068132E+03  0.58353756325E+01 -0.33342891081E+03  0.37499221093E+03  0.12500000000E+03 0.  0.
</event>
<event>
 5    0  0.5619558E-005  0.2729789E+03  0.7546771E-02  0.1099587E+00
         21   -1    0    0  502  501  0.00000000000E+00  0.00000000000E+00  0.24199614106E+03  0.24199614106E+03  0.00000000000E+00 0.  1.
         21   -1    0    0  501  502 -0.00000000000E+00 -0.00000000000E+00 -0.30792832234E+03  0.30792832234E+03  0.00000000000E+00 0.  1.
         25    1    1    2    0    0 -0.69686587376E+02  0.83509034090E+02 -0.67172464187E+02  0.17879350989E+03  0.12500000000E+03 0.  0.
         25    1    1    2    0    0  0.10004360318E+03 -0.87949839289E+02 -0.99199813892E+02  0.20786894873E+03  0.12500000000E+03 0.  0.
         25    1    1    2    0    0 -0.30357015808E+02  0.44408051985E+01  0.10044009679E+03  0.16326200478E+03  0.12500000000E+03 0.  0.
</event>
<event>
 5    0  0.5619558E-005  0.2860089E+03  0.7546771E-02  0.1092452E+00
         21   -1    0    0  502  501  0.00000000000E+00  0.00000000000E+00  0.12012924410E+03  0.12012924410E+03  0.00000000000E+00 0.  1.
         21   -1    0    0  501  502 -0.00000000000E+00 -0.00000000000E+00 -0.68094219780E+03  0.68094219780E+03  0.00000000000E+00 0.  1.
         25    1    1    2    0    0  0.44398588572E+01 -0.52281069062E+02 -0.26145367768E+03  0.29450984381E+03  0.12500000000E+03 0.  0.
         25    1    1    2    0    0 -0.93345771733E+02 -0.53183576138E+02 -0.27251847764E+03  0.31848586550E+03  0.12500000000E+03 0.  0.
         25    1    1    2    0    0  0.88905912876E+02  0.10546464520E+03 -0.26840798379E+02  0.18807573259E+03  0.12500000000E+03 0.  0.
</event>
<event>
 5    0  0.5619558E-005  0.3206909E+03  0.7546771E-02  0.1075332E+00
         21   -1    0    0  502  501  0.00000000000E+00  0.00000000000E+00  0.20089029594E+03  0.20089029594E+03  0.00000000000E+00 0.  1.
         21   -1    0    0  501  502 -0.00000000000E+00 -0.00000000000E+00 -0.51193444868E+03  0.51193444868E+03  0.00000000000E+00 0.  1.
         25    1    1    2    0    0  0.31432344274E+02  0.80967630150E+02 -0.27484047215E+03  0.31417516536E+03  0.12500000000E+03 0.  0.
         25    1    1    2    0    0 -0.80531161738E+02 -0.10765028925E+03  0.96999496531E+02  0.20762407162E+03  0.12500000000E+03 0.  0.
         25    1    1    2    0    0  0.49098817464E+02  0.26682659104E+02 -0.13320317712E+03  0.19102550764E+03  0.12500000000E+03 0.  0.
</event>
<event>
 5    0  0.5619558E-005  0.5737547E+03  0.7546771E-02  0.9961404E-01
         21   -1    0    0  502  501  0.00000000000E+00  0.00000000000E+00  0.26886066659E+03  0.26886066659E+03  0.00000000000E+00 0.  1.
         21   -1    0    0  501  502 -0.00000000000E+00 -0.00000000000E+00 -0.12244055244E+04  0.12244055244E+04  0.00000000000E+00 0.  1.
         25    1    1    2    0    0 -0.54158996229E+02 -0.26194965632E+02  0.13481540196E+03  0.19344137536E+03  0.12500000000E+03 0.  0.
         25    1    1    2    0    0 -0.61971451843E+02  0.18406049877E+03 -0.10355594013E+04  0.10610028283E+04  0.12500000000E+03 0.  0.
         25    1    1    2    0    0  0.11613044807E+03 -0.15786553314E+03 -0.54800858412E+02  0.23882198727E+03  0.12500000000E+03 0.  0.
</event>
<event>
 5    0  0.5619558E-005  0.2710414E+03  0.7546771E-02  0.1100685E+00
         21   -1    0    0  502  501  0.00000000000E+00  0.00000000000E+00  0.16126920116E+03  0.16126920116E+03  0.00000000000E+00 0. -1.
         21   -1    0    0  501  502 -0.00000000000E+00 -0.00000000000E+00 -0.45553305317E+03  0.45553305317E+03  0.00000000000E+00 0. -1.
         25    1    1    2    0    0 -0.14100798695E+03 -0.37819599910E+02 -0.36203022275E+02  0.19557411215E+03  0.12500000000E+03 0.  0.
         25    1    1    2    0    0  0.21575919897E+01 -0.38091560323E+02 -0.89539341340E+02  0.15842321742E+03  0.12500000000E+03 0.  0.
         25    1    1    2    0    0  0.13885039496E+03  0.75911160232E+02 -0.16852148840E+03  0.26280492476E+03  0.12500000000E+03 0.  0.
</event>
<event>
 5    0  0.5619558E-005  0.4171869E+03  0.7546771E-02  0.1037986E+00
         21   -1    0    0  502  501  0.00000000000E+00  0.00000000000E+00  0.49427937002E+03  0.49427937002E+03  0.00000000000E+00 0.  1.
         21   -1    0    0  501  502 -0.00000000000E+00 -0.00000000000E+00 -0.35211849470E+03  0.35211849470E+03  0.00000000000E+00 0.  1.
         25    1    1    2    0    0  0.94329399461E+01  0.15481199834E+03  0.27349467961E+02  0.20106896475E+03  0.12500000000E+03 0.  0.
         25    1    1    2    0    0 -0.11765017862E+03  0.13124585154E+03 -0.11315113291E+03  0.24391641387E+03  0.12500000000E+03 0.  0.
         25    1    1    2    0    0  0.10821723867E+03 -0.28605784989E+03  0.22796254027E+03  0.40141248609E+03  0.12500000000E+03 0.  0.
</event>
<event>
 5    0  0.5619558E-005  0.3017922E+03  0.7546771E-02  0.1084348E+00
         21   -1    0    0  502  501  0.00000000000E+00  0.00000000000E+00  0.42136898695E+03  0.42136898695E+03  0.00000000000E+00 0.  1.
         21   -1    0    0  501  502 -0.00000000000E+00 -0.00000000000E+00 -0.21614910062E+03  0.21614910062E+03  0.00000000000E+00 0.  1.
         25    1    1    2    0    0  0.10657470043E+03 -0.38814228610E+01  0.75380278235E+02  0.18077726229E+03  0.12500000000E+03 0.  0.
         25    1    1    2    0    0  0.30395935485E+02  0.11069837823E+03  0.16863796019E+03  0.23925259759E+03  0.12500000000E+03 0.  0.
         25    1    1    2    0    0 -0.13697063591E+03 -0.10681695537E+03 -0.38798352102E+02  0.21748822769E+03  0.12500000000E+03 0.  0.
</event>
<event>
 5    0  0.5619558E-005  0.2585331E+03  0.7546771E-02  0.1108028E+00
         21   -1    0    0  502  501  0.00000000000E+00  0.00000000000E+00  0.13355639682E+03  0.13355639682E+03  0.00000000000E+00 0. -1.
         21   -1    0    0  501  502 -0.00000000000E+00 -0.00000000000E+00 -0.50045788561E+03  0.50045788561E+03  0.00000000000E+00 0. -1.
         25    1    1    2    0    0  0.56131911179E+02  0.68632525727E+01  0.26665652569E+02  0.13976391779E+03  0.12500000000E+03 0.  0.
         25    1    1    2    0    0  0.31450141504E+02 -0.48683478990E+02 -0.14894617628E+03  0.20290183823E+03  0.12500000000E+03 0.  0.
         25    1    1    2    0    0 -0.87582052683E+02  0.41820226417E+02 -0.24462096508E+03  0.29134852642E+03  0.12500000000E+03 0.  0.
</event>
<event>
 5    0  0.5619558E-005  0.3669279E+03  0.7546771E-02  0.1055874E+00
         21   -1    0    0  502  501  0.00000000000E+00  0.00000000000E+00  0.34329677523E+03  0.34329677523E+03  0.00000000000E+00 0.  1.
         21   -1    0    0  501  502 -0.00000000000E+00 -0.00000000000E+00 -0.39218578884E+03  0.39218578884E+03  0.00000000000E+00 0.  1.
         25    1    1    2    0    0 -0.17289709931E+03  0.11646678234E+03 -0.19349596348E+03  0.31068248458E+03  0.12500000000E+03 0.  0.
         25    1    1    2    0    0  0.13939933851E+03  0.26425758643E+02  0.93905321303E+01  0.18932426783E+03  0.12500000000E+03 0.  0.
         25    1    1    2    0    0  0.33497760800E+02 -0.14289254099E+03  0.13521641775E+03  0.23547581166E+03  0.12500000000E+03 0.  0.
</event>
<event>
 5    0  0.5619558E-005  0.3046357E+03  0.7546771E-02  0.1082946E+00
         21   -1    0    0  502  501  0.00000000000E+00  0.00000000000E+00  0.23617677513E+04  0.23617677513E+04  0.00000000000E+00 0. -1.
         21   -1    0    0  501  502 -0.00000000000E+00 -0.00000000000E+00 -0.39293829451E+02  0.39293829451E+02  0.00000000000E+00 0. -1.
         25    1    1    2    0    0 -0.57856375836E+01  0.12791739512E+03  0.11861944157E+04  0.11996159908E+04  0.12500000000E+03 0.  0.
         25    1    1    2    0    0  0.19011560022E+02 -0.20576689520E+03  0.66354767316E+03  0.70613169390E+03  0.12500000000E+03 0.  0.
         25    1    1    2    0    0 -0.13225922438E+02  0.77849500074E+02  0.47273183297E+03  0.49531389602E+03  0.12500000000E+03 0.  0.
</event>
<event>
 5    0  0.5619558E-005  0.2950639E+03  0.7546771E-02  0.1087734E+00
         21   -1    0    0  502  501  0.00000000000E+00  0.00000000000E+00  0.80211038314E+02  0.80211038314E+02  0.00000000000E+00 0. -1.
         21   -1    0    0  501  502 -0.00000000000E+00 -0.00000000000E+00 -0.10854208440E+04  0.10854208440E+04  0.00000000000E+00 0. -1.
         25    1    1    2    0    0  0.54299519281E+02  0.11471006916E+03 -0.25998709306E+03  0.31515889059E+03  0.12500000000E+03 0.  0.
         25    1    1    2    0    0 -0.13540235276E+02 -0.19922155625E+03 -0.56362500184E+03  0.61087700001E+03  0.12500000000E+03 0.  0.
         25    1    1    2    0    0 -0.40759284005E+02  0.84511487099E+02 -0.18159771081E+03  0.23959599174E+03  0.12500000000E+03 0.  0.
</event>
<event>
 5    0  0.5619558E-005  0.3099900E+03  0.7546771E-02  0.1080351E+00
         21   -1    0    0  502  501  0.00000000000E+00  0.00000000000E+00  0.15602215779E+03  0.15602215779E+03  0.00000000000E+00 0. -1.
         21   -1    0    0  501  502 -0.00000000000E+00 -0.00000000000E+00 -0.61589857709E+03  0.61589857709E+03  0.00000000000E+00 0. -1.
         25    1    1    2    0    0 -0.43759171778E+02  0.26087963156E+02  0.64700974546E+02  0.14968855348E+03  0.12500000000E+03 0.  0.
         25    1    1    2    0    0  0.11757791595E+02  0.81311135056E+02 -0.15040238906E+03  0.21212172209E+03  0.12500000000E+03 0.  0.
         25    1    1    2    0    0  0.32001380183E+02 -0.10739909821E+03 -0.37417500479E+03  0.41011045931E+03  0.12500000000E+03 0.  0.
</event>
<event>
 5    0  0.6180632E-005  0.2690798E+03  0.7546771E-02  0.1101807E+00
         21   -1    0    0  502  501  0.00000000000E+00  0.00000000000E+00  0.60618405777E+03  0.60618405777E+03  0.00000000000E+00 0.  1.
         21   -1    0    0  501  502 -0.00000000000E+00 -0.00000000000E+00 -0.11944219747E+03  0.11944219747E+03  0.00000000000E+00 0.  1.
         25    1    1    2    0    0  0.10934092862E+03  0.10571097113E+03  0.33221845997E+03  0.38616622488E+03  0.12500000000E+03 0.  0.
         25    1    1    2    0    0 -0.33907240935E+02 -0.43524839956E+02  0.35721612227E+02  0.14122728582E+03  0.12500000000E+03 0.  0.
         25    1    1    2    0    0 -0.75433687690E+02 -0.62186131178E+02  0.11880178811E+03  0.19823274454E+03  0.12500000000E+03 0.  0.
</event>
<event>
 5    0  0.5619558E-005  0.3561294E+03  0.7546771E-02  0.1060127E+00
         21   -1    0    0  502  501  0.00000000000E+00  0.00000000000E+00  0.62183514868E+02  0.62183514868E+02  0.00000000000E+00 0. -1.
         21   -1    0    0  501  502 -0.00000000000E+00 -0.00000000000E+00 -0.20395781628E+04  0.20395781628E+04  0.00000000000E+00 0. -1.
         25    1    1    2    0    0  0.51934299124E+02  0.21316240377E+03 -0.72860552758E+03  0.77112022190E+03  0.12500000000E+03 0.  0.
         25    1    1    2    0    0 -0.58716308923E+02  0.65640918369E+02 -0.37669084070E+03  0.40654313986E+03  0.12500000000E+03 0.  0.
         25    1    1    2    0    0  0.67820097990E+01 -0.27880332214E+03 -0.87209827964E+03  0.92409831590E+03  0.12500000000E+03 0.  0.
</event>
<event>
 5    0  0.6777923E-005  0.8350369E+03  0.7546771E-02  0.9510643E-01
         21   -1    0    0  502  501  0.00000000000E+00  0.00000000000E+00  0.16189660464E+04  0.16189660464E+04  0.00000000000E+00 0.  1.
         21   -1    0    0  501  502 -0.00000000000E+00 -0.00000000000E+00 -0.43069873822E+03  0.43069873822E+03  0.00000000000E+00 0.  1.
         25    1    1    2    0    0  0.19038554894E+03 -0.53154143269E+03  0.23489695179E+03  0.62416706888E+03  0.12500000000E+03 0.  0.
         25    1    1    2    0    0 -0.12267933041E+03 -0.18037195104E+03  0.52619919551E+03  0.58317651889E+03  0.12500000000E+03 0.  0.
         25    1    1    2    0    0 -0.67706218534E+02  0.71191338372E+03  0.42717116085E+03  0.84232119682E+03  0.12500000000E+03 0.  0.
</event>
<event>
 5    0  0.5619558E-005  0.4108770E+03  0.7546771E-02  0.1040077E+00
         21   -1    0    0  502  501  0.00000000000E+00  0.00000000000E+00  0.85038355776E+03  0.85038355776E+03  0.00000000000E+00 0.  1.
         21   -1    0    0  501  502 -0.00000000000E+00 -0.00000000000E+00 -0.19852203735E+03  0.19852203735E+03  0.00000000000E+00 0.  1.
         25    1    1    2    0    0 -0.70910501892E+02  0.14308998405E+03  0.48746120699E+03  0.52796446011E+03  0.12500000000E+03 0.  0.
         25    1    1    2    0    0  0.79047254871E+02  0.12293696206E+03  0.11110614806E+03  0.22210704914E+03  0.12500000000E+03 0.  0.
         25    1    1    2    0    0 -0.81367529789E+01 -0.26602694611E+03  0.53294165363E+02  0.29883408585E+03  0.12500000000E+03 0.  0.
</event>
<event>
 5    0  0.5619558E-005  0.3107220E+03  0.7546771E-02  0.1080000E+00
         21   -1    0    0  502  501  0.00000000000E+00  0.00000000000E+00  0.37113287239E+03  0.37113287239E+03  0.00000000000E+00 0. -1.
         21   -1    0    0  501  502 -0.00000000000E+00 -0.00000000000E+00 -0.26014438632E+03  0.26014438632E+03  0.00000000000E+00 0. -1.
         25    1    1    2    0    0  0.65120393244E+02  0.15911469696E+03 -0.14845383894E+02  0.21308105929E+03  0.12500000000E+03 0.  0.
         25    1    1    2    0    0 -0.15983754826E+03 -0.91427628711E+02  0.10510325029E+03  0.24612750019E+03  0.12500000000E+03 0.  0.
         25    1    1    2    0    0  0.94717155019E+02 -0.67687068247E+02  0.20730619676E+02  0.17206869923E+03  0.12500000000E+03 0.  0.
</event>
<event>
 5    0  0.5619558E-005  0.2817602E+03  0.7546771E-02  0.1094731E+00
         21   -1    0    0  502  501  0.00000000000E+00  0.00000000000E+00  0.23268827672E+04  0.23268827672E+04  0.00000000000E+00 0.  1.
         21   -1    0    0  501  502 -0.00000000000E+00 -0.00000000000E+00 -0.34118090413E+02  0.34118090413E+02  0.00000000000E+00 0.  1.
         25    1    1    2    0    0 -0.33541113294E+02 -0.84419106636E+02  0.62248396659E+03  0.64137577169E+03  0.12500000000E+03 0.  0.
         25    1    1    2    0    0 -0.55756922571E+02  0.92748797653E+02  0.31605711006E+03  0.35669072135E+03  0.12500000000E+03 0.  0.
         25    1    1    2    0    0  0.89298035865E+02 -0.83296910162E+01  0.13542236002E+04  0.13629343646E+04  0.12500000000E+03 0.  0.
</event>
<event>
 5    0  0.5619558E-005  0.2206986E+03  0.7546771E-02  0.1133363E+00
         21   -1    0    0  502  501  0.00000000000E+00  0.00000000000E+00  0.58706654788E+02  0.58706654788E+02  0.00000000000E+00 0.  1.
         21   -1    0    0  501  502 -0.00000000000E+00 -0.00000000000E+00 -0.82968251289E+03  0.82968251289E+03  0.00000000000E+00 0.  1.
         25    1    1    2    0    0  0.69464974322E+02 -0.20248156465E+02 -0.14515288702E+03  0.20476750501E+03  0.12500000000E+03 0.  0.
         25    1    1    2    0    0 -0.33520084130E+02  0.32786566564E+02 -0.41141245308E+03  0.43253180407E+03  0.12500000000E+03 0.  0.
         25    1    1    2    0    0 -0.35944890192E+02 -0.12538410098E+02 -0.21441051801E+03  0.25108985860E+03  0.12500000000E+03 0.  0.
</event>
<event>
 5    0  0.5619558E-005  0.3642131E+03  0.7546771E-02  0.1056928E+00
         21   -1    0    0  502  501  0.00000000000E+00  0.00000000000E+00  0.12880379817E+03  0.12880379817E+03  0.00000000000E+00 0. -1.
         21   -1    0    0  501  502 -0.00000000000E+00 -0.00000000000E+00 -0.10298702115E+04  0.10298702115E+04  0.00000000000E+00 0. -1.
         25    1    1    2    0    0  0.13828858868E+03 -0.50966774947E+02 -0.25078837733E+03  0.31660883770E+03  0.12500000000E+03 0.  0.
         25    1    1    2    0    0 -0.16749748093E+03 -0.14606162319E+03 -0.50481484072E+03  0.56555497284E+03  0.12500000000E+03 0.  0.
         25    1    1    2    0    0  0.29208892252E+02  0.19702839814E+03 -0.14546319533E+03  0.27651019919E+03  0.12500000000E+03 0.  0.
</event>
<event>
 5    0  0.5619558E-005  0.2954572E+03  0.7546771E-02  0.1087534E+00
         21   -1    0    0  502  501  0.00000000000E+00  0.00000000000E+00  0.45060754052E+03  0.45060754052E+03  0.00000000000E+00 0. -1.
         21   -1    0    0  501  502 -0.00000000000E+00 -0.00000000000E+00 -0.19372722881E+03  0.19372722881E+03  0.00000000000E+00 0. -1.
         25    1    1    2    0    0 -0.53634486281E+02  0.12180024022E+03  0.48875934945E+02  0.18901273410E+03  0.12500000000E+03 0.  0.
         25    1    1    2    0    0  0.15519132081E+03 -0.10889139296E+03  0.18338618710E+03  0.29188555143E+03  0.12500000000E+03 0.  0.
         25    1    1    2    0    0 -0.10155683452E+03 -0.12908847252E+02  0.24618189668E+02  0.16343648380E+03  0.12500000000E+03 0.  0.
</event>
<event>
 5    0  0.5619558E-005  0.4763509E+03  0.7546771E-02  0.1020143E+00
         21   -1    0    0  502  501  0.00000000000E+00  0.00000000000E+00  0.37688476449E+03  0.37688476449E+03  0.00000000000E+00 0. -1.
         21   -1    0    0  501  502 -0.00000000000E+00 -0.00000000000E+00 -0.60206772939E+03  0.60206772939E+03  0.00000000000E+00 0. -1.
         25    1    1    2    0    0 -0.15407998392E+03  0.11354483606E+03 -0.28517083604E+03  0.36548663035E+03  0.12500000000E+03 0.  0.
         25    1    1    2    0    0  0.34357238355E+03 -0.89313220347E+02 -0.39776087934E+01  0.37637701237E+03  0.12500000000E+03 0.  0.
         25    1    1    2    0    0 -0.18949239963E+03 -0.24231615709E+02  0.63965479930E+02  0.23708885115E+03  0.12500000000E+03 0.  0.
</event>
<event>
 5    0  0.5619558E-005  0.2023784E+03  0.7546771E-02  0.1147748E+00
         21   -1    0    0  502  501  0.00000000000E+00  0.00000000000E+00  0.25087118959E+03  0.25087118959E+03  0.00000000000E+00 0. -1.
         21   -1    0    0  501  502 -0.00000000000E+00 -0.00000000000E+00 -0.16325907356E+03  0.16325907356E+03  0.00000000000E+00 0. -1.
         25    1    1    2    0    0 -0.85396913676E+01  0.54279946694E+02  0.29644491241E+02  0.13972485392E+03  0.12500000000E+03 0.  0.
         25    1    1    2    0    0  0.41981068872E+02 -0.19534453691E+02  0.17479259119E+02  0.13444154687E+03  0.12500000000E+03 0.  0.
         25    1    1    2    0    0 -0.33441377505E+02 -0.34745493003E+02  0.40488365661E+02  0.13996386236E+03  0.12500000000E+03 0.  0.
</event>
<event>
 5    0  0.5619558E-005  0.4268240E+03  0.7546771E-02  0.1034868E+00
         21   -1    0    0  502  501  0.00000000000E+00  0.00000000000E+00  0.28317840294E+03  0.28317840294E+03  0.00000000000E+00 0. -1.
         21   -1    0    0  501  502 -0.00000000000E+00 -0.00000000000E+00 -0.64333542185E+03  0.64333542185E+03  0.00000000000E+00 0. -1.
         25    1    1    2    0    0  0.13646511948E+03  0.25530378798E+03 -0.22504826543E+03  0.38739446920E+03  0.12500000000E+03 0.  0.
         25    1    1    2    0    0 -0.21704750416E+03 -0.19662775892E+03 -0.18912892637E+03  0.37036042638E+03  0.12500000000E+03 0.  0.
         25    1    1    2    0    0  0.80582384680E+02 -0.58676029062E+02  0.54020172887E+02  0.16875892920E+03  0.12500000000E+03 0.  0.
</event>
<event>
 5    0  0.5619558E-005  0.3805793E+03  0.7546771E-02  0.1050720E+00
         21   -1    0    0  502  501  0.00000000000E+00  0.00000000000E+00  0.23209125337E+04  0.23209125337E+04  0.00000000000E+00 0. -1.
         21   -1    0    0  501  502 -0.00000000000E+00 -0.00000000000E+00 -0.62406738078E+02  0.62406738078E+02  0.00000000000E+00 0. -1.
         25    1    1    2    0    0 -0.12009507728E+03 -0.99448893202E+02  0.28996490423E+03  0.35216126367E+03  0.12500000000E+03 0.  0.
         25    1    1    2    0    0 -0.58537573479E+02  0.19957692162E+03  0.12584663103E+04  0.12816473966E+04  0.12500000000E+03 0.  0.
         25    1    1    2    0    0  0.17863265076E+03 -0.10012802841E+03  0.71007458111E+03  0.74951061148E+03  0.12500000000E+03 0.  0.
</event>
<event>
 5    0  0.5916636E-005  0.2610724E+03  0.7546771E-02  0.1106501E+00
         21   -1    0    0  502  501  0.00000000000E+00  0.00000000000E+00  0.34555953572E+03  0.34555953572E+03  0.00000000000E+00 0. -1.
         21   -1    0    0  501  502 -0.00000000000E+00 -0.00000000000E+00 -0.19724181553E+03  0.19724181553E+03  0.00000000000E+00 0. -1.
         25    1    1    2    0    0  0.48045241856E+01  0.17870042864E+02  0.14259235314E+03  0.19052559161E+03  0.12500000000E+03 0.  0.
         25    1    1    2    0    0 -0.85617770464E+02 -0.13934137527E+02  0.94318713667E+02  0.17901279998E+03  0.12500000000E+03 0.  0.
         25    1    1    2    0    0  0.80813246279E+02 -0.39359053365E+01 -0.88593346619E+02  0.17326295966E+03  0.12500000000E+03 0.  0.
</event>
<event>
 5    0  0.5619558E-005  0.4357667E+03  0.7546771E-02  0.1032054E+00
         21   -1    0    0  502  501  0.00000000000E+00  0.00000000000E+00  0.72106700170E+03  0.72106700170E+03  0.00000000000E+00 0. -1.
         21   -1    0    0  501  502 -0.00000000000E+00 -0.00000000000E+00 -0.26334948890E+03  0.26334948890E+03  0.00000000000E+00 0. -1.
         25    1    1    2    0    0 -0.87193573743E+02  0.91330981966E+02  0.25447897185E+03  0.31036851433E+03  0.12500000000E+03 0.  0.
         25    1    1    2    0    0  0.20467213630E+03  0.13950764589E+03  0.26075955863E+03  0.38075400728E+03  0.12500000000E+03 0.  0.
         25    1    1    2    0    0 -0.11747856256E+03 -0.23083862786E+03 -0.57521017691E+02  0.29329396900E+03  0.12500000000E+03 0.  0.
</event>
<event>
 5    0  0.5619558E-005  0.4192586E+03  0.7546771E-02  0.1037308E+00
         21   -1    0    0  502  501  0.00000000000E+00  0.00000000000E+00  0.11532088762E+03  0.11532088762E+03  0.00000000000E+00 0. -1.
         21   -1    0    0  501  502 -0.00000000000E+00 -0.00000000000E+00 -0.15242495216E+04  0.15242495216E+04  0.00000000000E+00 0. -1.
         25    1    1    2    0    0 -0.23166319379E+03  0.22620643499E+03 -0.63138069948E+03  0.72048856637E+03  0.12500000000E+03 0.  0.
         25    1    1    2    0    0  0.24054366321E+03 -0.10214048412E+03 -0.33608738216E+03  0.44370447468E+03  0.12500000000E+03 0.  0.
         25    1    1    2    0    0 -0.88804694144E+01 -0.12406595087E+03 -0.44146055237E+03  0.47537736821E+03  0.12500000000E+03 0.  0.
</event>
<event>
 5    0  0.5619558E-005  0.3894729E+03  0.7546771E-02  0.1047487E+00
         21   -1    0    0  502  501  0.00000000000E+00  0.00000000000E+00  0.14980051323E+04  0.14980051323E+04  0.00000000000E+00 0.  1.
         21   -1    0    0  501  502 -0.00000000000E+00 -0.00000000000E+00 -0.10126074184E+03  0.10126074184E+03  0.00000000000E+00 0.  1.
         25    1    1    2    0    0  0.43487448786E+02  0.16968827775E+03  0.29173437098E+03  0.36251787959E+03  0.12500000000E+03 0.  0.
         25    1    1    2    0    0  0.13522728132E+03  0.98447577190E+02  0.38103956575E+03  0.43450488344E+03  0.12500000000E+03 0.  0.
         25    1    1    2    0    0 -0.17871473010E+03 -0.26813585494E+03  0.72397045369E+03  0.80224311108E+03  0.12500000000E+03 0.  0.
</event>
<event>
 5    0  0.5619558E-005  0.3797786E+03  0.7546771E-02  0.1051016E+00
         21   -1    0    0  502  501  0.00000000000E+00  0.00000000000E+00  0.23623522388E+04  0.23623522388E+04  0.00000000000E+00 0.  1.
         21   -1    0    0  501  502 -0.00000000000E+00 -0.00000000000E+00 -0.61054305207E+02  0.61054305207E+02  0.00000000000E+00 0.  1.
         25    1    1    2    0    0 -0.11811891917E+03  0.82904326340E+02  0.14956768870E+04  0.15078128387E+04  0.12500000000E+03 0.  0.
         25    1    1    2    0    0  0.20740357479E+03 -0.24081636562E+02  0.62802305295E+03  0.67352366186E+03  0.12500000000E+03 0.  0.
         25    1    1    2    0    0 -0.89284655624E+02 -0.58822689778E+02  0.17759799365E+03  0.24207004340E+03  0.12500000000E+03 0.  0.
</event>
<event>
 5    0  0.5619558E-005  0.4015604E+03  0.7546771E-02  0.1043241E+00
         21   -1    0    0  502  501  0.00000000000E+00  0.00000000000E+00  0.37131627275E+03  0.37131627275E+03  0.00000000000E+00 0. -1.
         21   -1    0    0  501  502 -0.00000000000E+00 -0.00000000000E+00 -0.43426795484E+03  0.43426795484E+03  0.00000000000E+00 0. -1.
         25    1    1    2    0    0  0.51783521151E+02  0.14307624265E+03  0.94773647595E+02  0.21853921514E+03  0.12500000000E+03 0.  0.
         25    1    1    2    0    0 -0.17194598488E+03  0.20412784074E+02 -0.25239185861E+03  0.33061874381E+03  0.12500000000E+03 0.  0.
         25    1    1    2    0    0  0.12016246373E+03 -0.16348902673E+03  0.94666528923E+02  0.25642626864E+03  0.12500000000E+03 0.  0.
</event>
<event>
 5    0  0.5619558E-005  0.3372817E+03  0.7546771E-02  0.1067960E+00
         21   -1    0    0  502  501  0.00000000000E+00  0.00000000000E+00  0.90088096477E+02  0.90088096477E+02  0.00000000000E+00 0. -1.
         21   -1    0    0  501  502 -0.00000000000E+00 -0.00000000000E+00 -0.12627523409E+04  0.12627523409E+04  0.00000000000E+00 0. -1.
         25    1    1    2    0    0 -0.16905018796E+03  0.10592457013E+03 -0.22925296004E+03  0.32860295235E+03  0.12500000000E+03 0.  0.
         25    1    1    2    0    0  0.19544360693E+03 -0.85760914245E+02 -0.76418499979E+03  0.80321656594E+03  0.12500000000E+03 0.  0.
         25    1    1    2    0    0 -0.26393418971E+02 -0.20163655889E+02 -0.17922628459E+03  0.22102091908E+03  0.12500000000E+03 0.  0.
</event>
<event>
 5    0  0.5619558E-005  0.9159127E+03  0.7546771E-02  0.9405905E-01
         21   -1    0    0  502  501  0.00000000000E+00  0.00000000000E+00  0.56246898935E+03  0.56246898935E+03  0.00000000000E+00 0.  1.
         21   -1    0    0  501  502 -0.00000000000E+00 -0.00000000000E+00 -0.14914531264E+04  0.14914531264E+04  0.00000000000E+00 0.  1.
         25    1    1    2    0    0  0.59201057789E+03  0.45602519452E+03 -0.39147673600E+03  0.85282737831E+03  0.12500000000E+03 0.  0.
         25    1    1    2    0    0 -0.10277223811E+03  0.19294236751E+03 -0.12345388063E+03  0.28045454311E+03  0.12500000000E+03 0.  0.
         25    1    1    2    0    0 -0.48923833978E+03 -0.64896756203E+03 -0.41405352045E+03  0.92064019436E+03  0.12500000000E+03 0.  0.
</event>
<event>
 5    0  0.6820570E-005  0.2621175E+03  0.7546771E-02  0.1105878E+00
         21   -1    0    0  502  501  0.00000000000E+00  0.00000000000E+00  0.70578901539E+03  0.70578901539E+03  0.00000000000E+00 0.  1.
         21   -1    0    0  501  502 -0.00000000000E+00 -0.00000000000E+00 -0.97345775923E+02  0.97345775923E+02  0.00000000000E+00 0.  1.
         25    1    1    2    0    0  0.26289890161E+02 -0.76223610167E+02  0.18116532789E+03  0.23440792030E+03  0.12500000000E+03 0.  0.
         25    1    1    2    0    0 -0.85776742775E+02  0.11787375913E+03  0.11304680093E+03  0.22283727671E+03  0.12500000000E+03 0.  0.
         25    1    1    2    0    0  0.59486852614E+02 -0.41650148964E+02  0.31423111066E+03  0.34588959430E+03  0.12500000000E+03 0.  0.
</event>
<event>
 5    0  0.5619558E-005  0.2127091E+03  0.7546771E-02  0.1139438E+00
         21   -1    0    0  502  501  0.00000000000E+00  0.00000000000E+00  0.17334996324E+03  0.17334996324E+03  0.00000000000E+00 0. -1.
         21   -1    0    0  501  502 -0.00000000000E+00 -0.00000000000E+00 -0.26100465836E+03  0.26100465836E+03  0.00000000000E+00 0. -1.
         25    1    1    2    0    0  0.33568775077E+02  0.70671849753E+02 -0.19387986584E+02  0.14873556075E+03  0.12500000000E+03 0.  0.
         25    1    1    2    0    0  0.15191864412E+02 -0.16192343802E+02 -0.35570074831E+01  0.12700644489E+03  0.12500000000E+03 0.  0.
         25    1    1    2    0    0 -0.48760639489E+02 -0.54479505950E+02 -0.64709701050E+02  0.15861261596E+03  0.12500000000E+03 0.  0.
</event>
<event>
 5    0  0.5619558E-005  0.2558028E+03  0.7546771E-02  0.1109692E+00
         21   -1    0    0  502  501  0.00000000000E+00  0.00000000000E+00  0.53114808485E+02  0.53114808485E+02  0.00000000000E+00 0.  1.
         21   -1    0    0  501  502 -0.00000000000E+00 -0.00000000000E+00 -0.12319557790E+04  0.12319557790E+04  0.00000000000E+00 0.  1.
         25    1    1    2    0    0  0.34564010094E+02 -0.17941154775E+02 -0.21646403238E+03  0.25297872073E+03  0.12500000000E+03 0.  0.
         25    1    1    2    0    0 -0.12563880816E+03  0.70663452685E+02 -0.67566493528E+03  0.70208727266E+03  0.12500000000E+03 0.  0.
         25    1    1    2    0    0  0.91074798069E+02 -0.52722297910E+02 -0.28671200283E+03  0.33000459407E+03  0.12500000000E+03 0.  0.
</event>
<event>
 5    0  0.5619558E-005  0.2765458E+03  0.7546771E-02  0.1097591E+00
         21   -1    0    0  502  501  0.00000000000E+00  0.00000000000E+00  0.62047972819E+02  0.62047972819E+02  0.00000000000E+00 0. -1.
         21   -1    0    0  501  502 -0.00000000000E+00 -0.00000000000E+00 -0.12325553969E+04  0.12325553969E+04  0.00000000000E+00 0. -1.
         25    1    1    2    0    0  0.44657172779E+02 -0.13107118427E+03 -0.26785030497E+03  0.32640879936E+03  0.12500000000E+03 0.  0.
         25    1    1    2    0    0 -0.60281731609E+02 -0.33235004935E+02 -0.39172976792E+03  0.41691205762E+03  0.12500000000E+03 0.  0.
         25    1    1    2    0    0  0.15624558830E+02  0.16430618921E+03 -0.51092735121E+03  0.55128251275E+03  0.12500000000E+03 0.  0.
</event>
<event>
 5    0  0.5619558E-005  0.3634931E+03  0.7546771E-02  0.1057209E+00
         21   -1    0    0  502  501  0.00000000000E+00  0.00000000000E+00  0.34066590221E+03  0.34066590221E+03  0.00000000000E+00 0.  1.
         21   -1    0    0  501  502 -0.00000000000E+00 -0.00000000000E+00 -0.38784980037E+03  0.38784980037E+03  0.00000000000E+00 0.  1.
         25    1    1    2    0    0 -0.18275851799E+03  0.78572828269E+02 -0.18348283077E+02  0.23566082562E+03  0.12500000000E+03 0.  0.
         25    1    1    2    0    0  0.20508268705E+02  0.90397431543E+02 -0.13585677274E+03  0.20657770309E+03  0.12500000000E+03 0.  0.
         25    1    1    2    0    0  0.16225024929E+03 -0.16897025981E+03  0.10702115765E+03  0.28627717387E+03  0.12500000000E+03 0.  0.
</event>
<event>
 5    0  0.5619558E-005  0.2430413E+03  0.7546771E-02  0.1117783E+00
         21   -1    0    0  502  501  0.00000000000E+00  0.00000000000E+00  0.11177917349E+03  0.11177917349E+03  0.00000000000E+00 0.  1.
         21   -1    0    0  501  502 -0.00000000000E+00 -0.00000000000E+00 -0.52844436483E+03  0.52844436483E+03  0.00000000000E+00 0.  1.
         25    1    1    2    0    0  0.95936533383E+01 -0.31359992109E+02 -0.19243358967E+03  0.23179985704E+03  0.12500000000E+03 0.  0.
         25    1    1    2    0    0 -0.95561545893E+02  0.22055414305E+02 -0.29832316324E+02  0.16165833554E+03  0.12500000000E+03 0.  0.
         25    1    1    2    0    0  0.85967892555E+02  0.93045778040E+01 -0.19439928534E+03  0.24676534574E+03  0.12500000000E+03 0.  0.
</event>
<event>
 5    0  0.5619558E-005  0.2456938E+03  0.7546771E-02  0.1116057E+00
         21   -1    0    0  502  501  0.00000000000E+00  0.00000000000E+00  0.32604157335E+03  0.32604157335E+03  0.00000000000E+00 0. -1.
         21   -1    0    0  501  502 -0.00000000000E+00 -0.00000000000E+00 -0.18514648388E+03  0.18514648388E+03  0.00000000000E+00 0. -1.
         25    1    1    2    0    0 -0.56901131475E+02  0.43198038955E+02  0.11699913520E+03  0.18551982905E+03  0.12500000000E+03 0.  0.
         25    1    1    2    0    0  0.31178820449E+02 -0.62993435049E+01  0.10817717193E+03  0.16834221425E+03  0.12500000000E+03 0.  0.
         25    1    1    2    0    0  0.25722311026E+02 -0.36898695450E+02 -0.84281217658E+02  0.15732601393E+03  0.12500000000E+03 0.  0.
</event>
<event>
 5    0  0.5619558E-005  0.2381788E+03  0.7546771E-02  0.1121012E+00
         21   -1    0    0  502  501  0.00000000000E+00  0.00000000000E+00  0.57444946471E+02  0.57444946471E+02  0.00000000000E+00 0.  1.
         21   -1    0    0  501  502 -0.00000000000E+00 -0.00000000000E+00 -0.98753944846E+03  0.98753944846E+03  0.00000000000E+00 0.  1.
         25    1    1    2    0    0  0.31285481763E+02 -0.10470926722E+03 -0.38265786608E+03  0.41712690453E+03  0.12500000000E+03 0.  0.
         25    1    1    2    0    0 -0.31810594003E+02  0.11520942485E+03 -0.24006115933E+03  0.29587072461E+03  0.12500000000E+03 0.  0.
         25    1    1    2    0    0  0.52511224054E+00 -0.10500157638E+02 -0.30737547658E+03  0.33198676579E+03  0.12500000000E+03 0.  0.
</event>
<event>
 5    0  0.5619558E-005  0.2355641E+03  0.7546771E-02  0.1122784E+00
         21   -1    0    0  502  501  0.00000000000E+00  0.00000000000E+00  0.22693069542E+03  0.22693069542E+03  0.00000000000E+00 0. -1.
         21   -1    0    0  501  502 -0.00000000000E+00 -0.00000000000E+00 -0.24452594383E+03  0.24452594383E+03  0.00000000000E+00 0. -1.
         25    1    1    2    0    0  0.77321900719E+02 -0.29948352975E+02 -0.49518269143E+02  0.15796404387E+03  0.12500000000E+03 0.  0.
         25    1    1    2    0    0 -0.55362678393E+02 -0.65841278202E+02  0.23405051004E+01  0.15175828820E+03  0.12500000000E+03 0.  0.
         25    1    1    2    0    0 -0.21959222327E+02  0.95789631178E+02  0.29582515637E+02  0.16173430718E+03  0.12500000000E+03 0.  0.
</event>
<event>
 5    0  0.5619558E-005  0.2741688E+03  0.7546771E-02  0.1098917E+00
         21   -1    0    0  502  501  0.00000000000E+00  0.00000000000E+00  0.11528087521E+03  0.11528087521E+03  0.00000000000E+00 0. -1.
         21   -1    0    0  501  502 -0.00000000000E+00 -0.00000000000E+00 -0.65204708119E+03  0.65204708119E+03  0.00000000000E+00 0. -1.
         25    1    1    2    0    0  0.71433714684E+02 -0.37841941040E+02 -0.11508040332E+03  0.18815761298E+03  0.12500000000E+03 0.  0.
         25    1    1    2    0    0 -0.74322909469E+02  0.12721916418E+03 -0.89066685872E+02  0.21275921870E+03  0.12500000000E+03 0.  0.
         25    1    1    2    0    0  0.28891947850E+01 -0.89377223143E+02 -0.33261911679E+03  0.36641112472E+03  0.12500000000E+03 0.  0.
</event>
<event>
 5    0  0.5619558E-005  0.3113669E+03  0.7546771E-02  0.1079693E+00
         21   -1    0    0  502  501  0.00000000000E+00  0.00000000000E+00  0.67416159156E+02  0.67416159156E+02  0.00000000000E+00 0.  1.
         21   -1    0    0  501  502 -0.00000000000E+00 -0.00000000000E+00 -0.14380731561E+04  0.14380731561E+04  0.00000000000E+00 0.  1.
         25    1    1    2    0    0  0.22448595105E+02 -0.73483638821E+01 -0.54820196455E+03  0.56276845311E+03  0.12500000000E+03 0.  0.
         25    1    1    2    0    0  0.17800620981E+03  0.33331068940E+02 -0.34160115699E+03  0.40634163132E+03  0.12500000000E+03 0.  0.
         25    1    1    2    0    0 -0.20045480492E+03 -0.25982705058E+02 -0.48085387543E+03  0.53637923085E+03  0.12500000000E+03 0.  0.
</event>
<event>
 5    0  0.5619558E-005  0.5646094E+03  0.7546771E-02  0.9981679E-01
         21   -1    0    0  502  501  0.00000000000E+00  0.00000000000E+00  0.87132936161E+03  0.87132936161E+03  0.00000000000E+00 0.  1.
         21   -1    0    0  501  502 -0.00000000000E+00 -0.00000000000E+00 -0.36585910413E+03  0.36585910413E+03  0.00000000000E+00 0.  1.
         25    1    1    2    0    0  0.33446024660E+03  0.31674759632E+03  0.10493269962E+03  0.48870089808E+03  0.12500000000E+03 0.  0.
         25    1    1    2    0    0 -0.24727262735E+03 -0.83508983276E+02  0.38924600237E+02  0.29198908718E+03  0.12500000000E+03 0.  0.
         25    1    1    2    0    0 -0.87187619249E+02 -0.23323861305E+03  0.36161295762E+03  0.45649848048E+03  0.12500000000E+03 0.  0.
</event>
<event>
 5    0  0.5619558E-005  0.3877077E+03  0.7546771E-02  0.1048121E+00
         21   -1    0    0  502  501  0.00000000000E+00  0.00000000000E+00  0.61786830592E+03  0.61786830592E+03  0.00000000000E+00 0. -1.
         21   -1    0    0  501  502 -0.00000000000E+00 -0.00000000000E+00 -0.24328360753E+03  0.24328360753E+03  0.00000000000E+00 0. -1.
         25    1    1    2    0    0  0.30376286699E+02  0.19064162590E+03  0.33962213890E+03  0.41016477853E+03  0.12500000000E+03 0.  0.
         25    1    1    2    0    0 -0.32481709575E+02  0.55823797010E+02 -0.67744874476E+02  0.15615929619E+03  0.12500000000E+03 0.  0.
         25    1    1    2    0    0  0.21054228756E+01 -0.24646542291E+03  0.10270743396E+03  0.29482783872E+03  0.12500000000E+03 0.  0.
</event>
<event>
 5    0  0.5619558E-005  0.3631430E+03  0.7546771E-02  0.1057346E+00
         21   -1    0    0  502  501  0.00000000000E+00  0.00000000000E+00  0.36646876372E+03  0.36646876372E+03  0.00000000000E+00 0.  1.
         21   -1    0    0  501  502 -0.00000000000E+00 -0.00000000000E+00 -0.35984738413E+03  0.35984738413E+03  0.00000000000E+00 0.  1.
         25    1    1    2    0    0  0.22580577792E+03  0.12171108625E+03 -0.10597313098E+03  0.30439635732E+03  0.12500000000E+03 0.  0.
         25    1    1    2    0    0 -0.20090569767E+03 -0.13148291630E+03  0.36472374204E+02  0.27314115529E+03  0.12500000000E+03 0.  0.
         25    1    1    2    0    0 -0.24900080255E+02  0.97718300423E+01  0.76122136365E+02  0.14877863524E+03  0.12500000000E+03 0.  0.
</event>
<event>
 5    0  0.5619558E-005  0.3951420E+03  0.7546771E-02  0.1045475E+00
         21   -1    0    0  502  501  0.00000000000E+00  0.00000000000E+00  0.33056849353E+03  0.33056849353E+03  0.00000000000E+00 0.  1.
         21   -1    0    0  501  502 -0.00000000000E+00 -0.00000000000E+00 -0.47232936640E+03  0.47232936640E+03  0.00000000000E+00 0.  1.
         25    1    1    2    0    0 -0.15373742805E+01 -0.36116417549E+02  0.13841754893E+03  0.18997678013E+03  0.12500000000E+03 0.  0.
         25    1    1    2    0    0  0.27739464281E+01  0.22262506047E+03 -0.29224063623E+03  0.38807112981E+03  0.12500000000E+03 0.  0.
         25    1    1    2    0    0 -0.12365721476E+01 -0.18650864292E+03  0.12062214433E+02  0.22484994999E+03  0.12500000000E+03 0.  0.
</event>
<event>
 5    0  0.5619558E-005  0.3001827E+03  0.7546771E-02  0.1085149E+00
         21   -1    0    0  502  501  0.00000000000E+00  0.00000000000E+00  0.45434898360E+03  0.45434898360E+03  0.00000000000E+00 0.  1.
         21   -1    0    0  501  502 -0.00000000000E+00 -0.00000000000E+00 -0.19832696800E+03  0.19832696800E+03  0.00000000000E+00 0.  1.
         25    1    1    2    0    0 -0.10016162683E+02 -0.12539903228E+02  0.15632548489E+03  0.20079897887E+03  0.12500000000E+03 0.  0.
         25    1    1    2    0    0 -0.23880985452E+02 -0.97262754206E+02 -0.10071601923E+03  0.18920639881E+03  0.12500000000E+03 0.  0.
         25    1    1    2    0    0  0.33897148135E+02  0.10980265743E+03  0.20041254994E+03  0.26267057392E+03  0.12500000000E+03 0.  0.
</event>
<event>
 5    0  0.5619558E-005  0.2928610E+03  0.7546771E-02  0.1088865E+00
         21   -1    0    0  502  501  0.00000000000E+00  0.00000000000E+00  0.10131165957E+04  0.10131165957E+04  0.00000000000E+00 0. -1.
         21   -1    0    0  501  502 -0.00000000000E+00 -0.00000000000E+00 -0.84657131989E+02  0.84657131989E+02  0.00000000000E+00 0. -1.
         25    1    1    2    0    0 -0.55267880811E+02  0.10616163258E+03  0.12522792588E+03  0.21361616114E+03  0.12500000000E+03 0.  0.
         25    1    1    2    0    0 -0.70492399133E+02 -0.78150247779E+02  0.22080197214E+03  0.27469100907E+03  0.12500000000E+03 0.  0.
         25    1    1    2    0    0  0.12576027994E+03 -0.28011384803E+02  0.58242956574E+03  0.60946655753E+03  0.12500000000E+03 0.  0.
</event>
<event>
 5    0  0.5972989E-005  0.3067639E+03  0.7546771E-02  0.1081907E+00
         21   -1    0    0  502  501  0.00000000000E+00  0.00000000000E+00  0.78472701788E+03  0.78472701788E+03  0.00000000000E+00 0.  1.
         21   -1    0    0  501  502 -0.00000000000E+00 -0.00000000000E+00 -0.11991953299E+03  0.11991953299E+03  0.00000000000E+00 0.  1.
         25    1    1    2    0    0  0.82424121019E+02 -0.30683664671E+02  0.21254292870E+03  0.26179136644E+03  0.12500000000E+03 0.  0.
         25    1    1    2    0    0 -0.19528336942E+03  0.59279442734E+02  0.39656368797E+03  0.46318182749E+03  0.12500000000E+03 0.  0.
         25    1    1    2    0    0  0.11285924840E+03 -0.28595778063E+02  0.55700868223E+02  0.17967335694E+03  0.12500000000E+03 0.  0.
</event>
<event>
 5    0  0.5619558E-005  0.2442409E+03  0.7546771E-02  0.1116999E+00
         21   -1    0    0  502  501  0.00000000000E+00  0.00000000000E+00  0.62652918812E+03  0.62652918812E+03  0.00000000000E+00 0.  1.
         21   -1    0    0  501  502 -0.00000000000E+00 -0.00000000000E+00 -0.95212867661E+02  0.95212867661E+02  0.00000000000E+00 0.  1.
         25    1    1    2    0    0  0.31679187611E+02 -0.71224696450E+02  0.42470948633E+02  0.15331441481E+03  0.12500000000E+03 0.  0.
         25    1    1    2    0    0 -0.42527931878E+02  0.79879367305E+01  0.14129367938E+03  0.19354931143E+03  0.12500000000E+03 0.  0.
         25    1    1    2    0    0  0.10848744267E+02  0.63236759720E+02  0.34755169245E+03  0.37487832953E+03  0.12500000000E+03 0.  0.
</event>
<event>
 5    0  0.5619558E-005  0.3640550E+03  0.7546771E-02  0.1056990E+00
         21   -1    0    0  502  501  0.00000000000E+00  0.00000000000E+00  0.38901434253E+03  0.38901434253E+03  0.00000000000E+00 0.  1.
         21   -1    0    0  501  502 -0.00000000000E+00 -0.00000000000E+00 -0.34069713272E+03  0.34069713272E+03  0.00000000000E+00 0.  1.
         25    1    1    2    0    0 -0.85564129800E+02 -0.12069080570E+03 -0.15253729443E+02  0.19428115490E+03  0.12500000000E+03 0.  0.
         25    1    1    2    0    0 -0.89100379474E+02  0.77627330965E+02  0.21035968498E+03  0.27173714726E+03  0.12500000000E+03 0.  0.
         25    1    1    2    0    0  0.17466450927E+03  0.43063474736E+02 -0.14678874573E+03  0.26369317308E+03  0.12500000000E+03 0.  0.
</event>
<event>
 5    0  0.5619558E-005  0.3037786E+03  0.7546771E-02  0.1083367E+00
         21   -1    0    0  502  501  0.00000000000E+00  0.00000000000E+00  0.32687915087E+02  0.32687915087E+02  0.00000000000E+00 0.  1.
         21   -1    0    0  501  502 -0.00000000000E+00 -0.00000000000E+00 -0.28231059136E+04  0.28231059136E+04  0.00000000000E+00 0.  1.
         25    1    1    2    0    0  0.43511569800E+02  0.40174874701E+02 -0.29366784161E+03  0.32461219703E+03  0.12500000000E+03 0.  0.
         25    1    1    2    0    0 -0.14012106819E+03  0.19822572926E+02 -0.65435247952E+03  0.68104993621E+03  0.12500000000E+03 0.  0.
         25    1    1    2    0    0  0.96609498390E+02 -0.59997447627E+02 -0.18423976774E+04  0.18501316955E+04  0.12500000000E+03 0.  0.
</event>
<event>
 5    0  0.5619558E-005  0.4442428E+03  0.7546771E-02  0.1029453E+00
         21   -1    0    0  502  501  0.00000000000E+00  0.00000000000E+00  0.15802192358E+04  0.15802192358E+04  0.00000000000E+00 0.  1.
         21   -1    0    0  501  502 -0.00000000000E+00 -0.00000000000E+00 -0.12488879899E+03  0.12488879899E+03  0.00000000000E+00 0.  1.
         25    1    1    2    0    0  0.93653577457E+01 -0.16902482923E+02  0.11194358034E+03  0.16890757542E+03  0.12500000000E+03 0.  0.
         25    1    1    2    0    0  0.28785209089E+03  0.13487009736E+03  0.97274124697E+03  0.10309700786E+04  0.12500000000E+03 0.  0.
         25    1    1    2    0    0 -0.29721744863E+03 -0.11796761444E+03  0.37064560950E+03  0.50523038079E+03  0.12500000000E+03 0.  0.
</event>
<event>
 5    0  0.5619558E-005  0.2607087E+03  0.7546771E-02  0.1106718E+00
         21   -1    0    0  502  501  0.00000000000E+00  0.00000000000E+00  0.55270054893E+03  0.55270054893E+03  0.00000000000E+00 0. -1.
         21   -1    0    0  501  502 -0.00000000000E+00 -0.00000000000E+00 -0.12297620479E+03  0.12297620479E+03  0.00000000000E+00 0. -1.
         25    1    1    2    0    0 -0.66506785582E+02 -0.87710003517E+02  0.17332581860E+03  0.24038102387E+03  0.12500000000E+03 0.  0.
         25    1    1    2    0    0 -0.48193651869E+02  0.98148216717E+02  0.62500530161E+02  0.17744581369E+03  0.12500000000E+03 0.  0.
         25    1    1    2    0    0  0.11470043745E+03 -0.10438213200E+02  0.19389799539E+03  0.25784991616E+03  0.12500000000E+03 0.  0.
</event>
<event>
 5    0  0.5619558E-005  0.6021759E+03  0.7546771E-02  0.9900902E-01
         21   -1    0    0  502  501  0.00000000000E+00  0.00000000000E+00  0.18694297525E+03  0.18694297525E+03  0.00000000000E+00 0.  1.
         21   -1    0    0  501  502 -0.00000000000E+00 -0.00000000000E+00 -0.19397137166E+04  0.19397137166E+04  0.00000000000E+00 0.  1.
         25    1    1    2    0    0  0.14339194760E+03  0.21775258129E+03 -0.73194652670E+03  0.78698675672E+03  0.12500000000E+03 0.  0.
         25    1    1    2    0    0 -0.24650701606E+03  0.12132772925E+02 -0.10216161581E+04  0.10584127208E+04  0.12500000000E+03 0.  0.
         25    1    1    2    0    0  0.10311506847E+03 -0.22988535422E+03  0.79194343878E+00  0.28125721431E+03  0.12500000000E+03 0.  0.
</event>
<event>
 5    0  0.5619558E-005  0.3410239E+03  0.7546771E-02  0.1066361E+00
         21   -1    0    0  502  501  0.00000000000E+00  0.00000000000E+00  0.39548443093E+02  0.39548443093E+02  0.00000000000E+00 0.  1.
         21   -1    0    0  501  502 -0.00000000000E+00 -0.00000000000E+00 -0.29406285721E+04  0.29406285721E+04  0.00000000000E+00 0.  1.
         25    1    1    2    0    0  0.52759664564E+02 -0.27535313841E+02 -0.55120621820E+03  0.56832655287E+03  0.12500000000E+03 0.  0.
         25    1    1    2    0    0  0.86933317318E+02 -0.12892213302E+03 -0.17895639837E+04  0.18006505963E+04  0.12500000000E+03 0.  0.
         25    1    1    2    0    0 -0.13969298188E+03  0.15645744686E+03 -0.56030992707E+03  0.61119986603E+03  0.12500000000E+03 0.  0.
</event>
<event>
 5    0  0.5619558E-005  0.3514489E+03  0.7546771E-02  0.1062022E+00
         21   -1    0    0  502  501  0.00000000000E+00  0.00000000000E+00  0.24796886545E+03  0.24796886545E+03  0.00000000000E+00 0.  1.
         21   -1    0    0  501  502 -0.00000000000E+00 -0.00000000000E+00 -0.49811227345E+03  0.49811227345E+03  0.00000000000E+00 0.  1.
         25    1    1    2    0    0  0.18137105886E+02  0.26043064038E+03  0.11568287880E+02  0.28967550526E+03  0.12500000000E+03 0.  0.
         25    1    1    2    0    0  0.35318385506E+02 -0.14024714193E+03 -0.15324855336E+03  0.24500360871E+03  0.12500000000E+03 0.  0.
         25    1    1    2    0    0 -0.53455491392E+02 -0.12018349845E+03 -0.10846314252E+03  0.21140202493E+03  0.12500000000E+03 0.  0.
</event>
<event>
 5    0  0.5619558E-005  0.2162079E+03  0.7546771E-02  0.1136742E+00
         21   -1    0    0  502  501  0.00000000000E+00  0.00000000000E+00  0.27903801961E+03  0.27903801961E+03  0.00000000000E+00 0. -1.
         21   -1    0    0  501  502 -0.00000000000E+00 -0.00000000000E+00 -0.16752501935E+03  0.16752501935E+03  0.00000000000E+00 0. -1.
         25    1    1    2    0    0  0.83386242907E+02 -0.14335427379E+02  0.46719787507E+02  0.15800793818E+03  0.12500000000E+03 0.  0.
         25    1    1    2    0    0  0.51243271992E+01  0.58323598283E+01  0.99071709282E+01  0.12563211049E+03  0.12500000000E+03 0.  0.
         25    1    1    2    0    0 -0.88510570106E+02  0.85030675508E+01  0.54886041819E+02  0.16292299029E+03  0.12500000000E+03 0.  0.
</event>
<event>
 5    0  0.5619558E-005  0.2435852E+03  0.7546771E-02  0.1117427E+00
         21   -1    0    0  502  501  0.00000000000E+00  0.00000000000E+00  0.43699401914E+02  0.43699401914E+02  0.00000000000E+00 0. -1.
         21   -1    0    0  501  502 -0.00000000000E+00 -0.00000000000E+00 -0.13577703889E+04  0.13577703889E+04  0.00000000000E+00 0. -1.
         25    1    1    2    0    0 -0.11019321664E+03  0.35622729445E+02 -0.47808142373E+03  0.50754149738E+03  0.12500000000E+03 0.  0.
         25    1    1    2    0    0  0.10006859018E+03 -0.18078341678E+02 -0.27418977606E+03  0.31803393290E+03  0.12500000000E+03 0.  0.
         25    1    1    2    0    0  0.10124626457E+02 -0.17544387767E+02 -0.56179978722E+03  0.57589436056E+03  0.12500000000E+03 0.  0.
</event>
<event>
 5    0  0.5619558E-005  0.3398534E+03  0.7546771E-02  0.1066858E+00
         21   -1    0    0  502  501  0.00000000000E+00  0.00000000000E+00  0.85005399949E+02  0.85005399949E+02  0.00000000000E+00 0. -1.
         21   -1    0    0  501  502 -0.00000000000E+00 -0.00000000000E+00 -0.13587407843E+04  0.13587407843E+04  0.00000000000E+00 0. -1.
         25    1    1    2    0    0 -0.73587821383E+02  0.40925441813E+02 -0.42313040517E+03  0.44917079048E+03  0.12500000000E+03 0.  0.
         25    1    1    2    0    0 -0.10057000822E+03 -0.14386130641E+03 -0.17264909815E+03  0.27612155498E+03  0.12500000000E+03 0.  0.
         25    1    1    2    0    0  0.17415782960E+03  0.10293586460E+03 -0.67795588100E+03  0.71845383875E+03  0.12500000000E+03 0.  0.
</event>
<event>
 5    0  0.5619558E-005  0.2558791E+03  0.7546771E-02  0.1109645E+00
         21   -1    0    0  502  501  0.00000000000E+00  0.00000000000E+00  0.49826759438E+03  0.49826759438E+03  0.00000000000E+00 0.  1.
         21   -1    0    0  501  502 -0.00000000000E+00 -0.00000000000E+00 -0.13140347236E+03  0.13140347236E+03  0.00000000000E+00 0.  1.
         25    1    1    2    0    0  0.10902002741E+02 -0.66231167327E+02  0.17926354014E+03  0.22861723035E+03  0.12500000000E+03 0.  0.
         25    1    1    2    0    0  0.15357520823E+02 -0.22970887532E+02 -0.31854905053E+02  0.13192137846E+03  0.12500000000E+03 0.  0.
         25    1    1    2    0    0 -0.26259523564E+02  0.89202054859E+02  0.21945548692E+03  0.26913245793E+03  0.12500000000E+03 0.  0.
</event>
<event>
 5    0  0.5619558E-005  0.3221828E+03  0.7546771E-02  0.1074649E+00
         21   -1    0    0  502  501  0.00000000000E+00  0.00000000000E+00  0.92907905294E+03  0.92907905294E+03  0.00000000000E+00 0. -1.
         21   -1    0    0  501  502 -0.00000000000E+00 -0.00000000000E+00 -0.11172542465E+03  0.11172542465E+03  0.00000000000E+00 0. -1.
         25    1    1    2    0    0  0.10056904971E+03  0.57945694522E+01  0.58233257943E+03  0.60405624230E+03  0.12500000000E+03 0.  0.
         25    1    1    2    0    0 -0.17692387186E+03 -0.12930759255E+02  0.17296836177E+03  0.27751092797E+03  0.12500000000E+03 0.  0.
         25    1    1    2    0    0  0.76354822148E+02  0.71361898032E+01  0.62052687088E+02  0.15923730733E+03  0.12500000000E+03 0.  0.
</event>
<event>
 5    0  0.5619558E-005  0.3318246E+03  0.7546771E-02  0.1070332E+00
         21   -1    0    0  502  501  0.00000000000E+00  0.00000000000E+00  0.92034145251E+02  0.92034145251E+02  0.00000000000E+00 0.  1.
         21   -1    0    0  501  502 -0.00000000000E+00 -0.00000000000E+00 -0.11963770798E+04  0.11963770798E+04  0.00000000000E+00 0.  1.
         25    1    1    2    0    0  0.87750577929E+01  0.11576826946E+03 -0.99134690770E+02  0.19731188704E+03  0.12500000000E+03 0.  0.
         25    1    1    2    0    0  0.82666991271E+02 -0.19841465990E+03 -0.60242530040E+03  0.65172344693E+03  0.12500000000E+03 0.  0.
         25    1    1    2    0    0 -0.91442049064E+02  0.82646390443E+02 -0.40278294333E+03  0.43937589104E+03  0.12500000000E+03 0.  0.
</event>
<event>
 5    0  0.5619558E-005  0.2701266E+03  0.7546771E-02  0.1101207E+00
         21   -1    0    0  502  501  0.00000000000E+00  0.00000000000E+00  0.43730719449E+03  0.43730719449E+03  0.00000000000E+00 0.  1.
         21   -1    0    0  501  502 -0.00000000000E+00 -0.00000000000E+00 -0.16685844910E+03  0.16685844910E+03  0.00000000000E+00 0.  1.
         25    1    1    2    0    0  0.26105977493E+01  0.10693841633E+03  0.10984920758E+03  0.19782438807E+03  0.12500000000E+03 0.  0.
         25    1    1    2    0    0  0.90081532561E+02 -0.12864440763E+03  0.31908317647E+02  0.20324174487E+03  0.12500000000E+03 0.  0.
         25    1    1    2    0    0 -0.92692130310E+02  0.21705991295E+02  0.12869122015E+03  0.20309951064E+03  0.12500000000E+03 0.  0.
</event>
<event>
 5    0  0.5738288E-005  0.3237408E+03  0.7546771E-02  0.1073940E+00
         21   -1    0    0  502  501  0.00000000000E+00  0.00000000000E+00  0.40508261465E+03  0.40508261465E+03  0.00000000000E+00 0. -1.
         21   -1    0    0  501  502 -0.00000000000E+00 -0.00000000000E+00 -0.25873265596E+03  0.25873265596E+03  0.00000000000E+00 0. -1.
         25    1    1    2    0    0 -0.13316284685E+03 -0.92054209931E+02 -0.68119920842E+01  0.20464047640E+03  0.12500000000E+03 0.  0.
         25    1    1    2    0    0 -0.70778487345E+01  0.11975171914E+02 -0.80128059995E+02  0.14912748467E+03  0.12500000000E+03 0.  0.
         25    1    1    2    0    0  0.14024069558E+03  0.80079038017E+02  0.23329001077E+03  0.31004730954E+03  0.12500000000E+03 0.  0.
</event>
<event>
 5    0  0.5619558E-005  0.2563239E+03  0.7546771E-02  0.1109372E+00
         21   -1    0    0  502  501  0.00000000000E+00  0.00000000000E+00  0.39466926102E+03  0.39466926102E+03  0.00000000000E+00 0. -1.
         21   -1    0    0  501  502 -0.00000000000E+00 -0.00000000000E+00 -0.16647338739E+03  0.16647338739E+03  0.00000000000E+00 0. -1.
         25    1    1    2    0    0 -0.93520806277E+02 -0.81258151644E+01 -0.71390131066E+01  0.15648685436E+03  0.12500000000E+03 0.  0.
         25    1    1    2    0    0 -0.41872934645E+02  0.45229789298E+02  0.12154996450E+03  0.18492828438E+03  0.12500000000E+03 0.  0.
         25    1    1    2    0    0  0.13539374092E+03 -0.37103974134E+02  0.11378492224E+03  0.21972750967E+03  0.12500000000E+03 0.  0.
</event>
<event>
 5    0  0.5619558E-005  0.2270364E+03  0.7546771E-02  0.1128743E+00
         21   -1    0    0  502  501  0.00000000000E+00  0.00000000000E+00  0.14662961449E+03  0.14662961449E+03  0.00000000000E+00 0. -1.
         21   -1    0    0  501  502 -0.00000000000E+00 -0.00000000000E+00 -0.35153567256E+03  0.35153567256E+03  0.00000000000E+00 0. -1.
         25    1    1    2    0    0 -0.43867492770E+02 -0.55767489108E+02 -0.63184741938E+02  0.15700853919E+03  0.12500000000E+03 0.  0.
         25    1    1    2    0    0 -0.38382824579E+02 -0.22582707673E+02 -0.10271792246E+03  0.16780700672E+03  0.12500000000E+03 0.  0.
         25    1    1    2    0    0  0.82250317349E+02  0.78350196781E+02 -0.39003393669E+02  0.17334974115E+03  0.12500000000E+03 0.  0.
</event>
<event>
 5    0  0.6854619E-005  0.2536493E+03  0.7546771E-02  0.1111020E+00
         21   -1    0    0  502  501  0.00000000000E+00  0.00000000000E+00  0.45238515431E+03  0.45238515431E+03  0.00000000000E+00 0. -1.
         21   -1    0    0  501  502 -0.00000000000E+00 -0.00000000000E+00 -0.14221946726E+03  0.14221946726E+03  0.00000000000E+00 0.  1.
         25    1    1    2    0    0  0.37981160195E+02 -0.66367224301E+02  0.12943274426E+03  0.19551217936E+03  0.12500000000E+03 0.  0.
         25    1    1    2    0    0  0.40620530578E+02  0.13235036985E+03  0.55694878236E+02  0.19466270153E+03  0.12500000000E+03 0.  0.
         25    1    1    2    0    0 -0.78601690773E+02 -0.65983145552E+02  0.12503806456E+03  0.20442974069E+03  0.12500000000E+03 0.  0.
</event>
<event>
 5    0  0.5619558E-005  0.2616931E+03  0.7546771E-02  0.1106130E+00
         21   -1    0    0  502  501  0.00000000000E+00  0.00000000000E+00  0.57634328723E+02  0.57634328723E+02  0.00000000000E+00 0. -1.
         21   -1    0    0  501  502 -0.00000000000E+00 -0.00000000000E+00 -0.11882372775E+04  0.11882372775E+04  0.00000000000E+00 0. -1.
         25    1    1    2    0    0 -0.13479166888E+03  0.18578278044E+01 -0.61683295470E+03  0.64364597375E+03  0.12500000000E+03 0.  0.
         25    1    1    2    0    0  0.97119122158E+01  0.41589985053E+02 -0.21748908438E+03  0.25446129356E+03  0.12500000000E+03 0.  0.
         25    1    1    2    0    0  0.12507975666E+03 -0.43447812858E+02 -0.29628090971E+03  0.34776433892E+03  0.12500000000E+03 0.  0.
</event>
<event>
 5    0  0.5619558E-005  0.4214811E+03  0.7546771E-02  0.1036585E+00
         21   -1    0    0  502  501  0.00000000000E+00  0.00000000000E+00  0.15788835847E+03  0.15788835847E+03  0.00000000000E+00 0. -1.
         21   -1    0    0  501  502 -0.00000000000E+00 -0.00000000000E+00 -0.11251386151E+04  0.11251386151E+04  0.00000000000E+00 0.  1.
         25    1    1    2    0    0  0.90995428293E+02  0.24424589765E+03 -0.28397003755E+03  0.40521624933E+03  0.12500000000E+03 0.  0.
         25    1    1    2    0    0 -0.19984430880E+03 -0.25516512914E+03 -0.29590922693E+03  0.45632692389E+03  0.12500000000E+03 0.  0.
         25    1    1    2    0    0  0.10884888051E+03  0.10919231485E+02 -0.38737099216E+03  0.42148380036E+03  0.12500000000E+03 0.  0.
</event>
<event>
 5    0  0.5619558E-005  0.2222303E+03  0.7546771E-02  0.1132231E+00
         21   -1    0    0  502  501  0.00000000000E+00  0.00000000000E+00  0.77160801762E+02  0.77160801762E+02  0.00000000000E+00 0. -1.
         21   -1    0    0  501  502 -0.00000000000E+00 -0.00000000000E+00 -0.64004373330E+03  0.64004373330E+03  0.00000000000E+00 0. -1.
         25    1    1    2    0    0  0.86936180927E+02  0.20354857232E+02 -0.29669948223E+03  0.33410747151E+03  0.12500000000E+03 0.  0.
         25    1    1    2    0    0 -0.24558167113E+02 -0.27753291532E+02 -0.91409687557E+02  0.15922964467E+03  0.12500000000E+03 0.  0.
         25    1    1    2    0    0 -0.62378013814E+02  0.73984343009E+01 -0.17477376176E+03  0.22386741888E+03  0.12500000000E+03 0.  0.
</event>
<event>
 5    0  0.5619558E-005  0.2109454E+03  0.7546771E-02  0.1140819E+00
         21   -1    0    0  502  501  0.00000000000E+00  0.00000000000E+00  0.43372886272E+02  0.43372886272E+02  0.00000000000E+00 0. -1.
         21   -1    0    0  501  502 -0.00000000000E+00 -0.00000000000E+00 -0.10259400130E+04  0.10259400130E+04  0.00000000000E+00 0. -1.
         25    1    1    2    0    0 -0.33735140132E+02  0.78174951279E+00 -0.16792262396E+03  0.21204169036E+03  0.12500000000E+03 0.  0.
         25    1    1    2    0    0  0.14685375436E+01 -0.39049924050E+02 -0.44470526369E+03  0.46358906881E+03  0.12500000000E+03 0.  0.
         25    1    1    2    0    0  0.32266602588E+02  0.38268174537E+02 -0.36993923908E+03  0.39368214010E+03  0.12500000000E+03 0.  0.
</event>
<event>
 5    0  0.5619558E-005  0.3744156E+03  0.7546771E-02  0.1053017E+00
         21   -1    0    0  502  501  0.00000000000E+00  0.00000000000E+00  0.12866289175E+04  0.12866289175E+04  0.00000000000E+00 0.  1.
         21   -1    0    0  501  502 -0.00000000000E+00 -0.00000000000E+00 -0.10895684453E+03  0.10895684453E+03  0.00000000000E+00 0.  1.
         25    1    1    2    0    0 -0.45025736607E+02  0.65456823406E+02  0.41591411300E+03  0.44149910768E+03  0.12500000000E+03 0.  0.
         25    1    1    2    0    0  0.87352205285E+02  0.15801932387E+03  0.96263801428E+02  0.23977538229E+03  0.12500000000E+03 0.  0.
         25    1    1    2    0    0 -0.42326468678E+02 -0.22347614728E+03  0.66549415850E+03  0.71431127203E+03  0.12500000000E+03 0.  0.
</event>
<event>
 5    0  0.5619558E-005  0.4241101E+03  0.7546771E-02  0.1035737E+00
         21   -1    0    0  502  501  0.00000000000E+00  0.00000000000E+00  0.12963235517E+03  0.12963235517E+03  0.00000000000E+00 0.  1.
         21   -1    0    0  501  502 -0.00000000000E+00 -0.00000000000E+00 -0.13875347106E+04  0.13875347106E+04  0.00000000000E+00 0.  1.
         25    1    1    2    0    0 -0.67390168219E+02 -0.95324105807E+02 -0.55992997737E+03  0.58546964010E+03  0.12500000000E+03 0.  0.
         25    1    1    2    0    0  0.21473357534E+03 -0.83595431694E+02 -0.59271692585E+03  0.64810266067E+03  0.12500000000E+03 0.  0.
         25    1    1    2    0    0 -0.14734340712E+03  0.17891953750E+03 -0.10525545223E+03  0.28359476502E+03  0.12500000000E+03 0.  0.
</event>
<event>
 5    0  0.5619558E-005  0.3387447E+03  0.7546771E-02  0.1067332E+00
         21   -1    0    0  502  501  0.00000000000E+00  0.00000000000E+00  0.30703306542E+03  0.30703306542E+03  0.00000000000E+00 0. -1.
         21   -1    0    0  501  502 -0.00000000000E+00 -0.00000000000E+00 -0.37373167774E+03  0.37373167774E+03  0.00000000000E+00 0. -1.
         25    1    1    2    0    0  0.52543557193E+02 -0.17542126093E+03 -0.20521345634E+03  0.30211091813E+03  0.12500000000E+03 0.  0.
         25    1    1    2    0    0 -0.42080907934E+02  0.14335233333E+03  0.82193714610E+01  0.19496987550E+03  0.12500000000E+03 0.  0.
         25    1    1    2    0    0 -0.10462649260E+02  0.32068927603E+02  0.13029547256E+03  0.18368394954E+03  0.12500000000E+03 0.  0.
</event>
<event>
 5    0  0.5619558E-005  0.3220626E+03  0.7546771E-02  0.1074704E+00
         21   -1    0    0  502  501  0.00000000000E+00  0.00000000000E+00  0.97540301425E+02  0.97540301425E+02  0.00000000000E+00 0.  1.
         21   -1    0    0  501  502 -0.00000000000E+00 -0.00000000000E+00 -0.10633997124E+04  0.10633997124E+04  0.00000000000E+00 0.  1.
         25    1    1    2    0    0 -0.21817160531E+02  0.40536722119E+02 -0.56419057015E+03  0.57970269430E+03  0.12500000000E+03 0.  0.
         25    1    1    2    0    0  0.10191154215E+03 -0.11325135781E+03 -0.67316450985E+02  0.20825065917E+03  0.12500000000E+03 0.  0.
         25    1    1    2    0    0 -0.80094381624E+02  0.72714635694E+02 -0.33435238985E+03  0.37298666036E+03  0.12500000000E+03 0.  0.
</event>
<event>
 5    0  0.5619558E-005  0.2713923E+03  0.7546771E-02  0.1100485E+00
         21   -1    0    0  502  501  0.00000000000E+00  0.00000000000E+00  0.12888519975E+04  0.12888519975E+04  0.00000000000E+00 0. -1.
         21   -1    0    0  501  502 -0.00000000000E+00 -0.00000000000E+00 -0.57146815137E+02  0.57146815137E+02  0.00000000000E+00 0. -1.
         25    1    1    2    0    0  0.90338221299E+02 -0.76892167506E+01  0.43488638617E+03  0.46148812244E+03  0.12500000000E+03 0.  0.
         25    1    1    2    0    0 -0.11475475867E+03  0.10047129316E+03  0.26812954970E+03  0.33283868586E+03  0.12500000000E+03 0.  0.
         25    1    1    2    0    0  0.24416537367E+02 -0.92782076410E+02  0.52868924647E+03  0.55167200430E+03  0.12500000000E+03 0.  0.
</event>
<event>
 5    0  0.5928460E-005  0.2865716E+03  0.7546771E-02  0.1092153E+00
         21   -1    0    0  502  501  0.00000000000E+00  0.00000000000E+00  0.16646103155E+03  0.16646103155E+03  0.00000000000E+00 0.  1.
         21   -1    0    0  501  502 -0.00000000000E+00 -0.00000000000E+00 -0.49334850133E+03  0.49334850133E+03  0.00000000000E+00 0.  1.
         25    1    1    2    0    0 -0.57291653449E+02  0.80630696964E+02  0.46604418814E+02  0.16607412412E+03  0.12500000000E+03 0.  0.
         25    1    1    2    0    0  0.10917893746E+03 -0.76582807174E+02 -0.17207659028E+03  0.25103848243E+03  0.12500000000E+03 0.  0.
         25    1    1    2    0    0 -0.51887284012E+02 -0.40478897897E+01 -0.20141529832E+03  0.24269692633E+03  0.12500000000E+03 0.  0.
</event>
<event>
 5    0  0.5619558E-005  0.2847556E+03  0.7546771E-02  0.1093120E+00
         21   -1    0    0  502  501  0.00000000000E+00  0.00000000000E+00  0.23878728008E+03  0.23878728008E+03  0.00000000000E+00 0. -1.
         21   -1    0    0  501  502 -0.00000000000E+00 -0.00000000000E+00 -0.33957310817E+03  0.33957310817E+03  0.00000000000E+00 0. -1.
         25    1    1    2    0    0  0.18618324105E+02 -0.12401287097E+03  0.83164947149E+02  0.19562014874E+03  0.12500000000E+03 0.  0.
         25    1    1    2    0    0  0.17706585174E+01 -0.28286953109E+00  0.29070354518E+01  0.12504665570E+03  0.12500000000E+03 0.  0.
         25    1    1    2    0    0 -0.20388982623E+02  0.12429574050E+03 -0.18685781070E+03  0.25769358381E+03  0.12500000000E+03 0.  0.
</event>
<event>
 5    0  0.5619558E-005  0.1969284E+03  0.7546771E-02  0.1152357E+00
         21   -1    0    0  502  501  0.00000000000E+00  0.00000000000E+00  0.10913054157E+03  0.10913054157E+03  0.00000000000E+00 0. -1.
         21   -1    0    0  501  502 -0.00000000000E+00 -0.00000000000E+00 -0.35536137847E+03  0.35536137847E+03  0.00000000000E+00 0. -1.
         25    1    1    2    0    0  0.30232934473E+02  0.35054593265E+02 -0.11260833267E+03  0.17449496102E+03  0.12500000000E+03 0.  0.
         25    1    1    2    0    0 -0.27387889202E+02 -0.19372164542E+02 -0.49911314768E+02  0.13871379375E+03  0.12500000000E+03 0.  0.
         25    1    1    2    0    0 -0.28450452707E+01 -0.15682428724E+02 -0.83711189467E+02  0.15128316527E+03  0.12500000000E+03 0.  0.
</event>
<event>
 5    0  0.5619558E-005  0.2449107E+03  0.7546771E-02  0.1116564E+00
         21   -1    0    0  502  501  0.00000000000E+00  0.00000000000E+00  0.50656195282E+03  0.50656195282E+03  0.00000000000E+00 0. -1.
         21   -1    0    0  501  502 -0.00000000000E+00 -0.00000000000E+00 -0.11840849035E+03  0.11840849035E+03  0.00000000000E+00 0. -1.
         25    1    1    2    0    0  0.33238191728E+02 -0.10938123313E+03  0.77947896441E+02  0.18646690352E+03  0.12500000000E+03 0.  0.
         25    1    1    2    0    0 -0.58738040335E+01 -0.89463288944E+00  0.20287837511E+03  0.23836932904E+03  0.12500000000E+03 0.  0.
         25    1    1    2    0    0 -0.27364387695E+02  0.11027586602E+03  0.10732719092E+03  0.20013421060E+03  0.12500000000E+03 0.  0.
</event>
<event>
 5    0  0.5619558E-005  0.4133569E+03  0.7546771E-02  0.1039250E+00
         21   -1    0    0  502  501  0.00000000000E+00  0.00000000000E+00  0.36474315375E+03  0.36474315375E+03  0.00000000000E+00 0.  1.
         21   -1    0    0  501  502 -0.00000000000E+00 -0.00000000000E+00 -0.46844989003E+03  0.46844989003E+03  0.00000000000E+00 0.  1.
         25    1    1    2    0    0  0.11755230516E+03 -0.93798479800E+02 -0.98466809588E+02  0.21894613916E+03  0.12500000000E+03 0.  0.
         25    1    1    2    0    0  0.11945844090E+03 -0.10848443577E+03 -0.14521410888E+03  0.25050215433E+03  0.12500000000E+03 0.  0.
         25    1    1    2    0    0 -0.23701074606E+03  0.20228291557E+03  0.13997418219E+03  0.36374475029E+03  0.12500000000E+03 0.  0.
</event>
<event>
 5    0  0.5619558E-005  0.2159625E+03  0.7546771E-02  0.1136929E+00
         21   -1    0    0  502  501  0.00000000000E+00  0.00000000000E+00  0.76328782040E+03  0.76328782040E+03  0.00000000000E+00 0.  1.
         21   -1    0    0  501  502 -0.00000000000E+00 -0.00000000000E+00 -0.61103797338E+02  0.61103797338E+02  0.00000000000E+00 0.  1.
         25    1    1    2    0    0 -0.26528582323E+01  0.65749797482E+01  0.39866671988E+03  0.41786411853E+03  0.12500000000E+03 0.  0.
         25    1    1    2    0    0 -0.71331761905E+01  0.43397645868E+01  0.76025609580E+02  0.14654217506E+03  0.12500000000E+03 0.  0.
         25    1    1    2    0    0  0.97860344228E+01 -0.10914744335E+02  0.22749169360E+03  0.25998532414E+03  0.12500000000E+03 0.  0.
</event>
<event>
 5    0  0.5619558E-005  0.3980367E+03  0.7546771E-02  0.1044462E+00
         21   -1    0    0  502  501  0.00000000000E+00  0.00000000000E+00  0.41535246833E+03  0.41535246833E+03  0.00000000000E+00 0.  1.
         21   -1    0    0  501  502 -0.00000000000E+00 -0.00000000000E+00 -0.38144275232E+03  0.38144275232E+03  0.00000000000E+00 0. -1.
         25    1    1    2    0    0  0.55105250960E+02  0.26981717319E+03 -0.15616288815E+03  0.34036707136E+03  0.12500000000E+03 0.  0.
         25    1    1    2    0    0 -0.65302953152E+02 -0.13690096606E+03  0.54023721313E+01  0.19662282630E+03  0.12500000000E+03 0.  0.
         25    1    1    2    0    0  0.10197702192E+02 -0.13291620713E+03  0.18467023203E+03  0.25980532298E+03  0.12500000000E+03 0.  0.
</event>
<event>
 5    0  0.5619558E-005  0.2522560E+03  0.7546771E-02  0.1111887E+00
         21   -1    0    0  502  501  0.00000000000E+00  0.00000000000E+00  0.45968166118E+03  0.45968166118E+03  0.00000000000E+00 0.  1.
         21   -1    0    0  501  502 -0.00000000000E+00 -0.00000000000E+00 -0.13842863202E+03  0.13842863202E+03  0.00000000000E+00 0.  1.
         25    1    1    2    0    0  0.11616180407E+03 -0.57737024682E+02  0.12320153198E+03  0.21824469347E+03  0.12500000000E+03 0.  0.
         25    1    1    2    0    0 -0.35872952685E+02 -0.32231184218E+02  0.14686733180E+03  0.19879821710E+03  0.12500000000E+03 0.  0.
         25    1    1    2    0    0 -0.80288851383E+02  0.89968208900E+02  0.51184165371E+02  0.18106738263E+03  0.12500000000E+03 0.  0.
</event>
<event>
 5    0  0.5619558E-005  0.2822310E+03  0.7546771E-02  0.1094477E+00
         21   -1    0    0  502  501  0.00000000000E+00  0.00000000000E+00  0.80460766873E+02  0.80460766873E+02  0.00000000000E+00 0. -1.
         21   -1    0    0  501  502 -0.00000000000E+00 -0.00000000000E+00 -0.98997744660E+03  0.98997744660E+03  0.00000000000E+00 0. -1.
         25    1    1    2    0    0 -0.51537734032E+02 -0.74300543197E+02 -0.68138480892E+02  0.16865515506E+03  0.12500000000E+03 0.  0.
         25    1    1    2    0    0  0.65880831029E+01  0.12960580351E+03 -0.44489836940E+03  0.48000065233E+03  0.12500000000E+03 0.  0.
         25    1    1    2    0    0  0.44949650930E+02 -0.55305260311E+02 -0.39647982943E+03  0.42178240609E+03  0.12500000000E+03 0.  0.
</event>
<event>
 5    0  0.5619558E-005  0.3990530E+03  0.7546771E-02  0.1044108E+00
         21   -1    0    0  502  501  0.00000000000E+00  0.00000000000E+00  0.74116690279E+02  0.74116690279E+02  0.00000000000E+00 0. -1.
         21   -1    0    0  501  502 -0.00000000000E+00 -0.00000000000E+00 -0.21485486776E+04  0.21485486776E+04  0.00000000000E+00 0. -1.
         25    1    1    2    0    0  0.22528772510E+03  0.49780688444E+02 -0.43290271098E+03  0.50622369877E+03  0.12500000000E+03 0.  0.
         25    1    1    2    0    0  0.63926792968E+01 -0.13912054409E+03 -0.99861378355E+03  0.10159969886E+04  0.12500000000E+03 0.  0.
         25    1    1    2    0    0 -0.23168040440E+03  0.89339855650E+02 -0.64291549283E+03  0.70044468055E+03  0.12500000000E+03 0.  0.
</event>
<event>
 5    0  0.5619558E-005  0.2390987E+03  0.7546771E-02  0.1120395E+00
         21   -1    0    0  502  501  0.00000000000E+00  0.00000000000E+00  0.21384475318E+04  0.21384475318E+04  0.00000000000E+00 0. -1.
         21   -1    0    0  501  502 -0.00000000000E+00 -0.00000000000E+00 -0.26733505780E+02  0.26733505780E+02  0.00000000000E+00 0. -1.
         25    1    1    2    0    0  0.18518047828E+01  0.37956145131E+02  0.91265264878E+03  0.92195659088E+03  0.12500000000E+03 0.  0.
         25    1    1    2    0    0  0.62102934564E+02  0.18682498450E+02  0.86587207931E+03  0.87724869220E+03  0.12500000000E+03 0.  0.
         25    1    1    2    0    0 -0.63954739347E+02 -0.56638643581E+02  0.33318929790E+03  0.36597575448E+03  0.12500000000E+03 0.  0.
</event>
<event>
 5    0  0.5619558E-005  0.2659308E+03  0.7546771E-02  0.1103631E+00
         21   -1    0    0  502  501  0.00000000000E+00  0.00000000000E+00  0.69400692428E+03  0.69400692428E+03  0.00000000000E+00 0.  1.
         21   -1    0    0  501  502 -0.00000000000E+00 -0.00000000000E+00 -0.10189982093E+03  0.10189982093E+03  0.00000000000E+00 0.  1.
         25    1    1    2    0    0 -0.55869733470E+01  0.32257439109E+02  0.11441977240E+03  0.17259386132E+03  0.12500000000E+03 0.  0.
         25    1    1    2    0    0  0.74227947065E+02  0.11094880693E+03  0.31342638080E+03  0.36287810911E+03  0.12500000000E+03 0.  0.
         25    1    1    2    0    0 -0.68640973718E+02 -0.14320624604E+03  0.16426095015E+03  0.26043477479E+03  0.12500000000E+03 0.  0.
</event>
<event>
 5    0  0.5619558E-005  0.3859287E+03  0.7546771E-02  0.1048764E+00
         21   -1    0    0  502  501  0.00000000000E+00  0.00000000000E+00  0.32815838541E+03  0.32815838541E+03  0.00000000000E+00 0.  1.
         21   -1    0    0  501  502 -0.00000000000E+00 -0.00000000000E+00 -0.45386908678E+03  0.45386908678E+03  0.00000000000E+00 0.  1.
         25    1    1    2    0    0  0.33501557224E+02 -0.41709155074E+02 -0.36025133854E+02  0.14065851635E+03  0.12500000000E+03 0.  0.
         25    1    1    2    0    0  0.13790941893E+03  0.26647868079E+03 -0.28483680085E+02  0.32629161064E+03  0.12500000000E+03 0.  0.
         25    1    1    2    0    0 -0.17141097615E+03 -0.22476952571E+03 -0.61201887423E+02  0.31507734520E+03  0.12500000000E+03 0.  0.
</event>
<event>
 5    0  0.5619558E-005  0.5087904E+03  0.7546771E-02  0.1011510E+00
         21   -1    0    0  502  501  0.00000000000E+00  0.00000000000E+00  0.25870420498E+03  0.25870420498E+03  0.00000000000E+00 0.  1.
         21   -1    0    0  501  502 -0.00000000000E+00 -0.00000000000E+00 -0.10006319652E+04  0.10006319652E+04  0.00000000000E+00 0.  1.
         25    1    1    2    0    0  0.96411285697E+02 -0.16252630439E+03 -0.62398248499E+02  0.23500739785E+03  0.12500000000E+03 0.  0.
         25    1    1    2    0    0  0.13990844577E+03  0.58136511525E+02 -0.70910818942E+03  0.73580816214E+03  0.12500000000E+03 0.  0.
         25    1    1    2    0    0 -0.23631973147E+03  0.10438979287E+03  0.29578677685E+02  0.28852061020E+03  0.12500000000E+03 0.  0.
</event>
<event>
 5    0  0.5619558E-005  0.2832129E+03  0.7546771E-02  0.1093947E+00
         21   -1    0    0  502  501  0.00000000000E+00  0.00000000000E+00  0.15133165996E+04  0.15133165996E+04  0.00000000000E+00 0. -1.
         21   -1    0    0  501  502 -0.00000000000E+00 -0.00000000000E+00 -0.53002505858E+02  0.53002505858E+02  0.00000000000E+00 0. -1.
         25    1    1    2    0    0 -0.25715059058E+02  0.79475980587E+02  0.26041018889E+03  0.30069280376E+03  0.12500000000E+03 0.  0.
         25    1    1    2    0    0 -0.67085732979E+02 -0.16839086757E+03  0.58278671444E+03  0.62299384778E+03  0.12500000000E+03 0.  0.
         25    1    1    2    0    0  0.92800792036E+02  0.88914886980E+02  0.61711719045E+03  0.64263245395E+03  0.12500000000E+03 0.  0.
</event>
<event>
 5    0  0.5619558E-005  0.2823230E+03  0.7546771E-02  0.1094427E+00
         21   -1    0    0  502  501  0.00000000000E+00  0.00000000000E+00  0.85707518665E+03  0.85707518665E+03  0.00000000000E+00 0. -1.
         21   -1    0    0  501  502 -0.00000000000E+00 -0.00000000000E+00 -0.92997979678E+02  0.92997979678E+02  0.00000000000E+00 0. -1.
         25    1    1    2    0    0 -0.80260735640E+02  0.13388977295E+03  0.15849707996E+03  0.25517558923E+03  0.12500000000E+03 0.  0.
         25    1    1    2    0    0  0.28119835597E+02 -0.11889266834E+03  0.19294205929E+03  0.26034175612E+03  0.12500000000E+03 0.  0.
         25    1    1    2    0    0  0.52140900044E+02 -0.14997104606E+02  0.41263806772E+03  0.43455582097E+03  0.12500000000E+03 0.  0.
</event>
<event>
 5    0  0.5619558E-005  0.2154389E+03  0.7546771E-02  0.1137330E+00
         21   -1    0    0  502  501  0.00000000000E+00  0.00000000000E+00  0.14667208804E+03  0.14667208804E+03  0.00000000000E+00 0. -1.
         21   -1    0    0  501  502 -0.00000000000E+00 -0.00000000000E+00 -0.31644696761E+03  0.31644696761E+03  0.00000000000E+00 0. -1.
         25    1    1    2    0    0 -0.16654594736E+02  0.86271068444E+02 -0.76251873365E+02  0.17076129822E+03  0.12500000000E+03 0.  0.
         25    1    1    2    0    0  0.90279215790E+01 -0.14751320359E+02 -0.12164741385E+02  0.12677573014E+03  0.12500000000E+03 0.  0.
         25    1    1    2    0    0  0.76266731568E+01 -0.71519748085E+02 -0.81358264822E+02  0.16558202730E+03  0.12500000000E+03 0.  0.
</event>
<event>
 5    0  0.5619558E-005  0.3210212E+03  0.7546771E-02  0.1075180E+00
         21   -1    0    0  502  501  0.00000000000E+00  0.00000000000E+00  0.78925913700E+02  0.78925913700E+02  0.00000000000E+00 0. -1.
         21   -1    0    0  501  502 -0.00000000000E+00 -0.00000000000E+00 -0.13057131168E+04  0.13057131168E+04  0.00000000000E+00 0. -1.
         25    1    1    2    0    0  0.62627097270E+02 -0.18825361633E+03 -0.76147455483E+03  0.79676224498E+03  0.12500000000E+03 0.  0.
         25    1    1    2    0    0 -0.10183700224E+03  0.52497571036E+02 -0.24285133620E+03  0.29619004285E+03  0.12500000000E+03 0.  0.
         25    1    1    2    0    0  0.39209904974E+02  0.13575604529E+03 -0.22246131209E+03  0.29168674268E+03  0.12500000000E+03 0.  0.
</event>
<event>
 5    0  0.5619558E-005  0.2847674E+03  0.7546771E-02  0.1093113E+00
         21   -1    0    0  502  501  0.00000000000E+00  0.00000000000E+00  0.75569258326E+03  0.75569258326E+03  0.00000000000E+00 0. -1.
         21   -1    0    0  501  502 -0.00000000000E+00 -0.00000000000E+00 -0.10730884431E+03  0.10730884431E+03  0.00000000000E+00 0. -1.
         25    1    1    2    0    0  0.76578016682E+02 -0.62386632067E+02  0.38188268055E+03  0.41378214824E+03  0.12500000000E+03 0.  0.
         25    1    1    2    0    0  0.19179871626E+02  0.21862747256E+01  0.24957271524E+03  0.27979311547E+03  0.12500000000E+03 0.  0.
         25    1    1    2    0    0 -0.95757888308E+02  0.60200357342E+02  0.16928343163E+02  0.16942616386E+03  0.12500000000E+03 0.  0.
</event>
<event>
 5    0  0.5619558E-005  0.3015665E+03  0.7546771E-02  0.1084460E+00
         21   -1    0    0  502  501  0.00000000000E+00  0.00000000000E+00  0.20390589427E+04  0.20390589427E+04  0.00000000000E+00 0.  1.
         21   -1    0    0  501  502 -0.00000000000E+00 -0.00000000000E+00 -0.44600168856E+02  0.44600168856E+02  0.00000000000E+00 0.  1.
         25    1    1    2    0    0 -0.49000463240E+02  0.10118106197E+03  0.83649503846E+03  0.85322189497E+03  0.12500000000E+03 0.  0.
         25    1    1    2    0    0  0.11459150070E+03 -0.21777409565E+02  0.95786956026E+03  0.97300799692E+03  0.12500000000E+03 0.  0.
         25    1    1    2    0    0 -0.65591037460E+02 -0.79403652402E+02  0.20009417508E+03  0.25742921961E+03  0.12500000000E+03 0.  0.
</event>
<event>
 5    0  0.5619558E-005  0.3212057E+03  0.7546771E-02  0.1075096E+00
         21   -1    0    0  502  501  0.00000000000E+00  0.00000000000E+00  0.92808238625E+03  0.92808238625E+03  0.00000000000E+00 0. -1.
         21   -1    0    0  501  502 -0.00000000000E+00 -0.00000000000E+00 -0.11116805605E+03  0.11116805605E+03  0.00000000000E+00 0. -1.
         25    1    1    2    0    0  0.10156309222E+03 -0.55272240402E+02  0.27446082504E+02  0.17247715705E+03  0.12500000000E+03 0.  0.
         25    1    1    2    0    0 -0.16279505511E+03  0.20561266156E+01  0.39607755003E+03  0.44610411706E+03  0.12500000000E+03 0.  0.
         25    1    1    2    0    0  0.61231962893E+02  0.53216113787E+02  0.39339069767E+03  0.42066916818E+03  0.12500000000E+03 0.  0.
</event>
<event>
 5    0  0.5619558E-005  0.2576817E+03  0.7546771E-02  0.1108544E+00
         21   -1    0    0  502  501  0.00000000000E+00  0.00000000000E+00  0.18720364982E+03  0.18720364982E+03  0.00000000000E+00 0. -1.
         21   -1    0    0  501  502 -0.00000000000E+00 -0.00000000000E+00 -0.35469329290E+03  0.35469329290E+03  0.00000000000E+00 0. -1.
         25    1    1    2    0    0 -0.63778758299E+02 -0.21623022604E+02  0.61969866229E+02  0.15492110714E+03  0.12500000000E+03 0.  0.
         25    1    1    2    0    0 -0.70182000109E+00 -0.17992019515E+01 -0.20814640248E+03  0.24280373667E+03  0.12500000000E+03 0.  0.
         25    1    1    2    0    0  0.64480578300E+02  0.23422224556E+02 -0.21313106839E+02  0.14417209891E+03  0.12500000000E+03 0.  0.
</event>
<event>
 5    0  0.5619558E-005  0.2483922E+03  0.7546771E-02  0.1114325E+00
         21   -1    0    0  502  501  0.00000000000E+00  0.00000000000E+00  0.23125979131E+03  0.23125979131E+03  0.00000000000E+00 0.  1.
         21   -1    0    0  501  502 -0.00000000000E+00 -0.00000000000E+00 -0.26679377423E+03  0.26679377423E+03  0.00000000000E+00 0.  1.
         25    1    1    2    0    0  0.99408147571E+02  0.30255016984E+02 -0.39138977313E+02  0.16719511177E+03  0.12500000000E+03 0.  0.
         25    1    1    2    0    0  0.36911828343E+02  0.30393391749E+02  0.20868732996E+02  0.13545015818E+03  0.12500000000E+03 0.  0.
         25    1    1    2    0    0 -0.13631997591E+03 -0.60648408732E+02 -0.17263738607E+02  0.19540829559E+03  0.12500000000E+03 0.  0.
</event>
<event>
 5    0  0.5619558E-005  0.2427956E+03  0.7546771E-02  0.1117944E+00
         21   -1    0    0  502  501  0.00000000000E+00  0.00000000000E+00  0.14650357071E+03  0.14650357071E+03  0.00000000000E+00 0. -1.
         21   -1    0    0  501  502 -0.00000000000E+00 -0.00000000000E+00 -0.40237727690E+03  0.40237727690E+03  0.00000000000E+00 0. -1.
         25    1    1    2    0    0  0.41520919191E+02  0.65571646771E+02  0.13773483212E+02  0.14777799711E+03  0.12500000000E+03 0.  0.
         25    1    1    2    0    0 -0.34532284401E+02 -0.41720728924E+02 -0.23055700509E+03  0.26779587466E+03  0.12500000000E+03 0.  0.
         25    1    1    2    0    0 -0.69886347897E+01 -0.23850917847E+02 -0.39090184309E+02  0.13330697584E+03  0.12500000000E+03 0.  0.
</event>
<event>
 5    0  0.5619558E-005  0.3597655E+03  0.7546771E-02  0.1058677E+00
         21   -1    0    0  502  501  0.00000000000E+00  0.00000000000E+00  0.28330668736E+03  0.28330668736E+03  0.00000000000E+00 0.  1.
         21   -1    0    0  501  502 -0.00000000000E+00 -0.00000000000E+00 -0.45685900691E+03  0.45685900691E+03  0.00000000000E+00 0.  1.
         25    1    1    2    0    0 -0.25033752403E+03  0.11298541513E+03  0.56417945455E+01  0.30181353485E+03  0.12500000000E+03 0.  0.
         25    1    1    2    0    0  0.19678162888E+03 -0.19913000975E+02 -0.12234559042E+03  0.26403215821E+03  0.12500000000E+03 0.  0.
         25    1    1    2    0    0  0.53555895150E+02 -0.93072414155E+02 -0.56848523676E+02  0.17432000122E+03  0.12500000000E+03 0.  0.
</event>
<event>
 5    0  0.5619558E-005  0.2699600E+03  0.7546771E-02  0.1101303E+00
         21   -1    0    0  502  501  0.00000000000E+00  0.00000000000E+00  0.57850990759E+03  0.57850990759E+03  0.00000000000E+00 0. -1.
         21   -1    0    0  501  502 -0.00000000000E+00 -0.00000000000E+00 -0.12597606375E+03  0.12597606375E+03  0.00000000000E+00 0. -1.
         25    1    1    2    0    0 -0.17218523714E+03  0.98815147341E+00  0.13377561383E+03  0.25133572605E+03  0.12500000000E+03 0.  0.
         25    1    1    2    0    0  0.23441435936E+02  0.17295525918E+00  0.13984957021E+03  0.18903024393E+03  0.12500000000E+03 0.  0.
         25    1    1    2    0    0  0.14874380120E+03 -0.11611067326E+01  0.17890865980E+03  0.26412000136E+03  0.12500000000E+03 0.  0.
</event>
<event>
 5    0  0.5619558E-005  0.2754477E+03  0.7546771E-02  0.1098202E+00
         21   -1    0    0  502  501  0.00000000000E+00  0.00000000000E+00  0.23028932404E+03  0.23028932404E+03  0.00000000000E+00 0. -1.
         21   -1    0    0  501  502 -0.00000000000E+00 -0.00000000000E+00 -0.32946143016E+03  0.32946143016E+03  0.00000000000E+00 0. -1.
         25    1    1    2    0    0 -0.16987921066E+02  0.54524928853E+02  0.47074917698E+02  0.14526735767E+03  0.12500000000E+03 0.  0.
         25    1    1    2    0    0 -0.37986800735E+02 -0.11762932168E+02  0.74921130324E+02  0.15106137618E+03  0.12500000000E+03 0.  0.
         25    1    1    2    0    0  0.54974721802E+02 -0.42761996685E+02 -0.22116815415E+03  0.26342202035E+03  0.12500000000E+03 0.  0.
</event>
<event>
 5    0  0.5619558E-005  0.2579285E+03  0.7546771E-02  0.1108394E+00
         21   -1    0    0  502  501  0.00000000000E+00  0.00000000000E+00  0.51191023299E+03  0.51191023299E+03  0.00000000000E+00 0.  1.
         21   -1    0    0  501  502 -0.00000000000E+00 -0.00000000000E+00 -0.12995856520E+03  0.12995856520E+03  0.00000000000E+00 0.  1.
         25    1    1    2    0    0 -0.51322837599E+02 -0.60820035745E+02  0.14892438009E+03  0.21008708050E+03  0.12500000000E+03 0.  0.
         25    1    1    2    0    0 -0.72351424763E+02  0.58691513914E+02  0.19878210082E+03  0.25262372429E+03  0.12500000000E+03 0.  0.
         25    1    1    2    0    0  0.12367426236E+03  0.21285218317E+01  0.34245186892E+02  0.17915799341E+03  0.12500000000E+03 0.  0.
</event>
<event>
 5    0  0.5619558E-005  0.3512131E+03  0.7546771E-02  0.1062118E+00
         21   -1    0    0  502  501  0.00000000000E+00  0.00000000000E+00  0.80771896970E+03  0.80771896970E+03  0.00000000000E+00 0. -1.
         21   -1    0    0  501  502 -0.00000000000E+00 -0.00000000000E+00 -0.15271482716E+03  0.15271482716E+03  0.00000000000E+00 0. -1.
         25    1    1    2    0    0  0.22034281005E+02 -0.13104266754E+03  0.14863553597E+03  0.23531938468E+03  0.12500000000E+03 0.  0.
         25    1    1    2    0    0 -0.98290114721E+02  0.24723185114E+03  0.43504652207E+03  0.52504762758E+03  0.12500000000E+03 0.  0.
         25    1    1    2    0    0  0.76255833716E+02 -0.11618918360E+03  0.71322084507E+02  0.20006678460E+03  0.12500000000E+03 0.  0.
</event>
<event>
 5    0  0.5619558E-005  0.4951663E+03  0.7546771E-02  0.1015048E+00
         21   -1    0    0  502  501  0.00000000000E+00  0.00000000000E+00  0.29462446014E+04  0.29462446014E+04  0.00000000000E+00 0.  1.
         21   -1    0    0  501  502 -0.00000000000E+00 -0.00000000000E+00 -0.83221087792E+02  0.83221087792E+02  0.00000000000E+00 0.  1.
         25    1    1    2    0    0  0.31540536668E+03  0.19803567976E+03  0.58630790433E+03  0.70574827982E+03  0.12500000000E+03 0.  0.
         25    1    1    2    0    0 -0.23307825507E+03 -0.14248436681E+03  0.16401628502E+04  0.16674490826E+04  0.12500000000E+03 0.  0.
         25    1    1    2    0    0 -0.82327111611E+02 -0.55551312956E+02  0.63655275907E+03  0.65626832680E+03  0.12500000000E+03 0.  0.
</event>
<event>
 5    0  0.5619558E-005  0.3072414E+03  0.7546771E-02  0.1081676E+00
         21   -1    0    0  502  501  0.00000000000E+00  0.00000000000E+00  0.28285549694E+03  0.28285549694E+03  0.00000000000E+00 0.  1.
         21   -1    0    0  501  502 -0.00000000000E+00 -0.00000000000E+00 -0.33372977830E+03  0.33372977830E+03  0.00000000000E+00 0.  1.
         25    1    1    2    0    0  0.11380057017E+03 -0.44851743004E+02  0.99405027676E+00  0.17489493062E+03  0.12500000000E+03 0.  0.
         25    1    1    2    0    0 -0.16034555145E+03  0.16012581962E+03 -0.58286433865E+02  0.26527963049E+03  0.12500000000E+03 0.  0.
         25    1    1    2    0    0  0.46544981276E+02 -0.11527407662E+03  0.64181022367E+01  0.17641071413E+03  0.12500000000E+03 0.  0.
</event>
<event>
 5    0  0.5619558E-005  0.2505541E+03  0.7546771E-02  0.1112955E+00
         21   -1    0    0  502  501  0.00000000000E+00  0.00000000000E+00  0.20184876161E+03  0.20184876161E+03  0.00000000000E+00 0.  1.
         21   -1    0    0  501  502 -0.00000000000E+00 -0.00000000000E+00 -0.31101173956E+03  0.31101173956E+03  0.00000000000E+00 0.  1.
         25    1    1    2    0    0  0.10382827561E+03  0.40800644075E+02 -0.20800545332E+02  0.16882732616E+03  0.12500000000E+03 0.  0.
         25    1    1    2    0    0  0.23735785378E+01  0.59050104700E+02 -0.56579016310E+02  0.14939455755E+03  0.12500000000E+03 0.  0.
         25    1    1    2    0    0 -0.10620185414E+03 -0.99850748775E+02 -0.31783416306E+02  0.19463861746E+03  0.12500000000E+03 0.  0.
</event>
<event>
 5    0  0.5619558E-005  0.3884540E+03  0.7546771E-02  0.1047853E+00
         21   -1    0    0  502  501  0.00000000000E+00  0.00000000000E+00  0.84896036445E+03  0.84896036445E+03  0.00000000000E+00 0.  1.
         21   -1    0    0  501  502 -0.00000000000E+00 -0.00000000000E+00 -0.17774273802E+03  0.17774273802E+03  0.00000000000E+00 0.  1.
         25    1    1    2    0    0  0.46712864173E+02  0.26575673560E+02 -0.50922662858E+02  0.14528067902E+03  0.12500000000E+03 0.  0.
         25    1    1    2    0    0  0.87228325430E+02  0.89833077981E+02  0.63569712004E+02  0.18800231632E+03  0.12500000000E+03 0.  0.
         25    1    1    2    0    0 -0.13394118960E+03 -0.11640875154E+03  0.65857057729E+03  0.69342010713E+03  0.12500000000E+03 0.  0.
</event>
<event>
 5    0  0.5619558E-005  0.4231173E+03  0.7546771E-02  0.1036056E+00
         21   -1    0    0  502  501  0.00000000000E+00  0.00000000000E+00  0.50754951737E+03  0.50754951737E+03  0.00000000000E+00 0.  1.
         21   -1    0    0  501  502 -0.00000000000E+00 -0.00000000000E+00 -0.35273061483E+03  0.35273061483E+03  0.00000000000E+00 0.  1.
         25    1    1    2    0    0 -0.67585836602E+02  0.19262558868E+03 -0.53105786310E+02  0.24518908471E+03  0.12500000000E+03 0.  0.
         25    1    1    2    0    0  0.14888641792E+03  0.70966541469E+02  0.23248395896E+03  0.31125103474E+03  0.12500000000E+03 0.  0.
         25    1    1    2    0    0 -0.81300581320E+02 -0.26359213015E+03 -0.24559270113E+02  0.30384001275E+03  0.12500000000E+03 0.  0.
</event>
<event>
 5    0  0.5619558E-005  0.4674991E+03  0.7546771E-02  0.1022628E+00
         21   -1    0    0  502  501  0.00000000000E+00  0.00000000000E+00  0.78296608244E+02  0.78296608244E+02  0.00000000000E+00 0.  1.
         21   -1    0    0  501  502 -0.00000000000E+00 -0.00000000000E+00 -0.27913778065E+04  0.27913778065E+04  0.00000000000E+00 0. -1.
         25    1    1    2    0    0 -0.11781121581E+03 -0.41654011504E+02 -0.17342788636E+04  0.17432620905E+04  0.12500000000E+03 0.  0.
         25    1    1    2    0    0 -0.11225561157E+03  0.60189217201E+01 -0.73761895434E+02  0.18358476779E+03  0.12500000000E+03 0.  0.
         25    1    1    2    0    0  0.23006682738E+03  0.35635089784E+02 -0.90504043916E+03  0.94282755645E+03  0.12500000000E+03 0.  0.
</event>
<event>
 5    0  0.5699862E-005  0.3025849E+03  0.7546771E-02  0.1083956E+00
         21   -1    0    0  502  501  0.00000000000E+00  0.00000000000E+00  0.16035288893E+03  0.16035288893E+03  0.00000000000E+00 0. -1.
         21   -1    0    0  501  502 -0.00000000000E+00 -0.00000000000E+00 -0.57097571692E+03  0.57097571692E+03  0.00000000000E+00 0. -1.
         25    1    1    2    0    0 -0.25628176497E+02 -0.16950513259E+03 -0.27130206128E+03  0.34441051357E+03  0.12500000000E+03 0.  0.
         25    1    1    2    0    0 -0.67954985954E+02  0.19882170203E+02 -0.41306594934E+02  0.14948048566E+03  0.12500000000E+03 0.  0.
         25    1    1    2    0    0  0.93583162451E+02  0.14962296238E+03 -0.98014171780E+02  0.23743760662E+03  0.12500000000E+03 0.  0.
</event>
<event>
 5    0  0.5619558E-005  0.2466270E+03  0.7546771E-02  0.1115455E+00
         21   -1    0    0  502  501  0.00000000000E+00  0.00000000000E+00  0.13457737188E+03  0.13457737188E+03  0.00000000000E+00 0. -1.
         21   -1    0    0  501  502 -0.00000000000E+00 -0.00000000000E+00 -0.45196957123E+03  0.45196957123E+03  0.00000000000E+00 0. -1.
         25    1    1    2    0    0 -0.44438032053E+02 -0.11529945346E+03 -0.21356371913E+03  0.27659205482E+03  0.12500000000E+03 0.  0.
         25    1    1    2    0    0  0.15488730137E+02  0.84938156780E+02 -0.91927822564E+02  0.17756721488E+03  0.12500000000E+03 0.  0.
         25    1    1    2    0    0  0.28949301916E+02  0.30361296679E+02 -0.11900657657E+02  0.13238767341E+03  0.12500000000E+03 0.  0.
</event>
<event>
 5    0  0.5619558E-005  0.3501813E+03  0.7546771E-02  0.1062541E+00
         21   -1    0    0  502  501  0.00000000000E+00  0.00000000000E+00  0.41924826198E+02  0.41924826198E+02  0.00000000000E+00 0.  1.
         21   -1    0    0  501  502 -0.00000000000E+00 -0.00000000000E+00 -0.29249238032E+04  0.29249238032E+04  0.00000000000E+00 0.  1.
         25    1    1    2    0    0 -0.24150749459E+03  0.12476748997E+03 -0.13679463238E+04  0.14002838788E+04  0.12500000000E+03 0.  0.
         25    1    1    2    0    0  0.20057317889E+03 -0.11326494155E+03 -0.89344966808E+03  0.93109390314E+03  0.12500000000E+03 0.  0.
         25    1    1    2    0    0  0.40934315700E+02 -0.11502548422E+02 -0.62160298515E+03  0.63547084746E+03  0.12500000000E+03 0.  0.
</event>
<event>
 5    0  0.5619558E-005  0.4109814E+03  0.7546771E-02  0.1040042E+00
         21   -1    0    0  502  501  0.00000000000E+00  0.00000000000E+00  0.60681295315E+03  0.60681295315E+03  0.00000000000E+00 0.  1.
         21   -1    0    0  501  502 -0.00000000000E+00 -0.00000000000E+00 -0.27834894904E+03  0.27834894904E+03  0.00000000000E+00 0.  1.
         25    1    1    2    0    0  0.24216233094E+03 -0.35509684750E+02  0.29130668227E+03  0.40048485036E+03  0.12500000000E+03 0.  0.
         25    1    1    2    0    0 -0.25200630918E+03  0.12201559602E+03 -0.47683219151E+02  0.31031222169E+03  0.12500000000E+03 0.  0.
         25    1    1    2    0    0  0.98439782423E+01 -0.86505911267E+02  0.84840540995E+02  0.17436483014E+03  0.12500000000E+03 0.  0.
</event>
<event>
 5    0  0.6176293E-005  0.4218394E+03  0.7546771E-02  0.1036469E+00
         21   -1    0    0  502  501  0.00000000000E+00  0.00000000000E+00  0.28994696437E+03  0.28994696437E+03  0.00000000000E+00 0.  1.
         21   -1    0    0  501  502 -0.00000000000E+00 -0.00000000000E+00 -0.61372757105E+03  0.61372757105E+03  0.00000000000E+00 0.  1.
         25    1    1    2    0    0 -0.16178229993E+03 -0.13853928175E+03 -0.20737072130E+03  0.32248141219E+03  0.12500000000E+03 0.  0.
         25    1    1    2    0    0  0.77061041130E+02 -0.91100699905E+02  0.12668489490E+03  0.21427039968E+03  0.12500000000E+03 0.  0.
         25    1    1    2    0    0  0.84721258795E+02  0.22963998165E+03 -0.24309478028E+03  0.36692272356E+03  0.12500000000E+03 0.  0.
</event>
<event>
 5    0  0.5619558E-005  0.3738332E+03  0.7546771E-02  0.1053237E+00
         21   -1    0    0  502  501  0.00000000000E+00  0.00000000000E+00  0.10903924018E+04  0.10903924018E+04  0.00000000000E+00 0.  1.
         21   -1    0    0  501  502 -0.00000000000E+00 -0.00000000000E+00 -0.12816604805E+03  0.12816604805E+03  0.00000000000E+00 0.  1.
         25    1    1    2    0    0 -0.87793577543E+02 -0.38346238600E+02  0.54696221302E+02  0.16671779418E+03  0.12500000000E+03 0.  0.
         25    1    1    2    0    0  0.94543130123E+01  0.12631479917E+03  0.85339719800E+03  0.87175489105E+03  0.12500000000E+03 0.  0.
         25    1    1    2    0    0  0.78339264531E+02 -0.87968560571E+02  0.54132934414E+02  0.18008576458E+03  0.12500000000E+03 0.  0.
</event>
<event>
 5    0  0.5619558E-005  0.7266288E+03  0.7546771E-02  0.9672747E-01
         21   -1    0    0  502  501  0.00000000000E+00  0.00000000000E+00  0.23148307836E+04  0.23148307836E+04  0.00000000000E+00 0. -1.
         21   -1    0    0  501  502 -0.00000000000E+00 -0.00000000000E+00 -0.22808987868E+03  0.22808987868E+03  0.00000000000E+00 0. -1.
         25    1    1    2    0    0 -0.18733088558E+03  0.20634920177E+03  0.64610882070E+03  0.71467087666E+03  0.12500000000E+03 0.  0.
         25    1    1    2    0    0 -0.16652754757E+03 -0.11612779468E+03 -0.86097215716E+02  0.25348534347E+03  0.12500000000E+03 0.  0.
         25    1    1    2    0    0  0.35385843315E+03 -0.90221407093E+02  0.15267293000E+04  0.15747644422E+04  0.12500000000E+03 0.  0.
</event>
<event>
 5    0  0.5619558E-005  0.5525257E+03  0.7546771E-02  0.1000911E+00
         21   -1    0    0  502  501  0.00000000000E+00  0.00000000000E+00  0.19145212467E+03  0.19145212467E+03  0.00000000000E+00 0. -1.
         21   -1    0    0  501  502 -0.00000000000E+00 -0.00000000000E+00 -0.15945742917E+04  0.15945742917E+04  0.00000000000E+00 0.  1.
         25    1    1    2    0    0 -0.21066206007E+03 -0.14862915332E+03 -0.26372228820E+01  0.28653286673E+03  0.12500000000E+03 0.  0.
         25    1    1    2    0    0  0.17474223792E+03  0.27497704056E+03 -0.10193005900E+04  0.10773791882E+04  0.12500000000E+03 0.  0.
         25    1    1    2    0    0  0.35919822152E+02 -0.12634788724E+03 -0.38118435418E+03  0.42211436141E+03  0.12500000000E+03 0.  0.
</event>
<event>
 5    0  0.5619558E-005  0.3211463E+03  0.7546771E-02  0.1075123E+00
         21   -1    0    0  502  501  0.00000000000E+00  0.00000000000E+00  0.25985955510E+03  0.25985955510E+03  0.00000000000E+00 0.  1.
         21   -1    0    0  501  502 -0.00000000000E+00 -0.00000000000E+00 -0.39688723509E+03  0.39688723509E+03  0.00000000000E+00 0.  1.
         25    1    1    2    0    0  0.18633724666E+03  0.41695787545E+02  0.13681538910E+02  0.22863134671E+03  0.12500000000E+03 0.  0.
         25    1    1    2    0    0 -0.82133793881E+02 -0.13304692732E+03 -0.13368724220E+03  0.24071710304E+03  0.12500000000E+03 0.  0.
         25    1    1    2    0    0 -0.10420345278E+03  0.91351139775E+02 -0.17021976700E+02  0.18739834044E+03  0.12500000000E+03 0.  0.
</event>
<event>
 5    0  0.5619558E-005  0.3847578E+03  0.7546771E-02  0.1049189E+00
         21   -1    0    0  502  501  0.00000000000E+00  0.00000000000E+00  0.88138767566E+02  0.88138767566E+02  0.00000000000E+00 0. -1.
         21   -1    0    0  501  502 -0.00000000000E+00 -0.00000000000E+00 -0.16796077213E+04  0.16796077213E+04  0.00000000000E+00 0. -1.
         25    1    1    2    0    0 -0.12303762399E+03  0.12182867216E+03 -0.10560093349E+03  0.23823735944E+03  0.12500000000E+03 0.  0.
         25    1    1    2    0    0  0.91611423330E+02 -0.14323186514E+03 -0.11484663771E+04  0.11676934698E+04  0.12500000000E+03 0.  0.
         25    1    1    2    0    0  0.31426200661E+02  0.21403192985E+02 -0.33740164315E+03  0.36181565963E+03  0.12500000000E+03 0.  0.
</event>
<event>
 5    0  0.5619558E-005  0.2924074E+03  0.7546771E-02  0.1089099E+00
         21   -1    0    0  502  501  0.00000000000E+00  0.00000000000E+00  0.21493166991E+04  0.21493166991E+04  0.00000000000E+00 0. -1.
         21   -1    0    0  501  502 -0.00000000000E+00 -0.00000000000E+00 -0.39781052342E+02  0.39781052342E+02  0.00000000000E+00 0. -1.
         25    1    1    2    0    0  0.78333625955E+02  0.30069277347E+02  0.31195627705E+03  0.34638423346E+03  0.12500000000E+03 0.  0.
         25    1    1    2    0    0 -0.10503259188E+03  0.12106496978E+03  0.10418945808E+04  0.10615356281E+04  0.12500000000E+03 0.  0.
         25    1    1    2    0    0  0.26698965924E+02 -0.15113424713E+03  0.75568478898E+03  0.78117788994E+03  0.12500000000E+03 0.  0.
</event>
<event>
 5    0  0.5619558E-005  0.3534621E+03  0.7546771E-02  0.1061203E+00
         21   -1    0    0  502  501  0.00000000000E+00  0.00000000000E+00  0.73169428551E+03  0.73169428551E+03  0.00000000000E+00 0. -1.
         21   -1    0    0  501  502 -0.00000000000E+00 -0.00000000000E+00 -0.17074818949E+03  0.17074818949E+03  0.00000000000E+00 0. -1.
         25    1    1    2    0    0  0.23957040806E+03 -0.31118533822E+02  0.39402587746E+03  0.47879404307E+03  0.12500000000E+03 0.  0.
         25    1    1    2    0    0 -0.19958486670E+02  0.25441913660E+02  0.96717047459E+02  0.16132209839E+03  0.12500000000E+03 0.  0.
         25    1    1    2    0    0 -0.21961192139E+03  0.56766201626E+01  0.70203171098E+02  0.26232633353E+03  0.12500000000E+03 0.  0.
</event>
<event>
 5    0  0.5619558E-005  0.2473120E+03  0.7546771E-02  0.1115015E+00
         21   -1    0    0  502  501  0.00000000000E+00  0.00000000000E+00  0.58914366075E+03  0.58914366075E+03  0.00000000000E+00 0.  1.
         21   -1    0    0  501  502 -0.00000000000E+00 -0.00000000000E+00 -0.10381717137E+03  0.10381717137E+03  0.00000000000E+00 0.  1.
         25    1    1    2    0    0  0.24832225900E+02 -0.75460805275E+02  0.14582090264E+03  0.20784539500E+03  0.12500000000E+03 0.  0.
         25    1    1    2    0    0  0.87864715224E+02  0.33494258714E+02  0.87634533066E+02  0.17929552402E+03  0.12500000000E+03 0.  0.
         25    1    1    2    0    0 -0.11269694112E+03  0.41966546561E+02  0.25187105367E+03  0.30581991309E+03  0.12500000000E+03 0.  0.
</event>
<event>
 5    0  0.5619558E-005  0.2937096E+03  0.7546771E-02  0.1088428E+00
         21   -1    0    0  502  501  0.00000000000E+00  0.00000000000E+00  0.52847888007E+02  0.52847888007E+02  0.00000000000E+00 0.  1.
         21   -1    0    0  501  502 -0.00000000000E+00 -0.00000000000E+00 -0.16323321935E+04  0.16323321935E+04  0.00000000000E+00 0.  1.
         25    1    1    2    0    0 -0.10059743936E+03  0.10630458052E+03 -0.51770546437E+03  0.55232640393E+03  0.12500000000E+03 0.  0.
         25    1    1    2    0    0  0.44841565567E+02  0.45614580711E+02 -0.72800522703E+03  0.74142300110E+03  0.12500000000E+03 0.  0.
         25    1    1    2    0    0  0.55755873797E+02 -0.15191916123E+03 -0.33377361405E+03  0.39143067643E+03  0.12500000000E+03 0.  0.
</event>
<event>
 5    0  0.5619558E-005  0.3801967E+03  0.7546771E-02  0.1050861E+00
         21   -1    0    0  502  501  0.00000000000E+00  0.00000000000E+00  0.31613928075E+03  0.31613928075E+03  0.00000000000E+00 0. -1.
         21   -1    0    0  501  502 -0.00000000000E+00 -0.00000000000E+00 -0.45723366242E+03  0.45723366242E+03  0.00000000000E+00 0.  1.
         25    1    1    2    0    0  0.19181916271E+03 -0.66809199907E+02 -0.25778154101E+03  0.35118995324E+03  0.12500000000E+03 0.  0.
         25    1    1    2    0    0 -0.18742947733E+03  0.13557938450E+03  0.72084494055E+02  0.27264033589E+03  0.12500000000E+03 0.  0.
         25    1    1    2    0    0 -0.43896853796E+01 -0.68770184591E+02  0.44602665278E+02  0.14954265404E+03  0.12500000000E+03 0.  0.
</event>
<event>
 5    0  0.5619558E-005  0.3396913E+03  0.7546771E-02  0.1066927E+00
         21   -1    0    0  502  501  0.00000000000E+00  0.00000000000E+00  0.16490789928E+04  0.16490789928E+04  0.00000000000E+00 0. -1.
         21   -1    0    0  501  502 -0.00000000000E+00 -0.00000000000E+00 -0.69972502177E+02  0.69972502177E+02  0.00000000000E+00 0. -1.
         25    1    1    2    0    0 -0.53845829354E+02 -0.15929231710E+02  0.45190552952E+02  0.14429241088E+03  0.12500000000E+03 0.  0.
         25    1    1    2    0    0  0.11643315469E+03 -0.72173686080E+02  0.67047198807E+03  0.69564603589E+03  0.12500000000E+03 0.  0.
         25    1    1    2    0    0 -0.62587325332E+02  0.88102917790E+02  0.86344394965E+03  0.87911304825E+03  0.12500000000E+03 0.  0.
</event>
<event>
 5    0  0.5619558E-005  0.3544077E+03  0.7546771E-02  0.1060820E+00
         21   -1    0    0  502  501  0.00000000000E+00  0.00000000000E+00  0.22335351255E+04  0.22335351255E+04  0.00000000000E+00 0.  1.
         21   -1    0    0  501  502 -0.00000000000E+00 -0.00000000000E+00 -0.56235866784E+02  0.56235866784E+02  0.00000000000E+00 0.  1.
         25    1    1    2    0    0  0.18801086013E+02  0.17653145266E+03  0.32514537417E+03  0.39097486998E+03  0.12500000000E+03 0.  0.
         25    1    1    2    0    0 -0.39972730364E+02 -0.24057976990E+03  0.13088170295E+04  0.13371998585E+04  0.12500000000E+03 0.  0.
         25    1    1    2    0    0  0.21171644351E+02  0.64048317232E+02  0.54333685506E+03  0.56159626382E+03  0.12500000000E+03 0.  0.
</event>
<event>
 5    0  0.5619558E-005  0.4954710E+03  0.7546771E-02  0.1014968E+00
         21   -1    0    0  502  501  0.00000000000E+00  0.00000000000E+00  0.21523136882E+03  0.21523136882E+03  0.00000000000E+00 0.  1.
         21   -1    0    0  501  502 -0.00000000000E+00 -0.00000000000E+00 -0.11405935411E+04  0.11405935411E+04  0.00000000000E+00 0.  1.
         25    1    1    2    0    0 -0.28045818639E+03 -0.18275608581E+03 -0.42281473781E+03  0.55358277044E+03  0.12500000000E+03 0.  0.
         25    1    1    2    0    0 -0.96685707584E+02 -0.21112999468E+02 -0.51554178802E+02  0.16756108781E+03  0.12500000000E+03 0.  0.
         25    1    1    2    0    0  0.37714389397E+03  0.20386908528E+03 -0.45099325567E+03  0.63468105167E+03  0.12500000000E+03 0.  0.
</event>
<event>
 5    0  0.5619558E-005  0.2709418E+03  0.7546771E-02  0.1100742E+00
         21   -1    0    0  502  501  0.00000000000E+00  0.00000000000E+00  0.32479017048E+03  0.32479017048E+03  0.00000000000E+00 0. -1.
         21   -1    0    0  501  502 -0.00000000000E+00 -0.00000000000E+00 -0.22602119579E+03  0.22602119579E+03  0.00000000000E+00 0. -1.
         25    1    1    2    0    0 -0.79424667871E+00  0.77643370616E+02 -0.54178721867E+02  0.15681026029E+03  0.12500000000E+03 0.  0.
         25    1    1    2    0    0 -0.21736854818E+02  0.87860625494E+02  0.70660083066E+02  0.16973458018E+03  0.12500000000E+03 0.  0.
         25    1    1    2    0    0  0.22531101497E+02 -0.16550399611E+03  0.82287613492E+02  0.22426652581E+03  0.12500000000E+03 0.  0.
</event>
<event>
 5    0  0.5619558E-005  0.2452700E+03  0.7546771E-02  0.1116331E+00
         21   -1    0    0  502  501  0.00000000000E+00  0.00000000000E+00  0.13911615253E+03  0.13911615253E+03  0.00000000000E+00 0.  1.
         21   -1    0    0  501  502 -0.00000000000E+00 -0.00000000000E+00 -0.43242556890E+03  0.43242556890E+03  0.00000000000E+00 0.  1.
         25    1    1    2    0    0  0.16802052044E+02  0.65196484935E+02  0.27169775853E+02  0.14455479003E+03  0.12500000000E+03 0.  0.
         25    1    1    2    0    0 -0.30198847597E+02  0.18130902507E+02 -0.17004469604E+03  0.21396471362E+03  0.12500000000E+03 0.  0.
         25    1    1    2    0    0  0.13396795553E+02 -0.83327387441E+02 -0.15043449618E+03  0.21302221779E+03  0.12500000000E+03 0.  0.
</event>
<event>
 5    0  0.5619558E-005  0.3054772E+03  0.7546771E-02  0.1082534E+00
         21   -1    0    0  502  501  0.00000000000E+00  0.00000000000E+00  0.47204923155E+02  0.47204923155E+02  0.00000000000E+00 0. -1.
         21   -1    0    0  501  502 -0.00000000000E+00 -0.00000000000E+00 -0.19768347678E+04  0.19768347678E+04  0.00000000000E+00 0. -1.
         25    1    1    2    0    0  0.45226865301E+02  0.73697174358E+02 -0.17074586297E+03  0.22859547802E+03  0.12500000000E+03 0.  0.
         25    1    1    2    0    0 -0.12847884877E+03 -0.10062555341E+03 -0.11087646250E+04  0.11276596606E+04  0.12500000000E+03 0.  0.
         25    1    1    2    0    0  0.83251983473E+02  0.26928379053E+02 -0.65011935667E+03  0.66778455229E+03  0.12500000000E+03 0.  0.
</event>
<event>
 5    0  0.5619558E-005  0.2281128E+03  0.7546771E-02  0.1127975E+00
         21   -1    0    0  502  501  0.00000000000E+00  0.00000000000E+00  0.36749515351E+03  0.36749515351E+03  0.00000000000E+00 0.  1.
         21   -1    0    0  501  502 -0.00000000000E+00 -0.00000000000E+00 -0.14159491603E+03  0.14159491603E+03  0.00000000000E+00 0.  1.
         25    1    1    2    0    0 -0.15706951146E+01 -0.90992458018E+01  0.11303629870E+03  0.16878231004E+03  0.12500000000E+03 0.  0.
         25    1    1    2    0    0  0.23030265423E+01  0.54193053494E+02  0.14968133315E+03  0.20241465478E+03  0.12500000000E+03 0.  0.
         25    1    1    2    0    0 -0.73233142770E+00 -0.45093807692E+02 -0.36817394375E+02  0.13789310472E+03  0.12500000000E+03 0.  0.
</event>
<event>
 5    0  0.5619558E-005  0.2399981E+03  0.7546771E-02  0.1119794E+00
         21   -1    0    0  502  501  0.00000000000E+00  0.00000000000E+00  0.28683640621E+03  0.28683640621E+03  0.00000000000E+00 0. -1.
         21   -1    0    0  501  502 -0.00000000000E+00 -0.00000000000E+00 -0.20080817846E+03  0.20080817846E+03  0.00000000000E+00 0. -1.
         25    1    1    2    0    0  0.51428804758E+01 -0.10898627405E+03  0.84055804737E+02  0.18599686949E+03  0.12500000000E+03 0.  0.
         25    1    1    2    0    0 -0.49103667205E+02  0.71006272465E+01 -0.17993945111E+00  0.13448651017E+03  0.12500000000E+03 0.  0.
         25    1    1    2    0    0  0.43960786730E+02  0.10188564680E+03  0.21523624621E+01  0.16716120500E+03  0.12500000000E+03 0.  0.
</event>
<event>
 5    0  0.5619558E-005  0.3336578E+03  0.7546771E-02  0.1069530E+00
         21   -1    0    0  502  501  0.00000000000E+00  0.00000000000E+00  0.49420918587E+03  0.49420918587E+03  0.00000000000E+00 0. -1.
         21   -1    0    0  501  502 -0.00000000000E+00 -0.00000000000E+00 -0.22526391730E+03  0.22526391730E+03  0.00000000000E+00 0. -1.
         25    1    1    2    0    0 -0.69728619984E+02 -0.16559034204E+03 -0.57495906761E+02  0.22630294103E+03  0.12500000000E+03 0.  0.
         25    1    1    2    0    0  0.11996923036E+03  0.15838931976E+03  0.20912546176E+03  0.31438551430E+03  0.12500000000E+03 0.  0.
         25    1    1    2    0    0 -0.50240610375E+02  0.72010222797E+01  0.11731571357E+03  0.17878464784E+03  0.12500000000E+03 0.  0.
</event>
<event>
 5    0  0.5619558E-005  0.2927799E+03  0.7546771E-02  0.1088907E+00
         21   -1    0    0  502  501  0.00000000000E+00  0.00000000000E+00  0.67702947946E+03  0.67702947946E+03  0.00000000000E+00 0. -1.
         21   -1    0    0  501  502 -0.00000000000E+00 -0.00000000000E+00 -0.12661203929E+03  0.12661203929E+03  0.00000000000E+00 0. -1.
         25    1    1    2    0    0  0.44797942452E+02 -0.70743288944E+02  0.26891230650E+02  0.15283849929E+03  0.12500000000E+03 0.  0.
         25    1    1    2    0    0  0.89141155908E+02 -0.15846343840E+02  0.35551228396E+03  0.38757094362E+03  0.12500000000E+03 0.  0.
         25    1    1    2    0    0 -0.13393909836E+03  0.86589632784E+02  0.16801392556E+03  0.26323207585E+03  0.12500000000E+03 0.  0.
</event>
<event>
 5    0  0.5619558E-005  0.5862906E+03  0.7546771E-02  0.9934264E-01
         21   -1    0    0  502  501  0.00000000000E+00  0.00000000000E+00  0.35198820446E+03  0.35198820446E+03  0.00000000000E+00 0.  1.
         21   -1    0    0  501  502 -0.00000000000E+00 -0.00000000000E+00 -0.97655721924E+03  0.97655721924E+03  0.00000000000E+00 0.  1.
         25    1    1    2    0    0  0.35765802932E+03  0.41371017122E+02  0.87556214489E+02  0.39105232091E+03  0.12500000000E+03 0.  0.
         25    1    1    2    0    0  0.11420286767E+02 -0.94126044482E+01 -0.44877297998E+03  0.46609141553E+03  0.12500000000E+03 0.  0.
         25    1    1    2    0    0 -0.36907831608E+03 -0.31958412674E+02 -0.26335224930E+03  0.47140168726E+03  0.12500000000E+03 0.  0.
</event>
<event>
 5    0  0.5619558E-005  0.4719407E+03  0.7546771E-02  0.1021374E+00
         21   -1    0    0  502  501  0.00000000000E+00  0.00000000000E+00  0.50448669340E+03  0.50448669340E+03  0.00000000000E+00 0. -1.
         21   -1    0    0  501  502 -0.00000000000E+00 -0.00000000000E+00 -0.44149437197E+03  0.44149437197E+03  0.00000000000E+00 0. -1.
         25    1    1    2    0    0  0.31643657487E+02 -0.57420049987E+02 -0.72028619354E+02  0.15846610112E+03  0.12500000000E+03 0.  0.
         25    1    1    2    0    0 -0.68338447113E+01 -0.30029953299E+03 -0.10068132826E+03  0.34057046379E+03  0.12500000000E+03 0.  0.
         25    1    1    2    0    0 -0.24809812775E+02  0.35771958298E+03  0.23570226904E+03  0.44694450046E+03  0.12500000000E+03 0.  0.
</event>
<event>
 5    0  0.5619558E-005  0.3710211E+03  0.7546771E-02  0.1054303E+00
         21   -1    0    0  502  501  0.00000000000E+00  0.00000000000E+00  0.44005515089E+03  0.44005515089E+03  0.00000000000E+00 0. -1.
         21   -1    0    0  501  502 -0.00000000000E+00 -0.00000000000E+00 -0.31281683957E+03  0.31281683957E+03  0.00000000000E+00 0. -1.
         25    1    1    2    0    0 -0.18544134003E+03 -0.12974997630E+03 -0.45948460048E+02  0.26260199527E+03  0.12500000000E+03 0.  0.
         25    1    1    2    0    0  0.93073157981E+02  0.18183161559E+03  0.21420094563E+03  0.32129798362E+03  0.12500000000E+03 0.  0.
         25    1    1    2    0    0  0.92368182044E+02 -0.52081639294E+02 -0.41014174269E+02  0.16897201158E+03  0.12500000000E+03 0.  0.
</event>
<event>
 5    0  0.5619558E-005  0.3243595E+03  0.7546771E-02  0.1073660E+00
         21   -1    0    0  502  501  0.00000000000E+00  0.00000000000E+00  0.17604303684E+04  0.17604303684E+04  0.00000000000E+00 0.  1.
         21   -1    0    0  501  502 -0.00000000000E+00 -0.00000000000E+00 -0.59763266345E+02  0.59763266345E+02  0.00000000000E+00 0.  1.
         25    1    1    2    0    0 -0.82443628463E+02  0.97738055962E+02  0.51853520493E+03  0.54850108315E+03  0.12500000000E+03 0.  0.
         25    1    1    2    0    0  0.37246098369E+02 -0.35412011388E+02  0.10900501746E+04  0.10983968616E+04  0.12500000000E+03 0.  0.
         25    1    1    2    0    0  0.45197530094E+02 -0.62326044574E+02  0.92081722547E+02  0.17329569004E+03  0.12500000000E+03 0.  0.
</event>
<event>
 5    0  0.5619558E-005  0.2783154E+03  0.7546771E-02  0.1096613E+00
         21   -1    0    0  502  501  0.00000000000E+00  0.00000000000E+00  0.14872974408E+03  0.14872974408E+03  0.00000000000E+00 0. -1.
         21   -1    0    0  501  502 -0.00000000000E+00 -0.00000000000E+00 -0.52080683040E+03  0.52080683040E+03  0.00000000000E+00 0. -1.
         25    1    1    2    0    0 -0.84823360952E+02  0.19356550288E+02  0.13581718086E+02  0.15290239262E+03  0.12500000000E+03 0.  0.
         25    1    1    2    0    0 -0.58053659108E+02 -0.50861537261E+02 -0.20857719194E+03  0.25512069361E+03  0.12500000000E+03 0.  0.
         25    1    1    2    0    0  0.14287702006E+03  0.31504986973E+02 -0.17708161247E+03  0.26151348825E+03  0.12500000000E+03 0.  0.
</event>
<event>
 5    0  0.5619558E-005  0.4167274E+03  0.7546771E-02  0.1038137E+00
         21   -1    0    0  502  501  0.00000000000E+00  0.00000000000E+00  0.86313117332E+03  0.86313117332E+03  0.00000000000E+00 0.  1.
         21   -1    0    0  501  502 -0.00000000000E+00 -0.00000000000E+00 -0.20119968726E+03  0.20119968726E+03  0.00000000000E+00 0.  1.
         25    1    1    2    0    0  0.16765957428E+03 -0.14020147774E+03 -0.67263245334E+02  0.26060608470E+03  0.12500000000E+03 0.  0.
         25    1    1    2    0    0 -0.58393200500E+02  0.66540309027E+02  0.27921614624E+03  0.31847140360E+03  0.12500000000E+03 0.  0.
         25    1    1    2    0    0 -0.10926637378E+03  0.73661168716E+02  0.44997858515E+03  0.48525337228E+03  0.12500000000E+03 0.  0.
</event>
<event>
 5    0  0.5619558E-005  0.2634564E+03  0.7546771E-02  0.1105084E+00
         21   -1    0    0  502  501  0.00000000000E+00  0.00000000000E+00  0.21361837528E+03  0.21361837528E+03  0.00000000000E+00 0. -1.
         21   -1    0    0  501  502 -0.00000000000E+00 -0.00000000000E+00 -0.32492190607E+03  0.32492190607E+03  0.00000000000E+00 0. -1.
         25    1    1    2    0    0 -0.30061249462E+02 -0.38726002918E+02 -0.18704352104E+03  0.23024695608E+03  0.12500000000E+03 0.  0.
         25    1    1    2    0    0  0.73278497487E+02 -0.86236642061E+01  0.83758068901E+02  0.16758436647E+03  0.12500000000E+03 0.  0.
         25    1    1    2    0    0 -0.43217248025E+02  0.47349667124E+02 -0.80180786530E+01  0.14070895881E+03  0.12500000000E+03 0.  0.
</event>
<event>
 5    0  0.5619558E-005  0.3487681E+03  0.7546771E-02  0.1063122E+00
         21   -1    0    0  502  501  0.00000000000E+00  0.00000000000E+00  0.44919845840E+03  0.44919845840E+03  0.00000000000E+00 0.  1.
         21   -1    0    0  501  502 -0.00000000000E+00 -0.00000000000E+00 -0.27079170392E+03  0.27079170392E+03  0.00000000000E+00 0.  1.
         25    1    1    2    0    0  0.10103355475E+03  0.90181760303E+01  0.10371726451E+02  0.16131236590E+03  0.12500000000E+03 0.  0.
         25    1    1    2    0    0  0.23064120488E+02 -0.22022132956E+03  0.48719863690E+02  0.25889768783E+03  0.12500000000E+03 0.  0.
         25    1    1    2    0    0 -0.12409767523E+03  0.21120315353E+03  0.11931516434E+03  0.29978010858E+03  0.12500000000E+03 0.  0.
</event>
<event>
 5    0  0.7860160E-005  0.4060907E+03  0.7546771E-02  0.1041691E+00
         21   -1    0    0  502  501  0.00000000000E+00  0.00000000000E+00  0.99146201407E+03  0.99146201407E+03  0.00000000000E+00 0.  1.
         21   -1    0    0  501  502 -0.00000000000E+00 -0.00000000000E+00 -0.16632977212E+03  0.16632977212E+03  0.00000000000E+00 0.  1.
         25    1    1    2    0    0 -0.22200943693E+03 -0.14018316666E+03  0.31653511048E+03  0.42983599950E+03  0.12500000000E+03 0.  0.
         25    1    1    2    0    0  0.77567098882E+02  0.72141858438E+02  0.49871296259E+03  0.52493877892E+03  0.12500000000E+03 0.  0.
         25    1    1    2    0    0  0.14444233805E+03  0.68041308219E+02  0.98841688836E+01  0.20301700776E+03  0.12500000000E+03 0.  0.
</event>
<event>
 5    0  0.5619558E-005  0.2846674E+03  0.7546771E-02  0.1093167E+00
         21   -1    0    0  502  501  0.00000000000E+00  0.00000000000E+00  0.31213343227E+03  0.31213343227E+03  0.00000000000E+00 0. -1.
         21   -1    0    0  501  502 -0.00000000000E+00 -0.00000000000E+00 -0.25961821680E+03  0.25961821680E+03  0.00000000000E+00 0. -1.
         25    1    1    2    0    0  0.64675220503E+02 -0.97858210518E+02  0.32486594074E+02  0.17446917294E+03  0.12500000000E+03 0.  0.
         25    1    1    2    0    0 -0.17299763811E+03  0.76095549874E+02  0.36994785895E+02  0.22959165857E+03  0.12500000000E+03 0.  0.
         25    1    1    2    0    0  0.10832241761E+03  0.21762660643E+02 -0.16966164493E+02  0.16769081755E+03  0.12500000000E+03 0.  0.
</event>
<event>
 5    0  0.5619558E-005  0.4318017E+03  0.7546771E-02  0.1033292E+00
         21   -1    0    0  502  501  0.00000000000E+00  0.00000000000E+00  0.15368051066E+04  0.15368051066E+04  0.00000000000E+00 0.  1.
         21   -1    0    0  501  502 -0.00000000000E+00 -0.00000000000E+00 -0.12132486554E+03  0.12132486554E+03  0.00000000000E+00 0.  1.
         25    1    1    2    0    0 -0.25118566626E+02 -0.35319017681E+02  0.36510769659E+03  0.38833877673E+03  0.12500000000E+03 0.  0.
         25    1    1    2    0    0 -0.26362604376E+03 -0.10848216270E+03  0.74854722248E+03  0.81068798860E+03  0.12500000000E+03 0.  0.
         25    1    1    2    0    0  0.28874461039E+03  0.14380118038E+03  0.30182532197E+03  0.45910320679E+03  0.12500000000E+03 0.  0.
</event>
<event>
 5    0  0.5619558E-005  0.2604074E+03  0.7546771E-02  0.1106899E+00
         21   -1    0    0  502  501  0.00000000000E+00  0.00000000000E+00  0.19164053826E+02  0.19164053826E+02  0.00000000000E+00 0. -1.
         21   -1    0    0  501  502 -0.00000000000E+00 -0.00000000000E+00 -0.35385007989E+04  0.35385007989E+04  0.00000000000E+00 0. -1.
         25    1    1    2    0    0 -0.13861934606E+02 -0.12509064114E+03 -0.13449071856E+04  0.13565545178E+04  0.12500000000E+03 0.  0.
         25    1    1    2    0    0  0.10171099726E+03  0.90197119512E+02 -0.11314822194E+04  0.11464543865E+04  0.12500000000E+03 0.  0.
         25    1    1    2    0    0 -0.87849062657E+02  0.34893521627E+02 -0.10429473400E+04  0.10546559485E+04  0.12500000000E+03 0.  0.
</event>
<event>
 5    0  0.5619558E-005  0.4218053E+03  0.7546771E-02  0.1036480E+00
         21   -1    0    0  502  501  0.00000000000E+00  0.00000000000E+00  0.20341910273E+03  0.20341910273E+03  0.00000000000E+00 0.  1.
         21   -1    0    0  501  502 -0.00000000000E+00 -0.00000000000E+00 -0.87464611543E+03  0.87464611543E+03  0.00000000000E+00 0.  1.
         25    1    1    2    0    0 -0.48217335400E+02  0.52028131765E+02 -0.41013485493E+03  0.43458881389E+03  0.12500000000E+03 0.  0.
         25    1    1    2    0    0  0.13516346511E+03  0.13753041966E+03 -0.31936592158E+03  0.39345059473E+03  0.12500000000E+03 0.  0.
         25    1    1    2    0    0 -0.86946129712E+02 -0.18955855142E+03  0.58273763806E+02  0.25002580954E+03  0.12500000000E+03 0.  0.
</event>
<event>
 5    0  0.5619558E-005  0.2741838E+03  0.7546771E-02  0.1098909E+00
         21   -1    0    0  502  501  0.00000000000E+00  0.00000000000E+00  0.10278701771E+04  0.10278701771E+04  0.00000000000E+00 0.  1.
         21   -1    0    0  501  502 -0.00000000000E+00 -0.00000000000E+00 -0.73138398573E+02  0.73138398573E+02  0.00000000000E+00 0.  1.
         25    1    1    2    0    0 -0.27586418295E+01  0.19771837860E+02  0.12864190239E+03  0.18047790648E+03  0.12500000000E+03 0.  0.
         25    1    1    2    0    0  0.51042336255E+02  0.12376839555E+03  0.23671689871E+03  0.29930557289E+03  0.12500000000E+03 0.  0.
         25    1    1    2    0    0 -0.48283694425E+02 -0.14354023341E+03  0.58937297741E+03  0.62122509629E+03  0.12500000000E+03 0.  0.
</event>
<event>
 5    0  0.5619558E-005  0.2664381E+03  0.7546771E-02  0.1103336E+00
         21   -1    0    0  502  501  0.00000000000E+00  0.00000000000E+00  0.51888700187E+02  0.51888700187E+02  0.00000000000E+00 0.  1.
         21   -1    0    0  501  502 -0.00000000000E+00 -0.00000000000E+00 -0.13681060742E+04  0.13681060742E+04  0.00000000000E+00 0.  1.
         25    1    1    2    0    0  0.46212295100E+02  0.45999888922E+02 -0.25835046062E+03  0.29431535214E+03  0.12500000000E+03 0.  0.
         25    1    1    2    0    0 -0.13304953523E+03 -0.10928637717E+03 -0.70108353142E+03  0.73265872621E+03  0.12500000000E+03 0.  0.
         25    1    1    2    0    0  0.86837240126E+02  0.63286488245E+02 -0.35678338195E+03  0.39302069602E+03  0.12500000000E+03 0.  0.
</event>
<event>
 5    0  0.5619558E-005  0.2922246E+03  0.7546771E-02  0.1089193E+00
         21   -1    0    0  502  501  0.00000000000E+00  0.00000000000E+00  0.65886702511E+02  0.65886702511E+02  0.00000000000E+00 0.  1.
         21   -1    0    0  501  502 -0.00000000000E+00 -0.00000000000E+00 -0.12960922641E+04  0.12960922641E+04  0.00000000000E+00 0.  1.
         25    1    1    2    0    0 -0.93187628739E+02  0.95032183676E+02 -0.93319094871E+03  0.95088663722E+03  0.12500000000E+03 0.  0.
         25    1    1    2    0    0  0.40845767981E+02 -0.37338769220E+02 -0.15121265373E+03  0.20384510565E+03  0.12500000000E+03 0.  0.
         25    1    1    2    0    0  0.52341860758E+02 -0.57693414456E+02 -0.14580195916E+03  0.20724722375E+03  0.12500000000E+03 0.  0.
</event>
<event>
 5    0  0.5619558E-005  0.2389680E+03  0.7546771E-02  0.1120482E+00
         21   -1    0    0  502  501  0.00000000000E+00  0.00000000000E+00  0.50045660030E+03  0.50045660030E+03  0.00000000000E+00 0. -1.
         21   -1    0    0  501  502 -0.00000000000E+00 -0.00000000000E+00 -0.11410718235E+03  0.11410718235E+03  0.00000000000E+00 0. -1.
         25    1    1    2    0    0  0.48588102437E+02 -0.40893062211E+02  0.55245329713E+02  0.15069868178E+03  0.12500000000E+03 0.  0.
         25    1    1    2    0    0 -0.48137531203E+02  0.46326412828E+02  0.40400071660E+02  0.14737884592E+03  0.12500000000E+03 0.  0.
         25    1    1    2    0    0 -0.45057123344E+00 -0.54333506170E+01  0.29070401658E+03  0.31648625495E+03  0.12500000000E+03 0.  0.
</event>
<event>
 5    0  0.5619558E-005  0.3067326E+03  0.7546771E-02  0.1081923E+00
         21   -1    0    0  502  501  0.00000000000E+00  0.00000000000E+00  0.17594674108E+03  0.17594674108E+03  0.00000000000E+00 0.  1.
         21   -1    0    0  501  502 -0.00000000000E+00 -0.00000000000E+00 -0.53473509941E+03  0.53473509941E+03  0.00000000000E+00 0.  1.
         25    1    1    2    0    0 -0.59243393825E+01  0.99002507614E+02 -0.29948593227E+03  0.33934262617E+03  0.12500000000E+03 0.  0.
         25    1    1    2    0    0  0.48391717283E+01 -0.88128270085E+02  0.89044706210E+02  0.17704228104E+03  0.12500000000E+03 0.  0.
         25    1    1    2    0    0  0.10851676542E+01 -0.10874237529E+02 -0.14834713227E+03  0.19429693329E+03  0.12500000000E+03 0.  0.
</event>
<event>
 5    0  0.5619558E-005  0.5025503E+03  0.7546771E-02  0.1013115E+00
         21   -1    0    0  502  501  0.00000000000E+00  0.00000000000E+00  0.50179040474E+03  0.50179040474E+03  0.00000000000E+00 0.  1.
         21   -1    0    0  501  502 -0.00000000000E+00 -0.00000000000E+00 -0.50331135881E+03  0.50331135881E+03  0.00000000000E+00 0.  1.
         25    1    1    2    0    0  0.42187579578E+03 -0.29977121989E+02  0.16810171927E+03  0.47197563807E+03  0.12500000000E+03 0.  0.
         25    1    1    2    0    0 -0.21251141921E+03  0.45438767850E+02 -0.32088724723E+02  0.25274586282E+03  0.12500000000E+03 0.  0.
         25    1    1    2    0    0 -0.20936437657E+03 -0.15461645861E+02 -0.13753394862E+03  0.28038026266E+03  0.12500000000E+03 0.  0.
</event>
<event>
 5    0  0.5619558E-005  0.2893739E+03  0.7546771E-02  0.1090676E+00
         21   -1    0    0  502  501  0.00000000000E+00  0.00000000000E+00  0.47252437253E+03  0.47252437253E+03  0.00000000000E+00 0.  1.
         21   -1    0    0  501  502 -0.00000000000E+00 -0.00000000000E+00 -0.17721259328E+03  0.17721259328E+03  0.00000000000E+00 0.  1.
         25    1    1    2    0    0 -0.53589364941E+01  0.52951582974E+02  0.45867336543E+02  0.14339247156E+03  0.12500000000E+03 0.  0.
         25    1    1    2    0    0 -0.11735986024E+03 -0.12572498744E+03  0.23379380885E+03  0.31601369324E+03  0.12500000000E+03 0.  0.
         25    1    1    2    0    0  0.12271879674E+03  0.72773404467E+02  0.15650633863E+02  0.19033080100E+03  0.12500000000E+03 0.  0.
</event>
<event>
 5    0  0.5619558E-005  0.2134723E+03  0.7546771E-02  0.1138845E+00
         21   -1    0    0  502  501  0.00000000000E+00  0.00000000000E+00  0.42779126454E+03  0.42779126454E+03  0.00000000000E+00 0.  1.
         21   -1    0    0  501  502 -0.00000000000E+00 -0.00000000000E+00 -0.10652489382E+03  0.10652489382E+03  0.00000000000E+00 0.  1.
         25    1    1    2    0    0  0.13125652428E+02 -0.44458445551E+02  0.61803206175E+02  0.14694717563E+03  0.12500000000E+03 0.  0.
         25    1    1    2    0    0  0.44686539696E+02  0.41917591535E+02  0.78076815487E+02  0.15960877303E+03  0.12500000000E+03 0.  0.
         25    1    1    2    0    0 -0.57812192123E+02  0.25408540155E+01  0.18138634906E+03  0.22776020970E+03  0.12500000000E+03 0.  0.
</event>
<event>
 5    0  0.5619558E-005  0.2379641E+03  0.7546771E-02  0.1121157E+00
         21   -1    0    0  502  501  0.00000000000E+00  0.00000000000E+00  0.12677791764E+04  0.12677791764E+04  0.00000000000E+00 0. -1.
         21   -1    0    0  501  502 -0.00000000000E+00 -0.00000000000E+00 -0.44666232776E+02  0.44666232776E+02  0.00000000000E+00 0. -1.
         25    1    1    2    0    0  0.11888720994E+03 -0.31096039111E+02  0.57585084350E+03  0.60193880611E+03  0.12500000000E+03 0.  0.
         25    1    1    2    0    0 -0.75449066227E+02  0.44120797475E+01  0.23493643297E+03  0.27664445699E+03  0.12500000000E+03 0.  0.
         25    1    1    2    0    0 -0.43438143710E+02  0.26683959364E+02  0.41232566718E+03  0.43386214611E+03  0.12500000000E+03 0.  0.
</event>
<event>
 5    0  0.5619558E-005  0.2857735E+03  0.7546771E-02  0.1092577E+00
         21   -1    0    0  502  501  0.00000000000E+00  0.00000000000E+00  0.94869881231E+03  0.94869881231E+03  0.00000000000E+00 0. -1.
         21   -1    0    0  501  502 -0.00000000000E+00 -0.00000000000E+00 -0.86082623975E+02  0.86082623975E+02  0.00000000000E+00 0. -1.
         25    1    1    2    0    0  0.15619361246E+02  0.93474723798E+02  0.10272289081E+03  0.18750594852E+03  0.12500000000E+03 0.  0.
         25    1    1    2    0    0  0.10898337026E+03 -0.79527973472E+02  0.50047742387E+03  0.53320233061E+03  0.12500000000E+03 0.  0.
         25    1    1    2    0    0 -0.12460273151E+03 -0.13946750326E+02  0.25941587365E+03  0.31407315716E+03  0.12500000000E+03 0.  0.
</event>
<event>
 5    0  0.5619558E-005  0.3062954E+03  0.7546771E-02  0.1082135E+00
         21   -1    0    0  502  501  0.00000000000E+00  0.00000000000E+00  0.72437263616E+03  0.72437263616E+03  0.00000000000E+00 0. -1.
         21   -1    0    0  501  502 -0.00000000000E+00 -0.00000000000E+00 -0.12951468457E+03  0.12951468457E+03  0.00000000000E+00 0.  1.
         25    1    1    2    0    0 -0.28917195905E+02 -0.90396579893E+02  0.12742905350E+03  0.20216554986E+03  0.12500000000E+03 0.  0.
         25    1    1    2    0    0  0.89553021025E+02  0.87206070260E+02  0.13833440536E+02  0.17731611980E+03  0.12500000000E+03 0.  0.
         25    1    1    2    0    0 -0.60635825120E+02  0.31905096333E+01  0.45359545756E+03  0.47440565107E+03  0.12500000000E+03 0.  0.
</event>
<event>
 5    0  0.5619558E-005  0.3745826E+03  0.7546771E-02  0.1052954E+00
         21   -1    0    0  502  501  0.00000000000E+00  0.00000000000E+00  0.22166279121E+03  0.22166279121E+03  0.00000000000E+00 0.  1.
         21   -1    0    0  501  502 -0.00000000000E+00 -0.00000000000E+00 -0.63299805226E+03  0.63299805226E+03  0.00000000000E+00 0.  1.
         25    1    1    2    0    0 -0.13795617601E+02 -0.94562954399E+02  0.40308260291E+02  0.16242606705E+03  0.12500000000E+03 0.  0.
         25    1    1    2    0    0 -0.15147550556E+03  0.11372794719E+03 -0.39256369584E+02  0.23031486558E+03  0.12500000000E+03 0.  0.
         25    1    1    2    0    0  0.16527112316E+03 -0.19164992789E+02 -0.41238715175E+03  0.46191991084E+03  0.12500000000E+03 0.  0.
</event>
<event>
 5    0  0.5619558E-005  0.2686530E+03  0.7546771E-02  0.1102053E+00
         21   -1    0    0  502  501  0.00000000000E+00  0.00000000000E+00  0.40342910302E+03  0.40342910302E+03  0.00000000000E+00 0.  1.
         21   -1    0    0  501  502 -0.00000000000E+00 -0.00000000000E+00 -0.17890245172E+03  0.17890245172E+03  0.00000000000E+00 0.  1.
         25    1    1    2    0    0  0.14489325711E+03 -0.25454486559E+02  0.13057659583E+03  0.23306058058E+03  0.12500000000E+03 0.  0.
         25    1    1    2    0    0 -0.36445123171E+02  0.49830060985E+02 -0.28083583100E+02  0.14221451972E+03  0.12500000000E+03 0.  0.
         25    1    1    2    0    0 -0.10844813394E+03 -0.24375574426E+02  0.12203363857E+03  0.20705645444E+03  0.12500000000E+03 0.  0.
</event>
<event>
 5    0  0.5619558E-005  0.3645421E+03  0.7546771E-02  0.1056800E+00
         21   -1    0    0  502  501  0.00000000000E+00  0.00000000000E+00  0.99669123434E+02  0.99669123434E+02  0.00000000000E+00 0. -1.
         21   -1    0    0  501  502 -0.00000000000E+00 -0.00000000000E+00 -0.13333208675E+04  0.13333208675E+04  0.00000000000E+00 0. -1.
         25    1    1    2    0    0 -0.19971185152E+02  0.30177489712E+02 -0.52331678595E+03  0.53925410298E+03  0.12500000000E+03 0.  0.
         25    1    1    2    0    0 -0.41459347292E+02  0.20576180066E+02  0.31722514317E+02  0.13701669453E+03  0.12500000000E+03 0.  0.
         25    1    1    2    0    0  0.61430532444E+02 -0.50753669778E+02 -0.74205747246E+03  0.75671919346E+03  0.12500000000E+03 0.  0.
</event>
<event>
 5    0  0.5619558E-005  0.3101916E+03  0.7546771E-02  0.1080254E+00
         21   -1    0    0  502  501  0.00000000000E+00  0.00000000000E+00  0.38840260971E+03  0.38840260971E+03  0.00000000000E+00 0. -1.
         21   -1    0    0  501  502 -0.00000000000E+00 -0.00000000000E+00 -0.24772964738E+03  0.24772964738E+03  0.00000000000E+00 0. -1.
         25    1    1    2    0    0  0.71653920219E+02  0.27328183910E+02 -0.34098931198E+02  0.15056178475E+03  0.12500000000E+03 0.  0.
         25    1    1    2    0    0 -0.68076995343E+02  0.16783111635E+03  0.67625716139E+02  0.23021728517E+03  0.12500000000E+03 0.  0.
         25    1    1    2    0    0 -0.35769248761E+01 -0.19515930026E+03  0.10714617738E+03  0.25535318717E+03  0.12500000000E+03 0.  0.
</event>
<event>
 5    0  0.5619558E-005  0.4937026E+03  0.7546771E-02  0.1015436E+00
         21   -1    0    0  502  501  0.00000000000E+00  0.00000000000E+00  0.10181435094E+04  0.10181435094E+04  0.00000000000E+00 0.  1.
         21   -1    0    0  501  502 -0.00000000000E+00 -0.00000000000E+00 -0.23939876653E+03  0.23939876653E+03  0.00000000000E+00 0.  1.
         25    1    1    2    0    0 -0.18678691247E+03  0.21222256020E+03  0.36173959488E+03  0.47582381217E+03  0.12500000000E+03 0.  0.
         25    1    1    2    0    0  0.19642075459E+02 -0.31482209691E+03  0.43988397398E+02  0.34213848503E+03  0.12500000000E+03 0.  0.
         25    1    1    2    0    0  0.16714483702E+03  0.10259953672E+03  0.37301675056E+03  0.43957997870E+03  0.12500000000E+03 0.  0.
</event>
<event>
 5    0  0.5619558E-005  0.4217869E+03  0.7546771E-02  0.1036486E+00
         21   -1    0    0  502  501  0.00000000000E+00  0.00000000000E+00  0.47556791492E+03  0.47556791492E+03  0.00000000000E+00 0. -1.
         21   -1    0    0  501  502 -0.00000000000E+00 -0.00000000000E+00 -0.37408794651E+03  0.37408794651E+03  0.00000000000E+00 0. -1.
         25    1    1    2    0    0 -0.25437596963E+03  0.14895733341E+03  0.13968054297E+03  0.34932946510E+03  0.12500000000E+03 0.  0.
         25    1    1    2    0    0  0.27740334623E+03 -0.47211046183E+02 -0.10360356918E+03  0.32486951062E+03  0.12500000000E+03 0.  0.
         25    1    1    2    0    0 -0.23027376600E+02 -0.10174628723E+03  0.65402994630E+02  0.17545688571E+03  0.12500000000E+03 0.  0.
</event>
<event>
 5    0  0.5619558E-005  0.2130202E+03  0.7546771E-02  0.1139196E+00
         21   -1    0    0  502  501  0.00000000000E+00  0.00000000000E+00  0.28749224293E+02  0.28749224293E+02  0.00000000000E+00 0.  1.
         21   -1    0    0  501  502 -0.00000000000E+00 -0.00000000000E+00 -0.15783947699E+04  0.15783947699E+04  0.00000000000E+00 0.  1.
         25    1    1    2    0    0 -0.60914650762E+02 -0.27014008561E+02 -0.69338920238E+03  0.70771034846E+03  0.12500000000E+03 0.  0.
         25    1    1    2    0    0  0.11455441364E+02 -0.84797864335E+01 -0.28557481199E+03  0.31205946094E+03  0.12500000000E+03 0.  0.
         25    1    1    2    0    0  0.49459209397E+02  0.35493794994E+02 -0.57068153121E+03  0.58737418478E+03  0.12500000000E+03 0.  0.
</event>
<event>
 5    0  0.5619558E-005  0.2802348E+03  0.7546771E-02  0.1095561E+00
         21   -1    0    0  502  501  0.00000000000E+00  0.00000000000E+00  0.50713311159E+03  0.50713311159E+03  0.00000000000E+00 0. -1.
         21   -1    0    0  501  502 -0.00000000000E+00 -0.00000000000E+00 -0.15485389645E+03  0.15485389645E+03  0.00000000000E+00 0. -1.
         25    1    1    2    0    0  0.45592166762E+02  0.89145196218E+00  0.72028335974E+02  0.15130274796E+03  0.12500000000E+03 0.  0.
         25    1    1    2    0    0  0.42464946768E+02 -0.45689833318E+02 -0.46435927397E+02  0.14721456425E+03  0.12500000000E+03 0.  0.
         25    1    1    2    0    0 -0.88057113531E+02  0.44798381355E+02  0.32668680656E+03  0.36346969584E+03  0.12500000000E+03 0.  0.
</event>
<event>
 5    0  0.5619558E-005  0.2270427E+03  0.7546771E-02  0.1128739E+00
         21   -1    0    0  502  501  0.00000000000E+00  0.00000000000E+00  0.35274764750E+03  0.35274764750E+03  0.00000000000E+00 0.  1.
         21   -1    0    0  501  502 -0.00000000000E+00 -0.00000000000E+00 -0.14613383199E+03  0.14613383199E+03  0.00000000000E+00 0.  1.
         25    1    1    2    0    0  0.40697252082E+01 -0.94643847694E+01  0.20358398283E+03  0.23911832909E+03  0.12500000000E+03 0.  0.
         25    1    1    2    0    0 -0.22698784632E+02 -0.22734936911E+02  0.73735782040E+01  0.12927289676E+03  0.12500000000E+03 0.  0.
         25    1    1    2    0    0  0.18629059424E+02  0.32199321681E+02 -0.43437455292E+01  0.13049025365E+03  0.12500000000E+03 0.  0.
</event>
<event>
 5    0  0.5619558E-005  0.2641457E+03  0.7546771E-02  0.1104678E+00
         21   -1    0    0  502  501  0.00000000000E+00  0.00000000000E+00  0.77405756498E+03  0.77405756498E+03  0.00000000000E+00 0.  1.
         21   -1    0    0  501  502 -0.00000000000E+00 -0.00000000000E+00 -0.90139197028E+02  0.90139197028E+02  0.00000000000E+00 0.  1.
         25    1    1    2    0    0  0.11095985948E+03  0.17198756378E+02  0.44410016682E+03  0.47482401562E+03  0.12500000000E+03 0.  0.
         25    1    1    2    0    0 -0.12213981668E+03  0.18410458556E+02  0.12585845990E+03  0.21615372246E+03  0.12500000000E+03 0.  0.
         25    1    1    2    0    0  0.11179957193E+02 -0.35609214934E+02  0.11395974122E+03  0.17321902393E+03  0.12500000000E+03 0.  0.
</event>
<event>
 5    0  0.5619558E-005  0.2347349E+03  0.7546771E-02  0.1123351E+00
         21   -1    0    0  502  501  0.00000000000E+00  0.00000000000E+00  0.32041320870E+03  0.32041320870E+03  0.00000000000E+00 0. -1.
         21   -1    0    0  501  502 -0.00000000000E+00 -0.00000000000E+00 -0.17196685908E+03  0.17196685908E+03  0.00000000000E+00 0. -1.
         25    1    1    2    0    0  0.56609000486E+02 -0.74112234106E+01 -0.60378343651E+02  0.15010013175E+03  0.12500000000E+03 0.  0.
         25    1    1    2    0    0 -0.57565220364E+02 -0.27608936613E+02  0.12327578736E+03  0.18680987052E+03  0.12500000000E+03 0.  0.
         25    1    1    2    0    0  0.95621987767E+00  0.35020160023E+02  0.85548905916E+02  0.15547006550E+03  0.12500000000E+03 0.  0.
</event>
<event>
 5    0  0.6004065E-005  0.3725300E+03  0.7546771E-02  0.1053730E+00
         21   -1    0    0  502  501  0.00000000000E+00  0.00000000000E+00  0.87029284934E+03  0.87029284934E+03  0.00000000000E+00 0. -1.
         21   -1    0    0  501  502 -0.00000000000E+00 -0.00000000000E+00 -0.15946195606E+03  0.15946195606E+03  0.00000000000E+00 0. -1.
         25    1    1    2    0    0 -0.65721178985E+02 -0.73250067834E+02  0.53796507835E+03  0.56099578548E+03  0.12500000000E+03 0.  0.
         25    1    1    2    0    0  0.26201329982E+02 -0.13215558422E+03  0.29788442984E+02  0.18618259712E+03  0.12500000000E+03 0.  0.
         25    1    1    2    0    0  0.39519849003E+02  0.20540565205E+03  0.14307737195E+03  0.28257642280E+03  0.12500000000E+03 0.  0.
</event>
<event>
 5    0  0.5619558E-005  0.3077452E+03  0.7546771E-02  0.1081432E+00
         21   -1    0    0  502  501  0.00000000000E+00  0.00000000000E+00  0.26413041952E+03  0.26413041952E+03  0.00000000000E+00 0.  1.
         21   -1    0    0  501  502 -0.00000000000E+00 -0.00000000000E+00 -0.35856184902E+03  0.35856184902E+03  0.00000000000E+00 0.  1.
         25    1    1    2    0    0 -0.37983376820E+02 -0.13701704764E+03 -0.75860791616E+02  0.20395163143E+03  0.12500000000E+03 0.  0.
         25    1    1    2    0    0 -0.20063461347E+02  0.11532840311E+03 -0.14956058024E+03  0.22736875381E+03  0.12500000000E+03 0.  0.
         25    1    1    2    0    0  0.58046838167E+02  0.21688644527E+02  0.13098994236E+03  0.19137188331E+03  0.12500000000E+03 0.  0.
</event>
<event>
 5    0  0.5619558E-005  0.2476851E+03  0.7546771E-02  0.1114777E+00
         21   -1    0    0  502  501  0.00000000000E+00  0.00000000000E+00  0.11905521990E+03  0.11905521990E+03  0.00000000000E+00 0.  1.
         21   -1    0    0  501  502 -0.00000000000E+00 -0.00000000000E+00 -0.51528937180E+03  0.51528937180E+03  0.00000000000E+00 0.  1.
         25    1    1    2    0    0  0.86686972296E+02  0.78179543079E+01 -0.15106675005E+03  0.21452718836E+03  0.12500000000E+03 0.  0.
         25    1    1    2    0    0 -0.92085811097E+02 -0.40982515337E+02 -0.22337331281E+02  0.16212131118E+03  0.12500000000E+03 0.  0.
         25    1    1    2    0    0  0.53988388003E+01  0.33164561029E+02 -0.22283007056E+03  0.25769609216E+03  0.12500000000E+03 0.  0.
</event>
<event>
 5    0  0.5619558E-005  0.4722422E+03  0.7546771E-02  0.1021289E+00
         21   -1    0    0  502  501  0.00000000000E+00  0.00000000000E+00  0.15847771375E+03  0.15847771375E+03  0.00000000000E+00 0. -1.
         21   -1    0    0  501  502 -0.00000000000E+00 -0.00000000000E+00 -0.14072182098E+04  0.14072182098E+04  0.00000000000E+00 0.  1.
         25    1    1    2    0    0 -0.11118579218E+03 -0.82734957835E+02 -0.18188744638E+03  0.26060582645E+03  0.12500000000E+03 0.  0.
         25    1    1    2    0    0 -0.45358908926E+02 -0.27680524816E+03 -0.27303397777E+03  0.41091499005E+03  0.12500000000E+03 0.  0.
         25    1    1    2    0    0  0.15654470110E+03  0.35954020599E+03 -0.79381907188E+03  0.89417510704E+03  0.12500000000E+03 0.  0.
</event>
<event>
 5    0  0.6031820E-005  0.3663746E+03  0.7546771E-02  0.1056088E+00
         21   -1    0    0  502  501  0.00000000000E+00  0.00000000000E+00  0.38509639785E+03  0.38509639785E+03  0.00000000000E+00 0.  1.
         21   -1    0    0  501  502 -0.00000000000E+00 -0.00000000000E+00 -0.34856296605E+03  0.34856296605E+03  0.00000000000E+00 0.  1.
         25    1    1    2    0    0  0.23785519639E+03 -0.45074186322E+02 -0.34588898919E+02  0.27464189165E+03  0.12500000000E+03 0.  0.
         25    1    1    2    0    0 -0.92794841027E+02  0.12698534559E+03  0.13396701079E+03  0.24147115873E+03  0.12500000000E+03 0.  0.
         25    1    1    2    0    0 -0.14506035536E+03 -0.81911159270E+02 -0.62844680076E+02  0.21754631352E+03  0.12500000000E+03 0.  0.
</event>
<event>
 5    0  0.5619558E-005  0.2287583E+03  0.7546771E-02  0.1127517E+00
         21   -1    0    0  502  501  0.00000000000E+00  0.00000000000E+00  0.14280701474E+03  0.14280701474E+03  0.00000000000E+00 0. -1.
         21   -1    0    0  501  502 -0.00000000000E+00 -0.00000000000E+00 -0.36644096432E+03  0.36644096432E+03  0.00000000000E+00 0. -1.
         25    1    1    2    0    0 -0.90405647742E+01  0.74472483041E+02 -0.48660370649E+01  0.14586487191E+03  0.12500000000E+03 0.  0.
         25    1    1    2    0    0 -0.26920647674E+02  0.59082541433E+01 -0.14563016213E+03  0.19388855784E+03  0.12500000000E+03 0.  0.
         25    1    1    2    0    0  0.35961212448E+02 -0.80380737184E+02 -0.73137750383E+02  0.16949454930E+03  0.12500000000E+03 0.  0.
</event>
<event>
 5    0  0.5619558E-005  0.2920810E+03  0.7546771E-02  0.1089268E+00
         21   -1    0    0  502  501  0.00000000000E+00  0.00000000000E+00  0.10707582696E+03  0.10707582696E+03  0.00000000000E+00 0. -1.
         21   -1    0    0  501  502 -0.00000000000E+00 -0.00000000000E+00 -0.79673755444E+03  0.79673755444E+03  0.00000000000E+00 0. -1.
         25    1    1    2    0    0  0.10703395989E+03  0.71394703227E+02 -0.32998805839E+02  0.18239351251E+03  0.12500000000E+03 0.  0.
         25    1    1    2    0    0 -0.97876755963E+02 -0.11233943385E+02 -0.37221072809E+03  0.40481092741E+03  0.12500000000E+03 0.  0.
         25    1    1    2    0    0 -0.91572039262E+01 -0.60160759842E+02 -0.28445219356E+03  0.31660894148E+03  0.12500000000E+03 0.  0.
</event>
<event>
 5    0  0.5619558E-005  0.3363841E+03  0.7546771E-02  0.1068347E+00
         21   -1    0    0  502  501  0.00000000000E+00  0.00000000000E+00  0.71508897672E+03  0.71508897672E+03  0.00000000000E+00 0.  1.
         21   -1    0    0  501  502 -0.00000000000E+00 -0.00000000000E+00 -0.15823801132E+03  0.15823801132E+03  0.00000000000E+00 0.  1.
         25    1    1    2    0    0  0.16152164500E+03 -0.16364664228E+03  0.20556415287E+03  0.33279285792E+03  0.12500000000E+03 0.  0.
         25    1    1    2    0    0 -0.25150613972E+02  0.16624607084E+03  0.11046391864E+03  0.23684929127E+03  0.12500000000E+03 0.  0.
         25    1    1    2    0    0 -0.13637103103E+03 -0.25994285618E+01  0.24082289388E+03  0.30368483886E+03  0.12500000000E+03 0.  0.
</event>
<event>
 5    0  0.5619558E-005  0.2544697E+03  0.7546771E-02  0.1110512E+00
         21   -1    0    0  502  501  0.00000000000E+00  0.00000000000E+00  0.71371354998E+02  0.71371354998E+02  0.00000000000E+00 0.  1.
         21   -1    0    0  501  502 -0.00000000000E+00 -0.00000000000E+00 -0.90729433408E+03  0.90729433408E+03  0.00000000000E+00 0.  1.
         25    1    1    2    0    0 -0.60566907589E+02 -0.65763386570E+02 -0.14669353793E+03  0.21245509497E+03  0.12500000000E+03 0.  0.
         25    1    1    2    0    0 -0.35830699422E+02 -0.24700198026E+02 -0.42702534839E+03  0.44706776552E+03  0.12500000000E+03 0.  0.
         25    1    1    2    0    0  0.96397607011E+02  0.90463584596E+02 -0.26220409276E+03  0.31914282858E+03  0.12500000000E+03 0.  0.
</event>
<event>
 5    0  0.5619558E-005  0.2736206E+03  0.7546771E-02  0.1099225E+00
         21   -1    0    0  502  501  0.00000000000E+00  0.00000000000E+00  0.57764149376E+03  0.57764149376E+03  0.00000000000E+00 0.  1.
         21   -1    0    0  501  502 -0.00000000000E+00 -0.00000000000E+00 -0.12961017538E+03  0.12961017538E+03  0.00000000000E+00 0.  1.
         25    1    1    2    0    0 -0.10176075100E+02  0.14103544732E+03  0.23527569244E+03  0.30161929872E+03  0.12500000000E+03 0.  0.
         25    1    1    2    0    0  0.66239202023E+01  0.16036983329E+02  0.20873943123E+02  0.12791318405E+03  0.12500000000E+03 0.  0.
         25    1    1    2    0    0  0.35521548974E+01 -0.15707243065E+03  0.19188168283E+03  0.27771918637E+03  0.12500000000E+03 0.  0.
</event>
<event>
 5    0  0.5619558E-005  0.2108578E+03  0.7546771E-02  0.1140889E+00
         21   -1    0    0  502  501  0.00000000000E+00  0.00000000000E+00  0.43122456617E+03  0.43122456617E+03  0.00000000000E+00 0.  1.
         21   -1    0    0  501  502 -0.00000000000E+00 -0.00000000000E+00 -0.10310403834E+03  0.10310403834E+03  0.00000000000E+00 0.  1.
         25    1    1    2    0    0  0.37697630774E+02  0.18598012411E+01  0.20074665436E+03  0.23947607284E+03  0.12500000000E+03 0.  0.
         25    1    1    2    0    0 -0.28552728776E+02 -0.26055383585E+02  0.29820499770E+02  0.13419539314E+03  0.12500000000E+03 0.  0.
         25    1    1    2    0    0 -0.91449019984E+01  0.24195582344E+02  0.97553373697E+02  0.16065713852E+03  0.12500000000E+03 0.  0.
</event>
<event>
 5    0  0.5619558E-005  0.3003704E+03  0.7546771E-02  0.1085056E+00
         21   -1    0    0  502  501  0.00000000000E+00  0.00000000000E+00  0.60402997288E+03  0.60402997288E+03  0.00000000000E+00 0.  1.
         21   -1    0    0  501  502 -0.00000000000E+00 -0.00000000000E+00 -0.14936743152E+03  0.14936743152E+03  0.00000000000E+00 0.  1.
         25    1    1    2    0    0 -0.62474883332E+02  0.17310829630E+03  0.28927731708E+03  0.36493281502E+03  0.12500000000E+03 0.  0.
         25    1    1    2    0    0 -0.52632170711E+02 -0.69533574667E+02  0.75912670418E+02  0.17027271340E+03  0.12500000000E+03 0.  0.
         25    1    1    2    0    0  0.11510705404E+03 -0.10357472164E+03  0.89472553859E+02  0.21819187599E+03  0.12500000000E+03 0.  0.
</event>
<event>
 5    0  0.5619558E-005  0.3345607E+03  0.7546771E-02  0.1069137E+00
         21   -1    0    0  502  501  0.00000000000E+00  0.00000000000E+00  0.32046343995E+03  0.32046343995E+03  0.00000000000E+00 0. -1.
         21   -1    0    0  501  502 -0.00000000000E+00 -0.00000000000E+00 -0.34927819123E+03  0.34927819123E+03  0.00000000000E+00 0. -1.
         25    1    1    2    0    0 -0.13252245270E+03  0.41178024794E+02  0.95828536456E+01  0.18701513650E+03  0.12500000000E+03 0.  0.
         25    1    1    2    0    0  0.15460718101E+02 -0.10940313317E+03  0.14621234161E+03  0.22183581359E+03  0.12500000000E+03 0.  0.
         25    1    1    2    0    0  0.11706173460E+03  0.68225108379E+02 -0.18460994653E+03  0.26089068109E+03  0.12500000000E+03 0.  0.
</event>
<event>
 5    0  0.5619558E-005  0.4078175E+03  0.7546771E-02  0.1041106E+00
         21   -1    0    0  502  501  0.00000000000E+00  0.00000000000E+00  0.83102160178E+02  0.83102160178E+02  0.00000000000E+00 0. -1.
         21   -1    0    0  501  502 -0.00000000000E+00 -0.00000000000E+00 -0.20013336976E+04  0.20013336976E+04  0.00000000000E+00 0. -1.
         25    1    1    2    0    0  0.68004082888E+01 -0.55948487877E+00 -0.13863771112E+04  0.13920176195E+04  0.12500000000E+03 0.  0.
         25    1    1    2    0    0  0.18958700481E+02  0.17327775958E+03 -0.17912479611E+03  0.27945537545E+03  0.12500000000E+03 0.  0.
         25    1    1    2    0    0 -0.25759108770E+02 -0.17271827470E+03 -0.35272963009E+03  0.41296286279E+03  0.12500000000E+03 0.  0.
</event>
<event>
 5    0  0.5619558E-005  0.3764166E+03  0.7546771E-02  0.1052266E+00
         21   -1    0    0  502  501  0.00000000000E+00  0.00000000000E+00  0.46321120600E+03  0.46321120600E+03  0.00000000000E+00 0.  1.
         21   -1    0    0  501  502 -0.00000000000E+00 -0.00000000000E+00 -0.30588520034E+03  0.30588520034E+03  0.00000000000E+00 0.  1.
         25    1    1    2    0    0 -0.55849824678E+02  0.11343156606E+03 -0.15495965914E+03  0.23584617668E+03  0.12500000000E+03 0.  0.
         25    1    1    2    0    0  0.96659029037E+02 -0.19328709851E+03  0.95223921926E+02  0.26719929949E+03  0.12500000000E+03 0.  0.
         25    1    1    2    0    0 -0.40809204358E+02  0.79855532449E+02  0.21706174287E+03  0.26605093016E+03  0.12500000000E+03 0.  0.
</event>
<event>
 5    0  0.5619558E-005  0.4628987E+03  0.7546771E-02  0.1023944E+00
         21   -1    0    0  502  501  0.00000000000E+00  0.00000000000E+00  0.41020010379E+03  0.41020010379E+03  0.00000000000E+00 0.  1.
         21   -1    0    0  501  502 -0.00000000000E+00 -0.00000000000E+00 -0.52236743851E+03  0.52236743851E+03  0.00000000000E+00 0.  1.
         25    1    1    2    0    0  0.19419600854E+03  0.22495586268E+03  0.11617554775E+03  0.34269372300E+03  0.12500000000E+03 0.  0.
         25    1    1    2    0    0  0.10589384254E+03 -0.35859846086E+02 -0.75695044879E+02  0.18399503870E+03  0.12500000000E+03 0.  0.
         25    1    1    2    0    0 -0.30008985108E+03 -0.18909601660E+03 -0.15264783759E+03  0.40587878059E+03  0.12500000000E+03 0.  0.
</event>
<event>
 5    0  0.5619558E-005  0.3431186E+03  0.7546771E-02  0.1065475E+00
         21   -1    0    0  502  501  0.00000000000E+00  0.00000000000E+00  0.12225178871E+04  0.12225178871E+04  0.00000000000E+00 0.  1.
         21   -1    0    0  501  502 -0.00000000000E+00 -0.00000000000E+00 -0.96301554931E+02  0.96301554931E+02  0.00000000000E+00 0.  1.
         25    1    1    2    0    0  0.71067861834E+02 -0.12109973254E+03  0.40586390321E+03  0.44728770846E+03  0.12500000000E+03 0.  0.
         25    1    1    2    0    0 -0.73732022349E+02  0.26278198380E+03  0.47385245526E+03  0.56093843823E+03  0.12500000000E+03 0.  0.
         25    1    1    2    0    0  0.26641605144E+01 -0.14168225126E+03  0.24649997367E+03  0.31059329531E+03  0.12500000000E+03 0.  0.
</event>
<event>
 5    0  0.7164819E-005  0.3323221E+03  0.7546771E-02  0.1070114E+00
         21   -1    0    0  502  501  0.00000000000E+00  0.00000000000E+00  0.75093683051E+03  0.75093683051E+03  0.00000000000E+00 0. -1.
         21   -1    0    0  501  502 -0.00000000000E+00 -0.00000000000E+00 -0.14706691114E+03  0.14706691114E+03  0.00000000000E+00 0. -1.
         25    1    1    2    0    0 -0.11872142445E+03 -0.70813067768E+02  0.14376467956E+02  0.18692498501E+03  0.12500000000E+03 0.  0.
         25    1    1    2    0    0  0.60396685041E+01 -0.55652154704E+02  0.41701571824E+03  0.43893137183E+03  0.12500000000E+03 0.  0.
         25    1    1    2    0    0  0.11268175595E+03  0.12646522247E+03  0.17247773318E+03  0.27214738481E+03  0.12500000000E+03 0.  0.
</event>
<event>
 5    0  0.5619558E-005  0.3053614E+03  0.7546771E-02  0.1082591E+00
         21   -1    0    0  502  501  0.00000000000E+00  0.00000000000E+00  0.14302986075E+03  0.14302986075E+03  0.00000000000E+00 0. -1.
         21   -1    0    0  501  502 -0.00000000000E+00 -0.00000000000E+00 -0.65193074062E+03  0.65193074062E+03  0.00000000000E+00 0. -1.
         25    1    1    2    0    0 -0.16858481699E+02 -0.20119029681E+01 -0.64646337919E+02  0.14174768134E+03  0.12500000000E+03 0.  0.
         25    1    1    2    0    0 -0.18527236298E+03  0.30409938018E+02 -0.29420442156E+03  0.37071802557E+03  0.12500000000E+03 0.  0.
         25    1    1    2    0    0  0.20213084468E+03 -0.28398035050E+02 -0.15005012039E+03  0.28249489446E+03  0.12500000000E+03 0.  0.
</event>
<event>
 5    0  0.5619558E-005  0.5148097E+03  0.7546771E-02  0.1009984E+00
         21   -1    0    0  502  501  0.00000000000E+00  0.00000000000E+00  0.49062759642E+03  0.49062759642E+03  0.00000000000E+00 0.  1.
         21   -1    0    0  501  502 -0.00000000000E+00 -0.00000000000E+00 -0.54018379685E+03  0.54018379685E+03  0.00000000000E+00 0.  1.
         25    1    1    2    0    0 -0.12731448911E+03 -0.78225272631E+02 -0.67671781599E+01  0.19493323758E+03  0.12500000000E+03 0.  0.
         25    1    1    2    0    0 -0.13968994227E+03 -0.26373647006E+03 -0.17174423919E+03  0.36632129246E+03  0.12500000000E+03 0.  0.
         25    1    1    2    0    0  0.26700443138E+03  0.34196174269E+03  0.12895521693E+03  0.46955686324E+03  0.12500000000E+03 0.  0.
</event>
<event>
 5    0  0.5619558E-005  0.2901620E+03  0.7546771E-02  0.1090265E+00
         21   -1    0    0  502  501  0.00000000000E+00  0.00000000000E+00  0.88408947052E+02  0.88408947052E+02  0.00000000000E+00 0. -1.
         21   -1    0    0  501  502 -0.00000000000E+00 -0.00000000000E+00 -0.95232401599E+03  0.95232401599E+03  0.00000000000E+00 0. -1.
         25    1    1    2    0    0 -0.11057674057E+03  0.59901805393E+02 -0.10285750109E+03  0.20498806642E+03  0.12500000000E+03 0.  0.
         25    1    1    2    0    0  0.86044462084E+02 -0.90245538680E+02 -0.23677436004E+03  0.29535572498E+03  0.12500000000E+03 0.  0.
         25    1    1    2    0    0  0.24532278482E+02  0.30343733287E+02 -0.52428320781E+03  0.54038917164E+03  0.12500000000E+03 0.  0.
</event>
<event>
 5    0  0.5619558E-005  0.4583368E+03  0.7546771E-02  0.1025265E+00
         21   -1    0    0  502  501  0.00000000000E+00  0.00000000000E+00  0.42133540528E+03  0.42133540528E+03  0.00000000000E+00 0.  1.
         21   -1    0    0  501  502 -0.00000000000E+00 -0.00000000000E+00 -0.49858765923E+03  0.49858765923E+03  0.00000000000E+00 0.  1.
         25    1    1    2    0    0 -0.18642003746E+03 -0.13630165674E+03 -0.14636470702E+03  0.30062967162E+03  0.12500000000E+03 0.  0.
         25    1    1    2    0    0 -0.11303504087E+03  0.20632210819E+03  0.10295865699E+03  0.28560675384E+03  0.12500000000E+03 0.  0.
         25    1    1    2    0    0  0.29945507833E+03 -0.70020451445E+02 -0.33846203916E+02  0.33368663905E+03  0.12500000000E+03 0.  0.
</event>
<event>
 5    0  0.5619558E-005  0.2059403E+03  0.7546771E-02  0.1144822E+00
         21   -1    0    0  502  501  0.00000000000E+00  0.00000000000E+00  0.89350567325E+03  0.89350567325E+03  0.00000000000E+00 0.  1.
         21   -1    0    0  501  502 -0.00000000000E+00 -0.00000000000E+00 -0.47466276931E+02  0.47466276931E+02  0.00000000000E+00 0.  1.
         25    1    1    2    0    0 -0.47233381042E+02  0.20193608076E+02  0.39684511227E+03  0.41922525833E+03  0.12500000000E+03 0.  0.
         25    1    1    2    0    0 -0.81976485510E+01  0.89244361753E+01  0.20921222240E+03  0.24401147720E+03  0.12500000000E+03 0.  0.
         25    1    1    2    0    0  0.55431029593E+02 -0.29118044252E+02  0.23998206165E+03  0.27773521465E+03  0.12500000000E+03 0.  0.
</event>
<event>
 5    0  0.5619558E-005  0.2653508E+03  0.7546771E-02  0.1103970E+00
         21   -1    0    0  502  501  0.00000000000E+00  0.00000000000E+00  0.48001149577E+03  0.48001149577E+03  0.00000000000E+00 0.  1.
         21   -1    0    0  501  502 -0.00000000000E+00 -0.00000000000E+00 -0.14668613808E+03  0.14668613808E+03  0.00000000000E+00 0.  1.
         25    1    1    2    0    0 -0.93606045249E+02 -0.20257902836E+02  0.23358065712E+03  0.28170445100E+03  0.12500000000E+03 0.  0.
         25    1    1    2    0    0 -0.50768069486E+02  0.20908223833E+02  0.19756912682E+02  0.13794885393E+03  0.12500000000E+03 0.  0.
         25    1    1    2    0    0  0.14437411474E+03 -0.65032099620E+00  0.79987787886E+02  0.20704432891E+03  0.12500000000E+03 0.  0.
</event>
<event>
 5    0  0.5619558E-005  0.2647464E+03  0.7546771E-02  0.1104325E+00
         21   -1    0    0  502  501  0.00000000000E+00  0.00000000000E+00  0.93827770262E+03  0.93827770262E+03  0.00000000000E+00 0.  1.
         21   -1    0    0  501  502 -0.00000000000E+00 -0.00000000000E+00 -0.74701403762E+02  0.74701403762E+02  0.00000000000E+00 0.  1.
         25    1    1    2    0    0 -0.73744074782E+00 -0.13505148306E+03  0.32272653520E+03  0.37150620913E+03  0.12500000000E+03 0.  0.
         25    1    1    2    0    0  0.51685438793E+02 -0.19692697949E+02  0.17648649108E+03  0.22323007967E+03  0.12500000000E+03 0.  0.
         25    1    1    2    0    0 -0.50947998045E+02  0.15474418101E+03  0.36436327258E+03  0.41824281759E+03  0.12500000000E+03 0.  0.
</event>
<event>
 5    0  0.5619558E-005  0.2468779E+03  0.7546771E-02  0.1115294E+00
         21   -1    0    0  502  501  0.00000000000E+00  0.00000000000E+00  0.11976259104E+03  0.11976259104E+03  0.00000000000E+00 0.  1.
         21   -1    0    0  501  502 -0.00000000000E+00 -0.00000000000E+00 -0.50891271973E+03  0.50891271973E+03  0.00000000000E+00 0.  1.
         25    1    1    2    0    0  0.41995198442E+02  0.11693948270E+03 -0.19501383402E+03  0.26285706147E+03  0.12500000000E+03 0.  0.
         25    1    1    2    0    0  0.20227031608E+02 -0.60189454417E+02 -0.30761544025E+02  0.14353806402E+03  0.12500000000E+03 0.  0.
         25    1    1    2    0    0 -0.62222230050E+02 -0.56750028281E+02 -0.16337475065E+03  0.22228018529E+03  0.12500000000E+03 0.  0.
</event>
<event>
 5    0  0.5619558E-005  0.6314904E+03  0.7546771E-02  0.9842145E-01
         21   -1    0    0  502  501  0.00000000000E+00  0.00000000000E+00  0.40654887231E+03  0.40654887231E+03  0.00000000000E+00 0. -1.
         21   -1    0    0  501  502 -0.00000000000E+00 -0.00000000000E+00 -0.98089099824E+03  0.98089099824E+03  0.00000000000E+00 0. -1.
         25    1    1    2    0    0  0.52556188294E+02  0.18198928499E+03  0.13688384361E+03  0.26503667562E+03  0.12500000000E+03 0.  0.
         25    1    1    2    0    0 -0.74627347882E+02 -0.21092253255E+02 -0.85787735237E+03  0.87039799857E+03  0.12500000000E+03 0.  0.
         25    1    1    2    0    0  0.22071159588E+02 -0.16089703174E+03  0.14665138283E+03  0.25200519636E+03  0.12500000000E+03 0.  0.
</event>
<event>
 5    0  0.5619558E-005  0.3231230E+03  0.7546771E-02  0.1074221E+00
         21   -1    0    0  502  501  0.00000000000E+00  0.00000000000E+00  0.46932226174E+03  0.46932226174E+03  0.00000000000E+00 0. -1.
         21   -1    0    0  501  502 -0.00000000000E+00 -0.00000000000E+00 -0.22246643082E+03  0.22246643082E+03  0.00000000000E+00 0. -1.
         25    1    1    2    0    0 -0.14154854925E+03 -0.18912287268E+03  0.53307865710E+02  0.27252556084E+03  0.12500000000E+03 0.  0.
         25    1    1    2    0    0  0.63761992357E+02  0.15197025942E+03  0.16537569584E+03  0.26482951534E+03  0.12500000000E+03 0.  0.
         25    1    1    2    0    0  0.77786556895E+02  0.37152613263E+02  0.28172269368E+02  0.15443361638E+03  0.12500000000E+03 0.  0.
</event>
<event>
 5    0  0.5619558E-005  0.5259783E+03  0.7546771E-02  0.1007212E+00
         21   -1    0    0  502  501  0.00000000000E+00  0.00000000000E+00  0.67956735857E+03  0.67956735857E+03  0.00000000000E+00 0. -1.
         21   -1    0    0  501  502 -0.00000000000E+00 -0.00000000000E+00 -0.40710195791E+03  0.40710195791E+03  0.00000000000E+00 0. -1.
         25    1    1    2    0    0  0.11593857600E+02 -0.18605091122E+03 -0.20643459602E+03  0.30494196421E+03  0.12500000000E+03 0.  0.
         25    1    1    2    0    0  0.11849062419E+03  0.33742501802E+03  0.33519990326E+03  0.50584547636E+03  0.12500000000E+03 0.  0.
         25    1    1    2    0    0 -0.13008448179E+03 -0.15137410680E+03  0.14370009342E+03  0.27588187592E+03  0.12500000000E+03 0.  0.
</event>
<event>
 5    0  0.5619558E-005  0.4961092E+03  0.7546771E-02  0.1014799E+00
         21   -1    0    0  502  501  0.00000000000E+00  0.00000000000E+00  0.11464478972E+04  0.11464478972E+04  0.00000000000E+00 0. -1.
         21   -1    0    0  501  502 -0.00000000000E+00 -0.00000000000E+00 -0.21468430232E+03  0.21468430232E+03  0.00000000000E+00 0. -1.
         25    1    1    2    0    0  0.47562447838E+02 -0.37112305953E+02  0.36096149368E+03  0.38672691866E+03  0.12500000000E+03 0.  0.
         25    1    1    2    0    0  0.16390161146E+03 -0.12885227899E+03 -0.82727588610E+02  0.25677909174E+03  0.12500000000E+03 0.  0.
         25    1    1    2    0    0 -0.21146405929E+03  0.16596458495E+03  0.65352968979E+03  0.71762618909E+03  0.12500000000E+03 0.  0.
</event>
<event>
 5    0  0.5619558E-005  0.6061437E+03  0.7546771E-02  0.9892741E-01
         21   -1    0    0  502  501  0.00000000000E+00  0.00000000000E+00  0.86171459322E+03  0.86171459322E+03  0.00000000000E+00 0. -1.
         21   -1    0    0  501  502 -0.00000000000E+00 -0.00000000000E+00 -0.42637109612E+03  0.42637109612E+03  0.00000000000E+00 0. -1.
         25    1    1    2    0    0  0.38776282500E+03  0.19309555651E+03  0.41232160347E+03  0.61096645332E+03  0.12500000000E+03 0.  0.
         25    1    1    2    0    0 -0.75893925538E+02 -0.94339407781E+02  0.21591002468E+03  0.27731200939E+03  0.12500000000E+03 0.  0.
         25    1    1    2    0    0 -0.31186889946E+03 -0.98756148727E+02 -0.19288813106E+03  0.39980722663E+03  0.12500000000E+03 0.  0.
</event>
<event>
 5    0  0.6810607E-005  0.3808539E+03  0.7546771E-02  0.1050619E+00
         21   -1    0    0  502  501  0.00000000000E+00  0.00000000000E+00  0.41537422437E+03  0.41537422437E+03  0.00000000000E+00 0.  1.
         21   -1    0    0  501  502 -0.00000000000E+00 -0.00000000000E+00 -0.34920244772E+03  0.34920244772E+03  0.00000000000E+00 0.  1.
         25    1    1    2    0    0  0.22287469258E+03 -0.11913984266E+02  0.10309279801E+02  0.25602021964E+03  0.12500000000E+03 0.  0.
         25    1    1    2    0    0 -0.44033731101E+02  0.28636673287E+02  0.20353121063E+03  0.24455875007E+03  0.12500000000E+03 0.  0.
         25    1    1    2    0    0 -0.17884096148E+03 -0.16722689022E+02 -0.14766871379E+03  0.26399770238E+03  0.12500000000E+03 0.  0.
</event>
<event>
 5    0  0.5619558E-005  0.3203562E+03  0.7546771E-02  0.1075485E+00
         21   -1    0    0  502  501  0.00000000000E+00  0.00000000000E+00  0.18823872736E+03  0.18823872736E+03  0.00000000000E+00 0. -1.
         21   -1    0    0  501  502 -0.00000000000E+00 -0.00000000000E+00 -0.54520177351E+03  0.54520177351E+03  0.00000000000E+00 0. -1.
         25    1    1    2    0    0 -0.75423278864E+02  0.89449621188E+02 -0.38160699512E+03  0.41825686420E+03  0.12500000000E+03 0.  0.
         25    1    1    2    0    0  0.89315558509E+01 -0.86882542783E+02 -0.42731665769E+02  0.15836459260E+03  0.12500000000E+03 0.  0.
         25    1    1    2    0    0  0.66491723014E+02 -0.25670784046E+01  0.67375614746E+02  0.15681904407E+03  0.12500000000E+03 0.  0.
</event>
<event>
 5    0  0.5619558E-005  0.4032431E+03  0.7546771E-02  0.1042662E+00
         21   -1    0    0  502  501  0.00000000000E+00  0.00000000000E+00  0.57144337433E+03  0.57144337433E+03  0.00000000000E+00 0. -1.
         21   -1    0    0  501  502 -0.00000000000E+00 -0.00000000000E+00 -0.28455134634E+03  0.28455134634E+03  0.00000000000E+00 0. -1.
         25    1    1    2    0    0 -0.30327622602E+03 -0.37453678898E+02  0.18998163824E+03  0.38091635591E+03  0.12500000000E+03 0.  0.
         25    1    1    2    0    0  0.26607690446E+02 -0.65926613852E+02  0.40932033424E+02  0.14951494562E+03  0.12500000000E+03 0.  0.
         25    1    1    2    0    0  0.27666853557E+03  0.10338029275E+03  0.55978356325E+02  0.32556341914E+03  0.12500000000E+03 0.  0.
</event>
<event>
 5    0  0.5619558E-005  0.2641230E+03  0.7546771E-02  0.1104691E+00
         21   -1    0    0  502  501  0.00000000000E+00  0.00000000000E+00  0.65966792144E+03  0.65966792144E+03  0.00000000000E+00 0.  1.
         21   -1    0    0  501  502 -0.00000000000E+00 -0.00000000000E+00 -0.10575160755E+03  0.10575160755E+03  0.00000000000E+00 0. -1.
         25    1    1    2    0    0 -0.62657992849E+02 -0.15096744770E+03  0.27282799412E+03  0.34172695052E+03  0.12500000000E+03 0.  0.
         25    1    1    2    0    0  0.70760977383E+02  0.11566463527E+03  0.19038962307E+03  0.26506344966E+03  0.12500000000E+03 0.  0.
         25    1    1    2    0    0 -0.81029845342E+01  0.35302812433E+02  0.90698696706E+02  0.15862912881E+03  0.12500000000E+03 0.  0.
</event>
<event>
 5    0  0.7738901E-005  0.3017272E+03  0.7546771E-02  0.1084380E+00
         21   -1    0    0  502  501  0.00000000000E+00  0.00000000000E+00  0.55974888927E+03  0.55974888927E+03  0.00000000000E+00 0. -1.
         21   -1    0    0  501  502 -0.00000000000E+00 -0.00000000000E+00 -0.16264314513E+03  0.16264314513E+03  0.00000000000E+00 0. -1.
         25    1    1    2    0    0 -0.48895142988E+02  0.17228318801E+03  0.26660811645E+03  0.34464056585E+03  0.12500000000E+03 0.  0.
         25    1    1    2    0    0 -0.43214711473E+02 -0.90582952954E+02  0.20730886866E+01  0.16031868372E+03  0.12500000000E+03 0.  0.
         25    1    1    2    0    0  0.92109854460E+02 -0.81700235052E+02  0.12842453901E+03  0.21743278482E+03  0.12500000000E+03 0.  0.
</event>
<event>
 5    0  0.5619558E-005  0.3333953E+03  0.7546771E-02  0.1069644E+00
         21   -1    0    0  502  501  0.00000000000E+00  0.00000000000E+00  0.44771285194E+03  0.44771285194E+03  0.00000000000E+00 0.  1.
         21   -1    0    0  501  502 -0.00000000000E+00 -0.00000000000E+00 -0.24826715996E+03  0.24826715996E+03  0.00000000000E+00 0.  1.
         25    1    1    2    0    0  0.87458366418E+01  0.12228643588E+03 -0.12340764870E+03  0.21420763249E+03  0.12500000000E+03 0.  0.
         25    1    1    2    0    0 -0.43115350785E+02  0.48004064769E+02  0.15853397438E+03  0.21194656105E+03  0.12500000000E+03 0.  0.
         25    1    1    2    0    0  0.34369514143E+02 -0.17029050065E+03  0.16431936629E+03  0.26982581836E+03  0.12500000000E+03 0.  0.
</event>
<event>
 5    0  0.5619558E-005  0.2985257E+03  0.7546771E-02  0.1085980E+00
         21   -1    0    0  502  501  0.00000000000E+00  0.00000000000E+00  0.50347078403E+02  0.50347078403E+02  0.00000000000E+00 0.  1.
         21   -1    0    0  501  502 -0.00000000000E+00 -0.00000000000E+00 -0.17700653233E+04  0.17700653233E+04  0.00000000000E+00 0.  1.
         25    1    1    2    0    0  0.15676334612E+03 -0.10072193670E+03 -0.10160543193E+04  0.10405340144E+04  0.12500000000E+03 0.  0.
         25    1    1    2    0    0 -0.10470522300E+03  0.10963958558E+03 -0.47410856766E+03  0.51321336340E+03  0.12500000000E+03 0.  0.
         25    1    1    2    0    0 -0.52058123120E+02 -0.89176488796E+01 -0.22955535788E+03  0.26666502390E+03  0.12500000000E+03 0.  0.
</event>
<event>
 5    0  0.5619558E-005  0.2964984E+03  0.7546771E-02  0.1087004E+00
         21   -1    0    0  502  501  0.00000000000E+00  0.00000000000E+00  0.11164192464E+03  0.11164192464E+03  0.00000000000E+00 0.  1.
         21   -1    0    0  501  502 -0.00000000000E+00 -0.00000000000E+00 -0.78743979689E+03  0.78743979689E+03  0.00000000000E+00 0.  1.
         25    1    1    2    0    0 -0.13995660496E+03  0.50909289802E+02 -0.30754227085E+03  0.36385004524E+03  0.12500000000E+03 0.  0.
         25    1    1    2    0    0 -0.31318392894E+02 -0.99120260743E+02 -0.10392984825E+03  0.19295616388E+03  0.12500000000E+03 0.  0.
         25    1    1    2    0    0  0.17127499786E+03  0.48210970940E+02 -0.26432575316E+03  0.34227551240E+03  0.12500000000E+03 0.  0.
</event>
<event>
 5    0  0.6269865E-005  0.2727221E+03  0.7546771E-02  0.1099732E+00
         21   -1    0    0  502  501  0.00000000000E+00  0.00000000000E+00  0.84084589712E+02  0.84084589712E+02  0.00000000000E+00 0. -1.
         21   -1    0    0  501  502 -0.00000000000E+00 -0.00000000000E+00 -0.88455369264E+03  0.88455369264E+03  0.00000000000E+00 0. -1.
         25    1    1    2    0    0 -0.35636256379E+02 -0.36818937542E+02 -0.38074408755E+03  0.40400078854E+03  0.12500000000E+03 0.  0.
         25    1    1    2    0    0  0.14363425305E+03 -0.21315417386E+02 -0.15128731280E+03  0.24412700933E+03  0.12500000000E+03 0.  0.
         25    1    1    2    0    0 -0.10799799667E+03  0.58134354928E+02 -0.26843770257E+03  0.32051048449E+03  0.12500000000E+03 0.  0.
</event>
<event>
 5    0  0.5619558E-005  0.3586923E+03  0.7546771E-02  0.1059103E+00
         21   -1    0    0  502  501  0.00000000000E+00  0.00000000000E+00  0.52933604653E+03  0.52933604653E+03  0.00000000000E+00 0. -1.
         21   -1    0    0  501  502 -0.00000000000E+00 -0.00000000000E+00 -0.24305955776E+03  0.24305955776E+03  0.00000000000E+00 0. -1.
         25    1    1    2    0    0 -0.29164814188E+02  0.89009556488E+02  0.99085979788E+02  0.18497653614E+03  0.12500000000E+03 0.  0.
         25    1    1    2    0    0  0.17934172751E+03  0.13368215677E+03  0.12323576846E+03  0.28433506448E+03  0.12500000000E+03 0.  0.
         25    1    1    2    0    0 -0.15017691332E+03 -0.22269171326E+03  0.63954740523E+02  0.30308400367E+03  0.12500000000E+03 0.  0.
</event>
<event>
 5    0  0.6312646E-005  0.4424833E+03  0.7546771E-02  0.1029988E+00
         21   -1    0    0  502  501  0.00000000000E+00  0.00000000000E+00  0.38553164351E+03  0.38553164351E+03  0.00000000000E+00 0.  1.
         21   -1    0    0  501  502 -0.00000000000E+00 -0.00000000000E+00 -0.50784806026E+03  0.50784806026E+03  0.00000000000E+00 0.  1.
         25    1    1    2    0    0 -0.27876040304E+02 -0.10560114359E+03  0.18770598437E+03  0.25057376502E+03  0.12500000000E+03 0.  0.
         25    1    1    2    0    0  0.22718632557E+03  0.68186404743E+02 -0.21982091640E+02  0.26901900429E+03  0.12500000000E+03 0.  0.
         25    1    1    2    0    0 -0.19931028526E+03  0.37414738847E+02 -0.28804030947E+03  0.37378693446E+03  0.12500000000E+03 0.  0.
</event>
<event>
 5    0  0.5619558E-005  0.3000479E+03  0.7546771E-02  0.1085217E+00
         21   -1    0    0  502  501  0.00000000000E+00  0.00000000000E+00  0.11448518535E+04  0.11448518535E+04  0.00000000000E+00 0. -1.
         21   -1    0    0  501  502 -0.00000000000E+00 -0.00000000000E+00 -0.78637874292E+02  0.78637874292E+02  0.00000000000E+00 0. -1.
         25    1    1    2    0    0 -0.50537247807E+02  0.89467402949E+02  0.67799483308E+03  0.69703688804E+03  0.12500000000E+03 0.  0.
         25    1    1    2    0    0  0.80044434214E+02 -0.13740085628E+03  0.30534703031E+03  0.36626208605E+03  0.12500000000E+03 0.  0.
         25    1    1    2    0    0 -0.29507186407E+02  0.47933453326E+02  0.82872115844E+02  0.16019075373E+03  0.12500000000E+03 0.  0.
</event>
<event>
 5    0  0.5619558E-005  0.3988431E+03  0.7546771E-02  0.1044181E+00
         21   -1    0    0  502  501  0.00000000000E+00  0.00000000000E+00  0.44744993671E+03  0.44744993671E+03  0.00000000000E+00 0.  1.
         21   -1    0    0  501  502 -0.00000000000E+00 -0.00000000000E+00 -0.35551648380E+03  0.35551648380E+03  0.00000000000E+00 0.  1.
         25    1    1    2    0    0 -0.11285070024E+03  0.99468014305E+02 -0.31483250497E+02  0.19810442064E+03  0.12500000000E+03 0.  0.
         25    1    1    2    0    0  0.17973091574E+03 -0.13732991052E+03 -0.14691473075E+03  0.29727368620E+03  0.12500000000E+03 0.  0.
         25    1    1    2    0    0 -0.66880215498E+02  0.37861896214E+02  0.27033143415E+03  0.30758831366E+03  0.12500000000E+03 0.  0.
</event>
<event>
 5    0  0.5619558E-005  0.2842329E+03  0.7546771E-02  0.1093399E+00
         21   -1    0    0  502  501  0.00000000000E+00  0.00000000000E+00  0.14016525546E+04  0.14016525546E+04  0.00000000000E+00 0. -1.
         21   -1    0    0  501  502 -0.00000000000E+00 -0.00000000000E+00 -0.57637912474E+02  0.57637912474E+02  0.00000000000E+00 0. -1.
         25    1    1    2    0    0  0.14768988236E+02  0.14176260050E+03  0.23554533657E+03  0.30235965917E+03  0.12500000000E+03 0.  0.
         25    1    1    2    0    0 -0.39952710132E+01 -0.54448314285E+02  0.81198888086E+03  0.82336597194E+03  0.12500000000E+03 0.  0.
         25    1    1    2    0    0 -0.10773717223E+02 -0.87314286217E+02  0.29648042473E+03  0.33356483599E+03  0.12500000000E+03 0.  0.
</event>
<event>
 5    0  0.5619558E-005  0.5103710E+03  0.7546771E-02  0.1011107E+00
         21   -1    0    0  502  501  0.00000000000E+00  0.00000000000E+00  0.68811666474E+03  0.68811666474E+03  0.00000000000E+00 0. -1.
         21   -1    0    0  501  502 -0.00000000000E+00 -0.00000000000E+00 -0.37853835872E+03  0.37853835872E+03  0.00000000000E+00 0. -1.
         25    1    1    2    0    0 -0.77342980946E+02  0.53955736691E+02  0.54915814489E+03  0.57104538026E+03  0.12500000000E+03 0.  0.
         25    1    1    2    0    0  0.14840923123E+03 -0.15482493394E+03 -0.19146689347E+03  0.31349741846E+03  0.12500000000E+03 0.  0.
         25    1    1    2    0    0 -0.71066250280E+02  0.10086919725E+03 -0.48112945394E+02  0.18211222473E+03  0.12500000000E+03 0.  0.
</event>
<event>
 5    0  0.5619558E-005  0.4462511E+03  0.7546771E-02  0.1028846E+00
         21   -1    0    0  502  501  0.00000000000E+00  0.00000000000E+00  0.90472643523E+03  0.90472643523E+03  0.00000000000E+00 0.  1.
         21   -1    0    0  501  502 -0.00000000000E+00 -0.00000000000E+00 -0.22011073673E+03  0.22011073673E+03  0.00000000000E+00 0.  1.
         25    1    1    2    0    0 -0.13203296651E+03  0.44648841854E+01  0.55474657875E+02  0.19014488450E+03  0.12500000000E+03 0.  0.
         25    1    1    2    0    0  0.34391798769E+03 -0.11609509033E+02  0.57663293313E+03  0.68304092303E+03  0.12500000000E+03 0.  0.
         25    1    1    2    0    0 -0.21188502118E+03  0.71446248478E+01  0.52508107490E+02  0.25165136442E+03  0.12500000000E+03 0.  0.
</event>
<event>
 5    0  0.5722278E-005  0.4894230E+03  0.7546771E-02  0.1016577E+00
         21   -1    0    0  502  501  0.00000000000E+00  0.00000000000E+00  0.24132265200E+03  0.24132265200E+03  0.00000000000E+00 0.  1.
         21   -1    0    0  501  502 -0.00000000000E+00 -0.00000000000E+00 -0.99259157754E+03  0.99259157754E+03  0.00000000000E+00 0.  1.
         25    1    1    2    0    0  0.22635409523E+03  0.26806314304E+03 -0.18229163561E+03  0.41466765668E+03  0.12500000000E+03 0.  0.
         25    1    1    2    0    0 -0.36721365701E+02 -0.35265573210E+02 -0.45502856411E+03  0.47462418133E+03  0.12500000000E+03 0.  0.
         25    1    1    2    0    0 -0.18963272953E+03 -0.23279756983E+03 -0.11394872582E+03  0.34462239153E+03  0.12500000000E+03 0.  0.
</event>
<event>
 5    0  0.5619558E-005  0.2530803E+03  0.7546771E-02  0.1111373E+00
         21   -1    0    0  502  501  0.00000000000E+00  0.00000000000E+00  0.19227358019E+03  0.19227358019E+03  0.00000000000E+00 0. -1.
         21   -1    0    0  501  502 -0.00000000000E+00 -0.00000000000E+00 -0.33311728045E+03  0.33311728045E+03  0.00000000000E+00 0. -1.
         25    1    1    2    0    0  0.78127003012E+02  0.64533674336E+02  0.71790815165E+02  0.17620256770E+03  0.12500000000E+03 0.  0.
         25    1    1    2    0    0 -0.67738019633E+02 -0.45986748701E+02 -0.10209099880E+03  0.18097180000E+03  0.12500000000E+03 0.  0.
         25    1    1    2    0    0 -0.10388983379E+02 -0.18546925635E+02 -0.11054351662E+03  0.16821649293E+03  0.12500000000E+03 0.  0.
</event>
<event>
 5    0  0.5619558E-005  0.2682205E+03  0.7546771E-02  0.1102302E+00
         21   -1    0    0  502  501  0.00000000000E+00  0.00000000000E+00  0.11745719595E+04  0.11745719595E+04  0.00000000000E+00 0.  1.
         21   -1    0    0  501  502 -0.00000000000E+00 -0.00000000000E+00 -0.61249765788E+02  0.61249765788E+02  0.00000000000E+00 0.  1.
         25    1    1    2    0    0 -0.98494477834E+02 -0.12113712659E+03  0.32778528884E+03  0.38398380328E+03  0.12500000000E+03 0.  0.
         25    1    1    2    0    0 -0.26423859441E+01  0.82409109697E+02  0.25073875135E+03  0.29204993579E+03  0.12500000000E+03 0.  0.
         25    1    1    2    0    0  0.10113686378E+03  0.38728016891E+02  0.53479815353E+03  0.55978798623E+03  0.12500000000E+03 0.  0.
</event>
<event>
 5    0  0.5619558E-005  0.3644448E+03  0.7546771E-02  0.1056838E+00
         21   -1    0    0  502  501  0.00000000000E+00  0.00000000000E+00  0.16821327734E+03  0.16821327734E+03  0.00000000000E+00 0.  1.
         21   -1    0    0  501  502 -0.00000000000E+00 -0.00000000000E+00 -0.78959298249E+03  0.78959298249E+03  0.00000000000E+00 0.  1.
         25    1    1    2    0    0 -0.93964849614E+02 -0.52137409447E+02 -0.57905711297E+03  0.60206298882E+03  0.12500000000E+03 0.  0.
         25    1    1    2    0    0 -0.61341864548E+02 -0.90184202567E+01 -0.46778823488E+02  0.14716458330E+03  0.12500000000E+03 0.  0.
         25    1    1    2    0    0  0.15530671416E+03  0.61155829704E+02  0.44562312987E+01  0.20857868771E+03  0.12500000000E+03 0.  0.
</event>
<event>
 5    0  0.5619558E-005  0.3203715E+03  0.7546771E-02  0.1075478E+00
         21   -1    0    0  502  501  0.00000000000E+00  0.00000000000E+00  0.48504576621E+03  0.48504576621E+03  0.00000000000E+00 0. -1.
         21   -1    0    0  501  502 -0.00000000000E+00 -0.00000000000E+00 -0.21160456694E+03  0.21160456694E+03  0.00000000000E+00 0. -1.
         25    1    1    2    0    0 -0.13441204731E+03  0.10725396308E+03  0.12512536628E+03  0.24668070120E+03  0.12500000000E+03 0.  0.
         25    1    1    2    0    0  0.17560728071E+03 -0.95706354554E+02  0.19887951936E+03  0.30850556974E+03  0.12500000000E+03 0.  0.
         25    1    1    2    0    0 -0.41195233397E+02 -0.11547608522E+02 -0.50563686366E+02  0.14146406221E+03  0.12500000000E+03 0.  0.
</event>
<event>
 5    0  0.5619558E-005  0.3857440E+03  0.7546771E-02  0.1048831E+00
         21   -1    0    0  502  501  0.00000000000E+00  0.00000000000E+00  0.46077811086E+03  0.46077811086E+03  0.00000000000E+00 0.  1.
         21   -1    0    0  501  502 -0.00000000000E+00 -0.00000000000E+00 -0.32292864999E+03  0.32292864999E+03  0.00000000000E+00 0.  1.
         25    1    1    2    0    0 -0.18026263729E+03  0.65165869717E+02  0.92295828199E+01  0.22902269358E+03  0.12500000000E+03 0.  0.
         25    1    1    2    0    0 -0.25677191469E+02  0.13015246653E+03  0.16055938286E+03  0.24290594503E+03  0.12500000000E+03 0.  0.
         25    1    1    2    0    0  0.20593982876E+03 -0.19531833624E+03 -0.31939504814E+02  0.31177812224E+03  0.12500000000E+03 0.  0.
</event>
<event>
 5    0  0.5619558E-005  0.4302860E+03  0.7546771E-02  0.1033770E+00
         21   -1    0    0  502  501  0.00000000000E+00  0.00000000000E+00  0.35017193223E+03  0.35017193223E+03  0.00000000000E+00 0.  1.
         21   -1    0    0  501  502 -0.00000000000E+00 -0.00000000000E+00 -0.52872906367E+03  0.52872906367E+03  0.00000000000E+00 0.  1.
         25    1    1    2    0    0  0.42871877368E+01 -0.20456801509E+03  0.26714080151E+02  0.24125732084E+03  0.12500000000E+03 0.  0.
         25    1    1    2    0    0 -0.23180693759E+03 -0.14817182750E+02 -0.93282490394E+02  0.27978675493E+03  0.12500000000E+03 0.  0.
         25    1    1    2    0    0  0.22751974986E+03  0.21938519785E+03 -0.11198872119E+03  0.35785692013E+03  0.12500000000E+03 0.  0.
</event>
<event>
 5    0  0.5619558E-005  0.2629193E+03  0.7546771E-02  0.1105402E+00
         21   -1    0    0  502  501  0.00000000000E+00  0.00000000000E+00  0.17141371639E+03  0.17141371639E+03  0.00000000000E+00 0. -1.
         21   -1    0    0  501  502 -0.00000000000E+00 -0.00000000000E+00 -0.40327306013E+03  0.40327306013E+03  0.00000000000E+00 0. -1.
         25    1    1    2    0    0 -0.15881040225E+03 -0.32762243975E+02 -0.78331783374E+02  0.21921445385E+03  0.12500000000E+03 0.  0.
         25    1    1    2    0    0  0.68130797292E+02 -0.18262945317E+02 -0.12504346418E+03  0.19035810633E+03  0.12500000000E+03 0.  0.
         25    1    1    2    0    0  0.90679604956E+02  0.51025189293E+02 -0.28484096184E+02  0.16511421633E+03  0.12500000000E+03 0.  0.
</event>
<event>
 5    0  0.5619558E-005  0.2392826E+03  0.7546771E-02  0.1120272E+00
         21   -1    0    0  502  501  0.00000000000E+00  0.00000000000E+00  0.19469658659E+04  0.19469658659E+04  0.00000000000E+00 0.  1.
         21   -1    0    0  501  502 -0.00000000000E+00 -0.00000000000E+00 -0.29407882649E+02  0.29407882649E+02  0.00000000000E+00 0.  1.
         25    1    1    2    0    0  0.12603588597E+03  0.36167114088E+02  0.77175566636E+03  0.79273256099E+03  0.12500000000E+03 0.  0.
         25    1    1    2    0    0 -0.89101200294E+02  0.20196140108E+02  0.58635214610E+03  0.60644929484E+03  0.12500000000E+03 0.  0.
         25    1    1    2    0    0 -0.36934685674E+02 -0.56363254196E+02  0.55945017075E+03  0.57719189269E+03  0.12500000000E+03 0.  0.
</event>
<event>
 5    0  0.5619558E-005  0.3691835E+03  0.7546771E-02  0.1055006E+00
         21   -1    0    0  502  501  0.00000000000E+00  0.00000000000E+00  0.26965314850E+03  0.26965314850E+03  0.00000000000E+00 0. -1.
         21   -1    0    0  501  502 -0.00000000000E+00 -0.00000000000E+00 -0.50545111487E+03  0.50545111487E+03  0.00000000000E+00 0. -1.
         25    1    1    2    0    0 -0.14991559705E+03  0.82321976545E+02 -0.68145948119E+02  0.22253193997E+03  0.12500000000E+03 0.  0.
         25    1    1    2    0    0 -0.14253467575E+03  0.38039328236E+01 -0.10638814098E+03  0.21742594196E+03  0.12500000000E+03 0.  0.
         25    1    1    2    0    0  0.29245027281E+03 -0.86125909369E+02 -0.61263877272E+02  0.33514638143E+03  0.12500000000E+03 0.  0.
</event>
<event>
 5    0  0.5619558E-005  0.4145196E+03  0.7546771E-02  0.1038865E+00
         21   -1    0    0  502  501  0.00000000000E+00  0.00000000000E+00  0.72546601287E+03  0.72546601287E+03  0.00000000000E+00 0.  1.
         21   -1    0    0  501  502 -0.00000000000E+00 -0.00000000000E+00 -0.23684978768E+03  0.23684978768E+03  0.00000000000E+00 0.  1.
         25    1    1    2    0    0  0.18563124225E+03  0.19232989123E+03  0.18905123217E+03  0.35044987308E+03  0.12500000000E+03 0.  0.
         25    1    1    2    0    0  0.11559973790E+03 -0.83716901735E+02  0.10286157580E+03  0.21581780004E+03  0.12500000000E+03 0.  0.
         25    1    1    2    0    0 -0.30123098015E+03 -0.10861298949E+03  0.19670341722E+03  0.39604812742E+03  0.12500000000E+03 0.  0.
</event>
<event>
 5    0  0.5619558E-005  0.2658366E+03  0.7546771E-02  0.1103686E+00
         21   -1    0    0  502  501  0.00000000000E+00  0.00000000000E+00  0.17413183119E+03  0.17413183119E+03  0.00000000000E+00 0. -1.
         21   -1    0    0  501  502 -0.00000000000E+00 -0.00000000000E+00 -0.40583683621E+03  0.40583683621E+03  0.00000000000E+00 0. -1.
         25    1    1    2    0    0  0.63567972376E+02 -0.22511655025E+02 -0.77168490548E+02  0.16164045798E+03  0.12500000000E+03 0.  0.
         25    1    1    2    0    0 -0.14239102741E+03  0.10167320908E+03 -0.50014212789E+02  0.22076926328E+03  0.12500000000E+03 0.  0.
         25    1    1    2    0    0  0.78823055029E+02 -0.79161554053E+02 -0.10452230168E+03  0.19755894612E+03  0.12500000000E+03 0.  0.
</event>
<event>
 5    0  0.5619558E-005  0.2849835E+03  0.7546771E-02  0.1092998E+00
         21   -1    0    0  502  501  0.00000000000E+00  0.00000000000E+00  0.36699747217E+03  0.36699747217E+03  0.00000000000E+00 0.  1.
         21   -1    0    0  501  502 -0.00000000000E+00 -0.00000000000E+00 -0.22129738152E+03  0.22129738152E+03  0.00000000000E+00 0.  1.
         25    1    1    2    0    0  0.49843737632E+02  0.26419273947E+02  0.11402444989E+03  0.17835064169E+03  0.12500000000E+03 0.  0.
         25    1    1    2    0    0  0.64134285659E+02 -0.12578001324E+03  0.84700723468E+02  0.20671969157E+03  0.12500000000E+03 0.  0.
         25    1    1    2    0    0 -0.11397802329E+03  0.99360739291E+02 -0.53025082711E+02  0.20322452043E+03  0.12500000000E+03 0.  0.
</event>
<event>
 5    0  0.5619558E-005  0.2163251E+03  0.7546771E-02  0.1136653E+00
         21   -1    0    0  502  501  0.00000000000E+00  0.00000000000E+00  0.42753063589E+03  0.42753063589E+03  0.00000000000E+00 0.  1.
         21   -1    0    0  501  502 -0.00000000000E+00 -0.00000000000E+00 -0.10945779188E+03  0.10945779188E+03  0.00000000000E+00 0.  1.
         25    1    1    2    0    0 -0.58826024635E+00 -0.36800258661E+02  0.11872727103E+03  0.17628320956E+03  0.12500000000E+03 0.  0.
         25    1    1    2    0    0 -0.69846167566E+02  0.59829876000E+02  0.10789384025E+03  0.18900841767E+03  0.12500000000E+03 0.  0.
         25    1    1    2    0    0  0.70434427812E+02 -0.23029617339E+02  0.91451732738E+02  0.17169680054E+03  0.12500000000E+03 0.  0.
</event>
<event>
 5    0  0.5619558E-005  0.3354307E+03  0.7546771E-02  0.1068759E+00
         21   -1    0    0  502  501  0.00000000000E+00  0.00000000000E+00  0.78270893919E+02  0.78270893919E+02  0.00000000000E+00 0. -1.
         21   -1    0    0  501  502 -0.00000000000E+00 -0.00000000000E+00 -0.14374917689E+04  0.14374917689E+04  0.00000000000E+00 0. -1.
         25    1    1    2    0    0  0.11655046011E+03 -0.57214219303E+02 -0.17503993281E+03  0.25123983506E+03  0.12500000000E+03 0.  0.
         25    1    1    2    0    0  0.47762416810E+02 -0.73078256044E+02 -0.75967001776E+03  0.77481947307E+03  0.12500000000E+03 0.  0.
         25    1    1    2    0    0 -0.16431287692E+03  0.13029247535E+03 -0.42451092445E+03  0.48970335473E+03  0.12500000000E+03 0.  0.
</event>
<event>
 5    0  0.5619558E-005  0.2398740E+03  0.7546771E-02  0.1119877E+00
         21   -1    0    0  502  501  0.00000000000E+00  0.00000000000E+00  0.20826824728E+03  0.20826824728E+03  0.00000000000E+00 0.  1.
         21   -1    0    0  501  502 -0.00000000000E+00 -0.00000000000E+00 -0.27627600453E+03  0.27627600453E+03  0.00000000000E+00 0.  1.
         25    1    1    2    0    0 -0.25366428244E+02  0.99392674410E+02  0.14967748421E+02  0.16239271197E+03  0.12500000000E+03 0.  0.
         25    1    1    2    0    0 -0.79047438925E+01 -0.10947846805E+03  0.32222333706E+01  0.16638330064E+03  0.12500000000E+03 0.  0.
         25    1    1    2    0    0  0.33271172137E+02  0.10085793641E+02 -0.86197739046E+02  0.15576823921E+03  0.12500000000E+03 0.  0.
</event>
<event>
 5    0  0.5619558E-005  0.3078878E+03  0.7546771E-02  0.1081363E+00
         21   -1    0    0  502  501  0.00000000000E+00  0.00000000000E+00  0.61251357889E+02  0.61251357889E+02  0.00000000000E+00 0. -1.
         21   -1    0    0  501  502 -0.00000000000E+00 -0.00000000000E+00 -0.15476378037E+04  0.15476378037E+04  0.00000000000E+00 0. -1.
         25    1    1    2    0    0 -0.13738362843E+03  0.11482536074E+03 -0.43258405963E+03  0.48457516803E+03  0.12500000000E+03 0.  0.
         25    1    1    2    0    0 -0.21426839046E+02 -0.61714479383E+01 -0.62712892271E+03  0.63985379729E+03  0.12500000000E+03 0.  0.
         25    1    1    2    0    0  0.15881046747E+03 -0.10865391280E+03 -0.42667346351E+03  0.48446019632E+03  0.12500000000E+03 0.  0.
</event>
<event>
 5    0  0.5619558E-005  0.3705247E+03  0.7546771E-02  0.1054493E+00
         21   -1    0    0  502  501  0.00000000000E+00  0.00000000000E+00  0.14931864191E+04  0.14931864191E+04  0.00000000000E+00 0.  1.
         21   -1    0    0  501  502 -0.00000000000E+00 -0.00000000000E+00 -0.91943353553E+02  0.91943353553E+02  0.00000000000E+00 0.  1.
         25    1    1    2    0    0 -0.14032088000E+03 -0.14164401131E+03  0.39847275603E+03  0.46277263598E+03  0.12500000000E+03 0.  0.
         25    1    1    2    0    0 -0.17669379505E+01  0.25161835447E+03  0.49020790090E+03  0.56501655239E+03  0.12500000000E+03 0.  0.
         25    1    1    2    0    0  0.14208781795E+03 -0.10997434316E+03  0.51256240859E+03  0.55734058426E+03  0.12500000000E+03 0.  0.
</event>
<event>
 5    0  0.5619558E-005  0.3324974E+03  0.7546771E-02  0.1070037E+00
         21   -1    0    0  502  501  0.00000000000E+00  0.00000000000E+00  0.67352946645E+02  0.67352946645E+02  0.00000000000E+00 0. -1.
         21   -1    0    0  501  502 -0.00000000000E+00 -0.00000000000E+00 -0.16414203648E+04  0.16414203648E+04  0.00000000000E+00 0. -1.
         25    1    1    2    0    0  0.69057674483E+02  0.50025745936E+02 -0.12504306253E+03  0.19629647259E+03  0.12500000000E+03 0.  0.
         25    1    1    2    0    0 -0.45840366930E+02  0.11351321220E+03 -0.32094921396E+03  0.36554067698E+03  0.12500000000E+03 0.  0.
         25    1    1    2    0    0 -0.23217307553E+02 -0.16353895814E+03 -0.11280751417E+04  0.11469361619E+04  0.12500000000E+03 0.  0.
</event>
<event>
 5    0  0.5619558E-005  0.5662639E+03  0.7546771E-02  0.9977980E-01
         21   -1    0    0  502  501  0.00000000000E+00  0.00000000000E+00  0.37376710468E+03  0.37376710468E+03  0.00000000000E+00 0.  1.
         21   -1    0    0  501  502 -0.00000000000E+00 -0.00000000000E+00 -0.85789994935E+03  0.85789994935E+03  0.00000000000E+00 0.  1.
         25    1    1    2    0    0  0.39202895594E+03 -0.53939752573E+02 -0.38426812700E+03  0.56558217143E+03  0.12500000000E+03 0.  0.
         25    1    1    2    0    0  0.21520780216E+02  0.14400525755E+03  0.52930541881E+02  0.19906607056E+03  0.12500000000E+03 0.  0.
         25    1    1    2    0    0 -0.41354973616E+03 -0.90065504977E+02 -0.15279525954E+03  0.46701881204E+03  0.12500000000E+03 0.  0.
</event>
<event>
 5    0  0.5619558E-005  0.7053237E+03  0.7546771E-02  0.9708171E-01
         21   -1    0    0  502  501  0.00000000000E+00  0.00000000000E+00  0.84999424420E+03  0.84999424420E+03  0.00000000000E+00 0. -1.
         21   -1    0    0  501  502 -0.00000000000E+00 -0.00000000000E+00 -0.58527628555E+03  0.58527628555E+03  0.00000000000E+00 0. -1.
         25    1    1    2    0    0  0.24964091822E+03 -0.17399286181E+03 -0.15021638173E+03  0.36164079603E+03  0.12500000000E+03 0.  0.
         25    1    1    2    0    0  0.55962087731E+02  0.33719232775E+02 -0.26763665851E+03  0.30252788780E+03  0.12500000000E+03 0.  0.
         25    1    1    2    0    0 -0.30560300595E+03  0.14027362903E+03  0.68257099889E+03  0.77110184591E+03  0.12500000000E+03 0.  0.
</event>
<event>
 5    0  0.5619558E-005  0.3113771E+03  0.7546771E-02  0.1079688E+00
         21   -1    0    0  502  501  0.00000000000E+00  0.00000000000E+00  0.83604689006E+02  0.83604689006E+02  0.00000000000E+00 0.  1.
         21   -1    0    0  501  502 -0.00000000000E+00 -0.00000000000E+00 -0.11596923478E+04  0.11596923478E+04  0.00000000000E+00 0.  1.
         25    1    1    2    0    0  0.69828840616E+02  0.10330192931E+02 -0.83876279719E+02  0.16626187226E+03  0.12500000000E+03 0.  0.
         25    1    1    2    0    0 -0.16776511847E+03 -0.10439827271E+03 -0.58223879339E+03  0.62743218506E+03  0.12500000000E+03 0.  0.
         25    1    1    2    0    0  0.97936277853E+02  0.94068079777E+02 -0.40997258570E+03  0.44960297950E+03  0.12500000000E+03 0.  0.
</event>
<event>
 5    0  0.5619558E-005  0.4575282E+03  0.7546771E-02  0.1025501E+00
         21   -1    0    0  502  501  0.00000000000E+00  0.00000000000E+00  0.18508336301E+04  0.18508336301E+04  0.00000000000E+00 0. -1.
         21   -1    0    0  501  502 -0.00000000000E+00 -0.00000000000E+00 -0.11310150261E+03  0.11310150261E+03  0.00000000000E+00 0. -1.
         25    1    1    2    0    0  0.15964193193E+03 -0.20485779407E+03  0.77995821863E+03  0.83151192717E+03  0.12500000000E+03 0.  0.
         25    1    1    2    0    0 -0.21175262258E+03  0.26140958431E+03  0.90979122038E+03  0.97801800015E+03  0.12500000000E+03 0.  0.
         25    1    1    2    0    0  0.52110690647E+02 -0.56551790242E+02  0.47982688496E+02  0.15440520540E+03  0.12500000000E+03 0.  0.
</event>
<event>
 5    0  0.5619558E-005  0.3185561E+03  0.7546771E-02  0.1076316E+00
         21   -1    0    0  502  501  0.00000000000E+00  0.00000000000E+00  0.52330624495E+03  0.52330624495E+03  0.00000000000E+00 0.  1.
         21   -1    0    0  501  502 -0.00000000000E+00 -0.00000000000E+00 -0.19391704392E+03  0.19391704392E+03  0.00000000000E+00 0.  1.
         25    1    1    2    0    0  0.20713892750E+02  0.64383881906E+02  0.26856272124E+03  0.30385076080E+03  0.12500000000E+03 0.  0.
         25    1    1    2    0    0 -0.30037771204E+02  0.79037955398E+01 -0.12390050386E+03  0.17872065505E+03  0.12500000000E+03 0.  0.
         25    1    1    2    0    0  0.93238784537E+01 -0.72287677446E+02  0.18472698366E+03  0.23465187302E+03  0.12500000000E+03 0.  0.
</event>
<event>
 5    0  0.5619558E-005  0.3711706E+03  0.7546771E-02  0.1054246E+00
         21   -1    0    0  502  501  0.00000000000E+00  0.00000000000E+00  0.10791320781E+03  0.10791320781E+03  0.00000000000E+00 0.  1.
         21   -1    0    0  501  502 -0.00000000000E+00 -0.00000000000E+00 -0.12766519062E+04  0.12766519062E+04  0.00000000000E+00 0.  1.
         25    1    1    2    0    0  0.80156904479E+01 -0.81091887691E+02 -0.31034316865E+03  0.34435160501E+03  0.12500000000E+03 0.  0.
         25    1    1    2    0    0  0.14580372446E+03 -0.10613623907E+03 -0.67964664653E+03  0.71419058482E+03  0.12500000000E+03 0.  0.
         25    1    1    2    0    0 -0.15381941491E+03  0.18722812676E+03 -0.17874888324E+03  0.32602292421E+03  0.12500000000E+03 0.  0.
</event>
<event>
 5    0  0.6991253E-005  0.2874613E+03  0.7546771E-02  0.1091682E+00
         21   -1    0    0  502  501  0.00000000000E+00  0.00000000000E+00  0.70408267735E+03  0.70408267735E+03  0.00000000000E+00 0. -1.
         21   -1    0    0  501  502 -0.00000000000E+00 -0.00000000000E+00 -0.11736409214E+03  0.11736409214E+03  0.00000000000E+00 0. -1.
         25    1    1    2    0    0  0.84874401427E+02  0.14137161818E+02  0.35913427916E+03  0.38987940934E+03  0.12500000000E+03 0.  0.
         25    1    1    2    0    0 -0.11183127817E+03 -0.91882691899E+02  0.46813741311E+02  0.19688877628E+03  0.12500000000E+03 0.  0.
         25    1    1    2    0    0  0.26956876747E+02  0.77745530081E+02  0.18077056474E+03  0.23467858387E+03  0.12500000000E+03 0.  0.
</event>
<event>
 5    0  0.5619558E-005  0.3574705E+03  0.7546771E-02  0.1059590E+00
         21   -1    0    0  502  501  0.00000000000E+00  0.00000000000E+00  0.44664709694E+03  0.44664709694E+03  0.00000000000E+00 0. -1.
         21   -1    0    0  501  502 -0.00000000000E+00 -0.00000000000E+00 -0.28609869334E+03  0.28609869334E+03  0.00000000000E+00 0. -1.
         25    1    1    2    0    0 -0.66455603595E+02  0.86439601935E+02 -0.25009136954E+02  0.16774566749E+03  0.12500000000E+03 0.  0.
         25    1    1    2    0    0  0.18562031372E+03 -0.15000420289E+03 -0.41656220297E+02  0.27261034911E+03  0.12500000000E+03 0.  0.
         25    1    1    2    0    0 -0.11916471013E+03  0.63564600960E+02  0.22721376084E+03  0.29238977368E+03  0.12500000000E+03 0.  0.
</event>
<event>
 5    0  0.5619558E-005  0.3084574E+03  0.7546771E-02  0.1081088E+00
         21   -1    0    0  502  501  0.00000000000E+00  0.00000000000E+00  0.13210601362E+04  0.13210601362E+04  0.00000000000E+00 0. -1.
         21   -1    0    0  501  502 -0.00000000000E+00 -0.00000000000E+00 -0.72022430750E+02  0.72022430750E+02  0.00000000000E+00 0. -1.
         25    1    1    2    0    0 -0.70569253248E+02  0.28648024148E+02  0.17940678896E+03  0.23154378575E+03  0.12500000000E+03 0.  0.
         25    1    1    2    0    0  0.10086011051E+03 -0.13404859580E+03  0.25368408474E+03  0.32881971167E+03  0.12500000000E+03 0.  0.
         25    1    1    2    0    0 -0.30290857266E+02  0.10540057165E+03  0.81594683171E+03  0.83271906950E+03  0.12500000000E+03 0.  0.
</event>
<event>
 5    0  0.5619558E-005  0.2774332E+03  0.7546771E-02  0.1097099E+00
         21   -1    0    0  502  501  0.00000000000E+00  0.00000000000E+00  0.96015826563E+02  0.96015826563E+02  0.00000000000E+00 0. -1.
         21   -1    0    0  501  502 -0.00000000000E+00 -0.00000000000E+00 -0.80163032458E+03  0.80163032458E+03  0.00000000000E+00 0. -1.
         25    1    1    2    0    0  0.84104629479E+02 -0.10849022806E+03 -0.14573808981E+03  0.23602607717E+03  0.12500000000E+03 0.  0.
         25    1    1    2    0    0  0.21477671014E+02  0.56341036516E+02 -0.10095016531E+03  0.17161450587E+03  0.12500000000E+03 0.  0.
         25    1    1    2    0    0 -0.10558230049E+03  0.52149191542E+02 -0.45892624289E+03  0.49000556810E+03  0.12500000000E+03 0.  0.
</event>
<event>
 5    0  0.5619558E-005  0.3303328E+03  0.7546771E-02  0.1070990E+00
         21   -1    0    0  502  501  0.00000000000E+00  0.00000000000E+00  0.54239782732E+02  0.54239782732E+02  0.00000000000E+00 0.  1.
         21   -1    0    0  501  502 -0.00000000000E+00 -0.00000000000E+00 -0.20118029196E+04  0.20118029196E+04  0.00000000000E+00 0.  1.
         25    1    1    2    0    0 -0.73780183747E+02  0.14359725073E+03 -0.28244783971E+03  0.34851896374E+03  0.12500000000E+03 0.  0.
         25    1    1    2    0    0 -0.70824448742E+02 -0.51274678676E+02 -0.94290706539E+03  0.95516696403E+03  0.12500000000E+03 0.  0.
         25    1    1    2    0    0  0.14460463249E+03 -0.92322572050E+02 -0.73220823175E+03  0.76235677455E+03  0.12500000000E+03 0.  0.
</event>
<event>
 5    0  0.5619558E-005  0.3395140E+03  0.7546771E-02  0.1067003E+00
         21   -1    0    0  502  501  0.00000000000E+00  0.00000000000E+00  0.66499200176E+02  0.66499200176E+02  0.00000000000E+00 0. -1.
         21   -1    0    0  501  502 -0.00000000000E+00 -0.00000000000E+00 -0.17334003773E+04  0.17334003773E+04  0.00000000000E+00 0. -1.
         25    1    1    2    0    0 -0.99840796006E+02  0.13118510776E+03 -0.32290768108E+03  0.38349978819E+03  0.12500000000E+03 0.  0.
         25    1    1    2    0    0 -0.77212441939E+02 -0.51131533394E+02 -0.22335856491E+03  0.27219523034E+03  0.12500000000E+03 0.  0.
         25    1    1    2    0    0  0.17705323794E+03 -0.80053574370E+02 -0.11206349311E+04  0.11442045589E+04  0.12500000000E+03 0.  0.
</event>
<event>
 5    0  0.5619558E-005  0.2883193E+03  0.7546771E-02  0.1091230E+00
         21   -1    0    0  502  501  0.00000000000E+00  0.00000000000E+00  0.56081704510E+02  0.56081704510E+02  0.00000000000E+00 0.  1.
         21   -1    0    0  501  502 -0.00000000000E+00 -0.00000000000E+00 -0.14822667152E+04  0.14822667152E+04  0.00000000000E+00 0.  1.
         25    1    1    2    0    0 -0.15659059868E+03  0.57093238664E+02 -0.76905018225E+03  0.79677062968E+03  0.12500000000E+03 0.  0.
         25    1    1    2    0    0  0.54357482495E+02  0.34003965286E+02 -0.40456023828E+03  0.42825809035E+03  0.12500000000E+03 0.  0.
         25    1    1    2    0    0  0.10223311619E+03 -0.91097203951E+02 -0.25257459018E+03  0.31331969970E+03  0.12500000000E+03 0.  0.
</event>
<event>
 5    0  0.5619558E-005  0.5998061E+03  0.7546771E-02  0.9905808E-01
         21   -1    0    0  502  501  0.00000000000E+00  0.00000000000E+00  0.10881881978E+03  0.10881881978E+03  0.00000000000E+00 0.  1.
         21   -1    0    0  501  502 -0.00000000000E+00 -0.00000000000E+00 -0.33061135088E+04  0.33061135088E+04  0.00000000000E+00 0.  1.
         25    1    1    2    0    0  0.76869256872E+02 -0.10161433134E+03 -0.25499309779E+04  0.25561704456E+04  0.12500000000E+03 0.  0.
         25    1    1    2    0    0 -0.39027200960E+02  0.26436457596E+03 -0.55915388089E+03  0.63221026087E+03  0.12500000000E+03 0.  0.
         25    1    1    2    0    0 -0.37842055912E+02 -0.16275024462E+03 -0.88209830201E+02  0.22655162207E+03  0.12500000000E+03 0.  0.
</event>
<event>
 5    0  0.5619558E-005  0.2513343E+03  0.7546771E-02  0.1112464E+00
         21   -1    0    0  502  501  0.00000000000E+00  0.00000000000E+00  0.78188571807E+03  0.78188571807E+03  0.00000000000E+00 0. -1.
         21   -1    0    0  501  502 -0.00000000000E+00 -0.00000000000E+00 -0.80790516503E+02  0.80790516503E+02  0.00000000000E+00 0. -1.
         25    1    1    2    0    0 -0.14472987838E+03  0.15682330402E+02  0.23777280388E+03  0.30553818002E+03  0.12500000000E+03 0.  0.
         25    1    1    2    0    0  0.53653472002E+02  0.39420710030E+02  0.17269714508E+03  0.22334276652E+03  0.12500000000E+03 0.  0.
         25    1    1    2    0    0  0.91076406380E+02 -0.55103040433E+02  0.29062525260E+03  0.33379528803E+03  0.12500000000E+03 0.  0.
</event>
<event>
 5    0  0.5619558E-005  0.2733266E+03  0.7546771E-02  0.1099391E+00
         21   -1    0    0  502  501  0.00000000000E+00  0.00000000000E+00  0.61926129120E+03  0.61926129120E+03  0.00000000000E+00 0. -1.
         21   -1    0    0  501  502 -0.00000000000E+00 -0.00000000000E+00 -0.12063959508E+03  0.12063959508E+03  0.00000000000E+00 0. -1.
         25    1    1    2    0    0  0.12971385465E+02 -0.13378235405E+03  0.14880907046E+03  0.23629455040E+03  0.12500000000E+03 0.  0.
         25    1    1    2    0    0 -0.84852739037E+00  0.78421296218E+02  0.33438062747E+03  0.36549421845E+03  0.12500000000E+03 0.  0.
         25    1    1    2    0    0 -0.12122858074E+02  0.55361057829E+02  0.15431998195E+02  0.13811211743E+03  0.12500000000E+03 0.  0.
</event>
<event>
 5    0  0.5619558E-005  0.3131372E+03  0.7546771E-02  0.1078852E+00
         21   -1    0    0  502  501  0.00000000000E+00  0.00000000000E+00  0.54102387338E+03  0.54102387338E+03  0.00000000000E+00 0. -1.
         21   -1    0    0  501  502 -0.00000000000E+00 -0.00000000000E+00 -0.18123956313E+03  0.18123956313E+03  0.00000000000E+00 0. -1.
         25    1    1    2    0    0 -0.17325205764E+03  0.93643525891E+02  0.38007794982E+01  0.23329130148E+03  0.12500000000E+03 0.  0.
         25    1    1    2    0    0  0.10798561833E+03 -0.49253486694E+02  0.26258157829E+03  0.31410330303E+03  0.12500000000E+03 0.  0.
         25    1    1    2    0    0  0.65266439318E+02 -0.44390039197E+02  0.93401952459E+02  0.17486883200E+03  0.12500000000E+03 0.  0.
</event>
<event>
 5    0  0.5619558E-005  0.2635318E+03  0.7546771E-02  0.1105040E+00
         21   -1    0    0  502  501  0.00000000000E+00  0.00000000000E+00  0.54939209113E+03  0.54939209113E+03  0.00000000000E+00 0.  1.
         21   -1    0    0  501  502 -0.00000000000E+00 -0.00000000000E+00 -0.12641062952E+03  0.12641062952E+03  0.00000000000E+00 0.  1.
         25    1    1    2    0    0  0.30959780650E+02  0.75455464467E+02  0.82211455872E+02  0.17039882222E+03  0.12500000000E+03 0.  0.
         25    1    1    2    0    0 -0.93942824700E+02 -0.87525229089E+01  0.31937533102E+02  0.15983387310E+03  0.12500000000E+03 0.  0.
         25    1    1    2    0    0  0.62983044049E+02 -0.66702941558E+02  0.30883247264E+03  0.34557002533E+03  0.12500000000E+03 0.  0.
</event>
<event>
 5    0  0.5619558E-005  0.3816085E+03  0.7546771E-02  0.1050341E+00
         21   -1    0    0  502  501  0.00000000000E+00  0.00000000000E+00  0.18322082974E+04  0.18322082974E+04  0.00000000000E+00 0. -1.
         21   -1    0    0  501  502 -0.00000000000E+00 -0.00000000000E+00 -0.79480614761E+02  0.79480614761E+02  0.00000000000E+00 0. -1.
         25    1    1    2    0    0 -0.66686519335E+01  0.51334789029E+02  0.10757662665E+04  0.10842406520E+04  0.12500000000E+03 0.  0.
         25    1    1    2    0    0  0.76972945157E+02 -0.21339065140E+03  0.38561967425E+03  0.46452980266E+03  0.12500000000E+03 0.  0.
         25    1    1    2    0    0 -0.70304293224E+02  0.16205586237E+03  0.29134174193E+03  0.36291845746E+03  0.12500000000E+03 0.  0.
</event>
<event>
 5    0  0.5619558E-005  0.4535502E+03  0.7546771E-02  0.1026669E+00
         21   -1    0    0  502  501  0.00000000000E+00  0.00000000000E+00  0.83442761889E+03  0.83442761889E+03  0.00000000000E+00 0.  1.
         21   -1    0    0  501  502 -0.00000000000E+00 -0.00000000000E+00 -0.24652561106E+03  0.24652561106E+03  0.00000000000E+00 0.  1.
         25    1    1    2    0    0 -0.27215216148E+02  0.78246663908E+02  0.10570927468E+03  0.18347386505E+03  0.12500000000E+03 0.  0.
         25    1    1    2    0    0  0.11434552554E+03 -0.28434255041E+03  0.54127593280E+03  0.63445269376E+03  0.12500000000E+03 0.  0.
         25    1    1    2    0    0 -0.87130309392E+02  0.20609588650E+03 -0.59083199659E+02  0.26302667114E+03  0.12500000000E+03 0.  0.
</event>
<event>
 5    0  0.5619558E-005  0.3977854E+03  0.7546771E-02  0.1044549E+00
         21   -1    0    0  502  501  0.00000000000E+00  0.00000000000E+00  0.10798117420E+03  0.10798117420E+03  0.00000000000E+00 0. -1.
         21   -1    0    0  501  502 -0.00000000000E+00 -0.00000000000E+00 -0.14653781495E+04  0.14653781495E+04  0.00000000000E+00 0. -1.
         25    1    1    2    0    0 -0.12679188183E+03 -0.10609582369E+03 -0.34014526431E+03  0.39831684114E+03  0.12500000000E+03 0.  0.
         25    1    1    2    0    0 -0.17894635176E+03 -0.43095817722E+02 -0.32861275526E+03  0.39685058805E+03  0.12500000000E+03 0.  0.
         25    1    1    2    0    0  0.30573823359E+03  0.14919164142E+03 -0.68863895574E+03  0.77819189453E+03  0.12500000000E+03 0.  0.
</event>
<event>
 5    0  0.5619558E-005  0.3037876E+03  0.7546771E-02  0.1083362E+00
         21   -1    0    0  502  501  0.00000000000E+00  0.00000000000E+00  0.44024155271E+02  0.44024155271E+02  0.00000000000E+00 0.  1.
         21   -1    0    0  501  502 -0.00000000000E+00 -0.00000000000E+00 -0.20962783170E+04  0.20962783170E+04  0.00000000000E+00 0.  1.
         25    1    1    2    0    0  0.77634315724E+02  0.12592276677E+03 -0.11203249114E+04  0.11369417476E+04  0.12500000000E+03 0.  0.
         25    1    1    2    0    0  0.55000964600E+02 -0.60309715406E+01 -0.51466642556E+03  0.53251104056E+03  0.12500000000E+03 0.  0.
         25    1    1    2    0    0 -0.13263528032E+03 -0.11989179523E+03 -0.41726282472E+03  0.47084968412E+03  0.12500000000E+03 0.  0.
</event>
<event>
 5    0  0.5619558E-005  0.2454431E+03  0.7546771E-02  0.1116219E+00
         21   -1    0    0  502  501  0.00000000000E+00  0.00000000000E+00  0.83313818888E+03  0.83313818888E+03  0.00000000000E+00 0.  1.
         21   -1    0    0  501  502 -0.00000000000E+00 -0.00000000000E+00 -0.72307723518E+02  0.72307723518E+02  0.00000000000E+00 0.  1.
         25    1    1    2    0    0 -0.84708193060E+02 -0.26518245295E+02  0.35616280621E+03  0.38775719185E+03  0.12500000000E+03 0.  0.
         25    1    1    2    0    0 -0.36074499806E+01 -0.18899975825E+02  0.64609045155E+02  0.14201954618E+03  0.12500000000E+03 0.  0.
         25    1    1    2    0    0  0.88315643041E+02  0.45418221121E+02  0.34005861399E+03  0.37566917436E+03  0.12500000000E+03 0.  0.
</event>
<event>
 5    0  0.5619558E-005  0.3704441E+03  0.7546771E-02  0.1054523E+00
         21   -1    0    0  502  501  0.00000000000E+00  0.00000000000E+00  0.25904640111E+03  0.25904640111E+03  0.00000000000E+00 0. -1.
         21   -1    0    0  501  502 -0.00000000000E+00 -0.00000000000E+00 -0.52974600497E+03  0.52974600497E+03  0.00000000000E+00 0. -1.
         25    1    1    2    0    0 -0.13660880920E+03  0.18447319961E+03 -0.14199471648E+03  0.29745558935E+03  0.12500000000E+03 0.  0.
         25    1    1    2    0    0  0.44016616693E+01 -0.23326143163E+03 -0.26756861813E+01  0.26469308531E+03  0.12500000000E+03 0.  0.
         25    1    1    2    0    0  0.13220714753E+03  0.48788232024E+02 -0.12602920120E+03  0.22664373143E+03  0.12500000000E+03 0.  0.
</event>
<event>
 5    0  0.5619558E-005  0.2528748E+03  0.7546771E-02  0.1111501E+00
         21   -1    0    0  502  501  0.00000000000E+00  0.00000000000E+00  0.44702730855E+02  0.44702730855E+02  0.00000000000E+00 0. -1.
         21   -1    0    0  501  502 -0.00000000000E+00 -0.00000000000E+00 -0.14304642264E+04  0.14304642264E+04  0.00000000000E+00 0. -1.
         25    1    1    2    0    0  0.24717709046E+02 -0.66955038725E+02 -0.48663898455E+03  0.50748048597E+03  0.12500000000E+03 0.  0.
         25    1    1    2    0    0 -0.78153971189E+02  0.13787533695E+03 -0.45254495819E+03  0.49551951620E+03  0.12500000000E+03 0.  0.
         25    1    1    2    0    0  0.53436262143E+02 -0.70920298221E+02 -0.44657755280E+03  0.47216695509E+03  0.12500000000E+03 0.  0.
</event>
<event>
 5    0  0.5705296E-005  0.2510785E+03  0.7546771E-02  0.1112625E+00
         21   -1    0    0  502  501  0.00000000000E+00  0.00000000000E+00  0.97748066154E+02  0.97748066154E+02  0.00000000000E+00 0. -1.
         21   -1    0    0  501  502 -0.00000000000E+00 -0.00000000000E+00 -0.64492726654E+03  0.64492726654E+03  0.00000000000E+00 0. -1.
         25    1    1    2    0    0 -0.13260432734E+02 -0.13389287199E+03 -0.32482842199E+03  0.37315096674E+03  0.12500000000E+03 0.  0.
         25    1    1    2    0    0 -0.19305537250E+02  0.66663813153E+02 -0.71504586108E+02  0.15985829221E+03  0.12500000000E+03 0.  0.
         25    1    1    2    0    0  0.32565969984E+02  0.67229058838E+02 -0.15084619229E+03  0.20966607375E+03  0.12500000000E+03 0.  0.
</event>
<event>
 5    0  0.5619558E-005  0.2672835E+03  0.7546771E-02  0.1102844E+00
         21   -1    0    0  502  501  0.00000000000E+00  0.00000000000E+00  0.12578649882E+03  0.12578649882E+03  0.00000000000E+00 0. -1.
         21   -1    0    0  501  502 -0.00000000000E+00 -0.00000000000E+00 -0.56795021707E+03  0.56795021707E+03  0.00000000000E+00 0. -1.
         25    1    1    2    0    0 -0.11192827703E+03 -0.12026724613E+02 -0.73381907016E+02  0.18352788775E+03  0.12500000000E+03 0.  0.
         25    1    1    2    0    0 -0.14582903544E+02 -0.31715313142E+02 -0.27579784177E+03  0.30480808994E+03  0.12500000000E+03 0.  0.
         25    1    1    2    0    0  0.12651118058E+03  0.43742037754E+02 -0.92983969455E+02  0.20540073820E+03  0.12500000000E+03 0.  0.
</event>
<event>
 5    0  0.5619558E-005  0.3505453E+03  0.7546771E-02  0.1062391E+00
         21   -1    0    0  502  501  0.00000000000E+00  0.00000000000E+00  0.90092471785E+02  0.90092471785E+02  0.00000000000E+00 0. -1.
         21   -1    0    0  501  502 -0.00000000000E+00 -0.00000000000E+00 -0.13639542739E+04  0.13639542739E+04  0.00000000000E+00 0. -1.
         25    1    1    2    0    0 -0.10895862616E+03  0.17405378081E+02 -0.41647610596E+02  0.17185590729E+03  0.12500000000E+03 0.  0.
         25    1    1    2    0    0  0.53438005992E+02  0.43051215418E+02 -0.96922298146E+03  0.97965668243E+03  0.12500000000E+03 0.  0.
         25    1    1    2    0    0  0.55520620168E+02 -0.60456593499E+02 -0.26299121006E+03  0.30253415597E+03  0.12500000000E+03 0.  0.
</event>
<event>
 5    0  0.5619558E-005  0.2959048E+03  0.7546771E-02  0.1087306E+00
         21   -1    0    0  502  501  0.00000000000E+00  0.00000000000E+00  0.16798786889E+03  0.16798786889E+03  0.00000000000E+00 0. -1.
         21   -1    0    0  501  502 -0.00000000000E+00 -0.00000000000E+00 -0.52122600702E+03  0.52122600702E+03  0.00000000000E+00 0. -1.
         25    1    1    2    0    0 -0.18556259733E+02  0.11774711947E+03 -0.26577144614E+03  0.31696715998E+03  0.12500000000E+03 0.  0.
         25    1    1    2    0    0  0.12435894300E+02 -0.18052261450E+03 -0.34832665363E+02  0.22266876833E+03  0.12500000000E+03 0.  0.
         25    1    1    2    0    0  0.61203654330E+01  0.62775495034E+02 -0.52634026625E+02  0.14957794760E+03  0.12500000000E+03 0.  0.
</event>
<event>
 5    0  0.5619558E-005  0.3870171E+03  0.7546771E-02  0.1048370E+00
         21   -1    0    0  502  501  0.00000000000E+00  0.00000000000E+00  0.53487348609E+03  0.53487348609E+03  0.00000000000E+00 0. -1.
         21   -1    0    0  501  502 -0.00000000000E+00 -0.00000000000E+00 -0.28003302385E+03  0.28003302385E+03  0.00000000000E+00 0. -1.
         25    1    1    2    0    0  0.48841466021E+02  0.26661996842E+03  0.22216377640E+03  0.37209332151E+03  0.12500000000E+03 0.  0.
         25    1    1    2    0    0 -0.38604471249E+02 -0.18420593112E+03 -0.95656237834E+02  0.24535127083E+03  0.12500000000E+03 0.  0.
         25    1    1    2    0    0 -0.10236994773E+02 -0.82414037298E+02  0.12833292367E+03  0.19746191760E+03  0.12500000000E+03 0.  0.
</event>
<event>
 5    0  0.6538367E-005  0.3537956E+03  0.7546771E-02  0.1061068E+00
         21   -1    0    0  502  501  0.00000000000E+00  0.00000000000E+00  0.46885688290E+03  0.46885688290E+03  0.00000000000E+00 0. -1.
         21   -1    0    0  501  502 -0.00000000000E+00 -0.00000000000E+00 -0.26697130566E+03  0.26697130566E+03  0.00000000000E+00 0. -1.
         25    1    1    2    0    0  0.30683340716E+02 -0.11307970908E+03 -0.48370696249E+02  0.17802587525E+03  0.12500000000E+03 0.  0.
         25    1    1    2    0    0 -0.14058465847E+03  0.61465102397E+02 -0.55790980715E+02  0.20562013165E+03  0.12500000000E+03 0.  0.
         25    1    1    2    0    0  0.10990131775E+03  0.51614606688E+02  0.30604725421E+03  0.35218218165E+03  0.12500000000E+03 0.  0.
</event>
<event>
 5    0  0.5619558E-005  0.3226760E+03  0.7546771E-02  0.1074424E+00
         21   -1    0    0  502  501  0.00000000000E+00  0.00000000000E+00  0.34263840626E+03  0.34263840626E+03  0.00000000000E+00 0. -1.
         21   -1    0    0  501  502 -0.00000000000E+00 -0.00000000000E+00 -0.30387663078E+03  0.30387663078E+03  0.00000000000E+00 0. -1.
         25    1    1    2    0    0 -0.93291419087E+02 -0.56403468935E+02 -0.79907769355E+02  0.18410565387E+03  0.12500000000E+03 0.  0.
         25    1    1    2    0    0  0.12997229709E+03  0.17133936281E+03  0.14310398413E+03  0.28697338819E+03  0.12500000000E+03 0.  0.
         25    1    1    2    0    0 -0.36680878001E+02 -0.11493589387E+03 -0.24434439300E+02  0.17543599498E+03  0.12500000000E+03 0.  0.
</event>
<event>
 5    0  0.5619558E-005  0.3723812E+03  0.7546771E-02  0.1053786E+00
         21   -1    0    0  502  501  0.00000000000E+00  0.00000000000E+00  0.53352326665E+03  0.53352326665E+03  0.00000000000E+00 0.  1.
         21   -1    0    0  501  502 -0.00000000000E+00 -0.00000000000E+00 -0.25990948404E+03  0.25990948404E+03  0.00000000000E+00 0.  1.
         25    1    1    2    0    0 -0.28152887656E+02 -0.64125961900E+02  0.16177919273E+03  0.21610699034E+03  0.12500000000E+03 0.  0.
         25    1    1    2    0    0  0.87955068436E+02  0.36889189137E+02 -0.18848746509E+03  0.24545759478E+03  0.12500000000E+03 0.  0.
         25    1    1    2    0    0 -0.59802180780E+02  0.27236772763E+02  0.30032205497E+03  0.33186816557E+03  0.12500000000E+03 0.  0.
</event>
<event>
 5    0  0.5619558E-005  0.3905352E+03  0.7546771E-02  0.1047107E+00
         21   -1    0    0  502  501  0.00000000000E+00  0.00000000000E+00  0.56150734464E+03  0.56150734464E+03  0.00000000000E+00 0.  1.
         21   -1    0    0  501  502 -0.00000000000E+00 -0.00000000000E+00 -0.27162194876E+03  0.27162194876E+03  0.00000000000E+00 0.  1.
         25    1    1    2    0    0  0.21408691052E+03 -0.18160078002E+03  0.11763175177E+03  0.32905056995E+03  0.12500000000E+03 0.  0.
         25    1    1    2    0    0 -0.25400643734E+03  0.96342127690E+02  0.17704313195E+03  0.34752028192E+03  0.12500000000E+03 0.  0.
         25    1    1    2    0    0  0.39919526818E+02  0.85258652335E+02 -0.47894878452E+01  0.15655844153E+03  0.12500000000E+03 0.  0.
</event>
<event>
 5    0  0.5619558E-005  0.2107892E+03  0.7546771E-02  0.1140943E+00
         21   -1    0    0  502  501  0.00000000000E+00  0.00000000000E+00  0.23695900176E+04  0.23695900176E+04  0.00000000000E+00 0. -1.
         21   -1    0    0  501  502 -0.00000000000E+00 -0.00000000000E+00 -0.18750961041E+02  0.18750961041E+02  0.00000000000E+00 0. -1.
         25    1    1    2    0    0 -0.55824182073E+02  0.12280370198E+01  0.11385216872E+04  0.11467233667E+04  0.12500000000E+03 0.  0.
         25    1    1    2    0    0  0.32107173738E+01 -0.10542227191E+02  0.72109868822E+03  0.73193562928E+03  0.12500000000E+03 0.  0.
         25    1    1    2    0    0  0.52613464699E+02  0.93141901708E+01  0.49121868117E+03  0.50968198274E+03  0.12500000000E+03 0.  0.
</event>
<event>
 5    0  0.5619558E-005  0.2282808E+03  0.7546771E-02  0.1127856E+00
         21   -1    0    0  502  501  0.00000000000E+00  0.00000000000E+00  0.87976846724E+03  0.87976846724E+03  0.00000000000E+00 0. -1.
         21   -1    0    0  501  502 -0.00000000000E+00 -0.00000000000E+00 -0.59233900106E+02  0.59233900106E+02  0.00000000000E+00 0. -1.
         25    1    1    2    0    0 -0.61223942935E+02 -0.34498636086E+02  0.15791357803E+03  0.21330781797E+03  0.12500000000E+03 0.  0.
         25    1    1    2    0    0 -0.19356296412E+02  0.46317324539E+02  0.21350007704E+03  0.25244255517E+03  0.12500000000E+03 0.  0.
         25    1    1    2    0    0  0.80580239348E+02 -0.11818688453E+02  0.44912091207E+03  0.47325199421E+03  0.12500000000E+03 0.  0.
</event>
<event>
 5    0  0.5619558E-005  0.3955285E+03  0.7546771E-02  0.1045339E+00
         21   -1    0    0  502  501  0.00000000000E+00  0.00000000000E+00  0.49474202722E+03  0.49474202722E+03  0.00000000000E+00 0.  1.
         21   -1    0    0  501  502 -0.00000000000E+00 -0.00000000000E+00 -0.31621078544E+03  0.31621078544E+03  0.00000000000E+00 0.  1.
         25    1    1    2    0    0  0.56755115802E+02 -0.20177011272E+03 -0.84027588214E+02  0.25810454691E+03  0.12500000000E+03 0.  0.
         25    1    1    2    0    0  0.27079273270E+02  0.24603570000E+03  0.39425452756E+02  0.28008252184E+03  0.12500000000E+03 0.  0.
         25    1    1    2    0    0 -0.83834389072E+02 -0.44265587280E+02  0.22313337724E+03  0.27276574390E+03  0.12500000000E+03 0.  0.
</event>
<event>
 5    0  0.5619558E-005  0.2547628E+03  0.7546771E-02  0.1110331E+00
         21   -1    0    0  502  501  0.00000000000E+00  0.00000000000E+00  0.11590117494E+04  0.11590117494E+04  0.00000000000E+00 0. -1.
         21   -1    0    0  501  502 -0.00000000000E+00 -0.00000000000E+00 -0.55999500009E+02  0.55999500009E+02  0.00000000000E+00 0. -1.
         25    1    1    2    0    0 -0.10671414107E+03  0.57140270564E+02  0.21422960394E+03  0.27599319128E+03  0.12500000000E+03 0.  0.
         25    1    1    2    0    0  0.27037816140E+02 -0.61893724503E+02  0.56973531230E+03  0.58718413016E+03  0.12500000000E+03 0.  0.
         25    1    1    2    0    0  0.79676324933E+02  0.47534539393E+01  0.31904733311E+03  0.35183392793E+03  0.12500000000E+03 0.  0.
</event>
<event>
 5    0  0.5619558E-005  0.3184243E+03  0.7546771E-02  0.1076377E+00
         21   -1    0    0  502  501  0.00000000000E+00  0.00000000000E+00  0.15373852371E+04  0.15373852371E+04  0.00000000000E+00 0. -1.
         21   -1    0    0  501  502 -0.00000000000E+00 -0.00000000000E+00 -0.65952269633E+02  0.65952269633E+02  0.00000000000E+00 0. -1.
         25    1    1    2    0    0 -0.10654762279E+03 -0.10887149182E+03  0.80747520145E+03  0.83117182256E+03  0.12500000000E+03 0.  0.
         25    1    1    2    0    0  0.83699944968E+02 -0.67800691053E+02  0.19692450778E+03  0.25691803413E+03  0.12500000000E+03 0.  0.
         25    1    1    2    0    0  0.22847677821E+02  0.17667218287E+03  0.46703325821E+03  0.51524765003E+03  0.12500000000E+03 0.  0.
</event>
<event>
 5    0  0.5619558E-005  0.3149469E+03  0.7546771E-02  0.1077999E+00
         21   -1    0    0  502  501  0.00000000000E+00  0.00000000000E+00  0.89162365708E+03  0.89162365708E+03  0.00000000000E+00 0.  1.
         21   -1    0    0  501  502 -0.00000000000E+00 -0.00000000000E+00 -0.11124825294E+03  0.11124825294E+03  0.00000000000E+00 0.  1.
         25    1    1    2    0    0  0.17958208343E+03 -0.15788117329E+03  0.30214725604E+03  0.40508536619E+03  0.12500000000E+03 0.  0.
         25    1    1    2    0    0 -0.54315462533E+02  0.40245476575E+02  0.23673668305E+03  0.27611433312E+03  0.12500000000E+03 0.  0.
         25    1    1    2    0    0 -0.12526662089E+03  0.11763569671E+03  0.24149146504E+03  0.32167221071E+03  0.12500000000E+03 0.  0.
</event>
<event>
 5    0  0.5619558E-005  0.2731637E+03  0.7546771E-02  0.1099482E+00
         21   -1    0    0  502  501  0.00000000000E+00  0.00000000000E+00  0.43593660941E+02  0.43593660941E+02  0.00000000000E+00 0. -1.
         21   -1    0    0  501  502 -0.00000000000E+00 -0.00000000000E+00 -0.17116796154E+04  0.17116796154E+04  0.00000000000E+00 0. -1.
         25    1    1    2    0    0 -0.27836760123E+02  0.14869555880E+01 -0.12804624489E+03  0.18110200739E+03  0.12500000000E+03 0.  0.
         25    1    1    2    0    0 -0.58234299184E+01  0.98250099793E+02 -0.64474597343E+03  0.66408535950E+03  0.12500000000E+03 0.  0.
         25    1    1    2    0    0  0.33660190041E+02 -0.99737055381E+02 -0.89529373610E+03  0.91008590942E+03  0.12500000000E+03 0.  0.
</event>
<event>
 5    0  0.5619558E-005  0.3250389E+03  0.7546771E-02  0.1073353E+00
         21   -1    0    0  502  501  0.00000000000E+00  0.00000000000E+00  0.17141321975E+03  0.17141321975E+03  0.00000000000E+00 0. -1.
         21   -1    0    0  501  502 -0.00000000000E+00 -0.00000000000E+00 -0.61634863912E+03  0.61634863912E+03  0.00000000000E+00 0. -1.
         25    1    1    2    0    0 -0.11529269725E+03 -0.10314048868E+03 -0.32462521444E+03  0.38070578705E+03  0.12500000000E+03 0.  0.
         25    1    1    2    0    0  0.11770274716E+03  0.13665880594E+03 -0.16010356622E+03  0.27163894759E+03  0.12500000000E+03 0.  0.
         25    1    1    2    0    0 -0.24100499143E+01 -0.33518317266E+02  0.39793361292E+02  0.13541712423E+03  0.12500000000E+03 0.  0.
</event>
<event>
 5    0  0.5619558E-005  0.3611367E+03  0.7546771E-02  0.1058135E+00
         21   -1    0    0  502  501  0.00000000000E+00  0.00000000000E+00  0.94754129134E+03  0.94754129134E+03  0.00000000000E+00 0. -1.
         21   -1    0    0  501  502 -0.00000000000E+00 -0.00000000000E+00 -0.13764015526E+03  0.13764015526E+03  0.00000000000E+00 0. -1.
         25    1    1    2    0    0 -0.17741089691E+02 -0.20173955612E+03  0.28535513411E+03  0.37157253306E+03  0.12500000000E+03 0.  0.
         25    1    1    2    0    0 -0.78312703803E+02  0.14422386705E+03  0.50395241467E+03  0.54454241309E+03  0.12500000000E+03 0.  0.
         25    1    1    2    0    0  0.96053793495E+02  0.57515689065E+02  0.20593587297E+02  0.16906650044E+03  0.12500000000E+03 0.  0.
</event>
<event>
 5    0  0.5619558E-005  0.2511756E+03  0.7546771E-02  0.1112564E+00
         21   -1    0    0  502  501  0.00000000000E+00  0.00000000000E+00  0.45299146053E+02  0.45299146053E+02  0.00000000000E+00 0.  1.
         21   -1    0    0  501  502 -0.00000000000E+00 -0.00000000000E+00 -0.13927237925E+04  0.13927237925E+04  0.00000000000E+00 0.  1.
         25    1    1    2    0    0  0.23360179549E+02  0.77924743587E+02 -0.26769967594E+03  0.30644098967E+03  0.12500000000E+03 0.  0.
         25    1    1    2    0    0 -0.14987095889E+02 -0.11464840086E+02 -0.17542335303E+03  0.21622767720E+03  0.12500000000E+03 0.  0.
         25    1    1    2    0    0 -0.83730836590E+01 -0.66459903501E+02 -0.90430161744E+03  0.91535427164E+03  0.12500000000E+03 0.  0.
</event>
<event>
 5    0  0.5619558E-005  0.3047384E+03  0.7546771E-02  0.1082896E+00
         21   -1    0    0  502  501  0.00000000000E+00  0.00000000000E+00  0.86856565443E+02  0.86856565443E+02  0.00000000000E+00 0. -1.
         21   -1    0    0  501  502 -0.00000000000E+00 -0.00000000000E+00 -0.10691823641E+04  0.10691823641E+04  0.00000000000E+00 0. -1.
         25    1    1    2    0    0 -0.11743002430E+03  0.50034903125E+00 -0.51411215064E+03  0.54196527969E+03  0.12500000000E+03 0.  0.
         25    1    1    2    0    0  0.34127061636E+02 -0.12398098610E+03 -0.12170595876E+03  0.21673320384E+03  0.12500000000E+03 0.  0.
         25    1    1    2    0    0  0.83302962660E+02  0.12348063707E+03 -0.34650768924E+03  0.39734044599E+03  0.12500000000E+03 0.  0.
</event>
<event>
 5    0  0.5619558E-005  0.3527248E+03  0.7546771E-02  0.1061502E+00
         21   -1    0    0  502  501  0.00000000000E+00  0.00000000000E+00  0.31242823787E+03  0.31242823787E+03  0.00000000000E+00 0.  1.
         21   -1    0    0  501  502 -0.00000000000E+00 -0.00000000000E+00 -0.39821871498E+03  0.39821871498E+03  0.00000000000E+00 0.  1.
         25    1    1    2    0    0  0.71821289750E+02  0.65378239454E+02  0.16398348263E+03  0.22792146549E+03  0.12500000000E+03 0.  0.
         25    1    1    2    0    0 -0.16596194173E+03  0.16172524144E+02 -0.46460028113E+02  0.21351452141E+03  0.12500000000E+03 0.  0.
         25    1    1    2    0    0  0.94140651977E+02 -0.81550763598E+02 -0.20331393162E+03  0.26921096595E+03  0.12500000000E+03 0.  0.
</event>
<event>
 5    0  0.5735051E-005  0.2838532E+03  0.7546771E-02  0.1093603E+00
         21   -1    0    0  502  501  0.00000000000E+00  0.00000000000E+00  0.27033246152E+03  0.27033246152E+03  0.00000000000E+00 0. -1.
         21   -1    0    0  501  502 -0.00000000000E+00 -0.00000000000E+00 -0.29805009449E+03  0.29805009449E+03  0.00000000000E+00 0. -1.
         25    1    1    2    0    0 -0.87183204762E+02 -0.74555262965E+02  0.78841516494E+02  0.18708389335E+03  0.12500000000E+03 0.  0.
         25    1    1    2    0    0 -0.29453637894E+01 -0.44073233721E+02 -0.12967952073E+03  0.18545323722E+03  0.12500000000E+03 0.  0.
         25    1    1    2    0    0  0.90128568552E+02  0.11862849669E+03  0.23120371267E+02  0.19584542543E+03  0.12500000000E+03 0.  0.
</event>
<event>
 5    0  0.5619558E-005  0.2540541E+03  0.7546771E-02  0.1110769E+00
         21   -1    0    0  502  501  0.00000000000E+00  0.00000000000E+00  0.56060225978E+02  0.56060225978E+02  0.00000000000E+00 0.  1.
         21   -1    0    0  501  502 -0.00000000000E+00 -0.00000000000E+00 -0.11513235910E+04  0.11513235910E+04  0.00000000000E+00 0.  1.
         25    1    1    2    0    0  0.49013077788E+02  0.11560559196E+03 -0.36030038418E+03  0.40150753608E+03  0.12500000000E+03 0.  0.
         25    1    1    2    0    0 -0.35219068456E+02 -0.11934835583E+03 -0.58024411071E+03  0.60645910072E+03  0.12500000000E+03 0.  0.
         25    1    1    2    0    0 -0.13794009332E+02  0.37427638709E+01 -0.15471887008E+03  0.19941718014E+03  0.12500000000E+03 0.  0.
</event>
<event>
 5    0  0.7137524E-005  0.2493952E+03  0.7546771E-02  0.1113688E+00
         21   -1    0    0  502  501  0.00000000000E+00  0.00000000000E+00  0.15248772920E+03  0.15248772920E+03  0.00000000000E+00 0. -1.
         21   -1    0    0  501  502 -0.00000000000E+00 -0.00000000000E+00 -0.40788847293E+03  0.40788847293E+03  0.00000000000E+00 0. -1.
         25    1    1    2    0    0  0.27910986023E+02 -0.72577916452E+02 -0.24596050267E+01  0.14723323930E+03  0.12500000000E+03 0.  0.
         25    1    1    2    0    0 -0.42609991974E+02  0.12942679609E+03 -0.17485220393E+03  0.25449007875E+03  0.12500000000E+03 0.  0.
         25    1    1    2    0    0  0.14699005951E+02 -0.56848879640E+02 -0.78088934768E+02  0.15865288408E+03  0.12500000000E+03 0.  0.
</event>
<event>
 5    0  0.5619558E-005  0.3019178E+03  0.7546771E-02  0.1084286E+00
         21   -1    0    0  502  501  0.00000000000E+00  0.00000000000E+00  0.89379203851E+03  0.89379203851E+03  0.00000000000E+00 0. -1.
         21   -1    0    0  501  502 -0.00000000000E+00 -0.00000000000E+00 -0.10198611678E+03  0.10198611678E+03  0.00000000000E+00 0. -1.
         25    1    1    2    0    0  0.79161726039E+02  0.55156659478E+02  0.36070035916E+03  0.39374939372E+03  0.12500000000E+03 0.  0.
         25    1    1    2    0    0  0.11265117827E+03 -0.86371621874E+02  0.19633628967E+03  0.27262296982E+03  0.12500000000E+03 0.  0.
         25    1    1    2    0    0 -0.19181290431E+03  0.31214962396E+02  0.23476927289E+03  0.32940579174E+03  0.12500000000E+03 0.  0.
</event>
<event>
 5    0  0.5619558E-005  0.4691296E+03  0.7546771E-02  0.1022166E+00
         21   -1    0    0  502  501  0.00000000000E+00  0.00000000000E+00  0.67259856957E+03  0.67259856957E+03  0.00000000000E+00 0. -1.
         21   -1    0    0  501  502 -0.00000000000E+00 -0.00000000000E+00 -0.32721239768E+03  0.32721239768E+03  0.00000000000E+00 0. -1.
         25    1    1    2    0    0 -0.10019225963E+03  0.14223780361E+03  0.15722987437E+03  0.26573730461E+03  0.12500000000E+03 0.  0.
         25    1    1    2    0    0 -0.51584001516E+02  0.24240110987E+03  0.73787623059E+02  0.28720867082E+03  0.12500000000E+03 0.  0.
         25    1    1    2    0    0  0.15177626115E+03 -0.38463891349E+03  0.11436867446E+03  0.44686499182E+03  0.12500000000E+03 0.  0.
</event>
<event>
 5    0  0.5619558E-005  0.3973873E+03  0.7546771E-02  0.1044688E+00
         21   -1    0    0  502  501  0.00000000000E+00  0.00000000000E+00  0.85421116871E+03  0.85421116871E+03  0.00000000000E+00 0.  1.
         21   -1    0    0  501  502 -0.00000000000E+00 -0.00000000000E+00 -0.18486841579E+03  0.18486841579E+03  0.00000000000E+00 0.  1.
         25    1    1    2    0    0 -0.17415282098E+02 -0.10838766900E+03  0.22215910216E+03  0.27754431270E+03  0.12500000000E+03 0.  0.
         25    1    1    2    0    0  0.10707579116E+03  0.27852684003E+03  0.42059248258E+03  0.53062742303E+03  0.12500000000E+03 0.  0.
         25    1    1    2    0    0 -0.89660509062E+02 -0.17013917103E+03  0.26591168186E+02  0.23090784878E+03  0.12500000000E+03 0.  0.
</event>
<event>
 5    0  0.5619558E-005  0.3602848E+03  0.7546771E-02  0.1058471E+00
         21   -1    0    0  502  501  0.00000000000E+00  0.00000000000E+00  0.55949812583E+02  0.55949812583E+02  0.00000000000E+00 0. -1.
         21   -1    0    0  501  502 -0.00000000000E+00 -0.00000000000E+00 -0.23200287291E+04  0.23200287291E+04  0.00000000000E+00 0. -1.
         25    1    1    2    0    0  0.14293401221E+03  0.13235023230E+03 -0.29684488316E+03  0.37641546261E+03  0.12500000000E+03 0.  0.
         25    1    1    2    0    0 -0.12410632907E+03 -0.14642907300E+03 -0.11644693431E+04  0.11867846078E+04  0.12500000000E+03 0.  0.
         25    1    1    2    0    0 -0.18827683134E+02  0.14078840705E+02 -0.80276469025E+03  0.81277847124E+03  0.12500000000E+03 0.  0.
</event>
<event>
 5    0  0.5619558E-005  0.2964142E+03  0.7546771E-02  0.1087047E+00
         21   -1    0    0  502  501  0.00000000000E+00  0.00000000000E+00  0.36463420308E+03  0.36463420308E+03  0.00000000000E+00 0. -1.
         21   -1    0    0  501  502 -0.00000000000E+00 -0.00000000000E+00 -0.24095763677E+03  0.24095763677E+03  0.00000000000E+00 0. -1.
         25    1    1    2    0    0 -0.12715533474E+03  0.17583820247E+02  0.21615576419E+03  0.28075965572E+03  0.12500000000E+03 0.  0.
         25    1    1    2    0    0  0.33728775238E+02 -0.67480204326E+02 -0.27444675818E+02  0.14855779510E+03  0.12500000000E+03 0.  0.
         25    1    1    2    0    0  0.93426559502E+02  0.49896384079E+02 -0.65034522061E+02  0.17627438902E+03  0.12500000000E+03 0.  0.
</event>
<event>
 5    0  0.5619558E-005  0.2816904E+03  0.7546771E-02  0.1094769E+00
         21   -1    0    0  502  501  0.00000000000E+00  0.00000000000E+00  0.34988691730E+03  0.34988691730E+03  0.00000000000E+00 0.  1.
         21   -1    0    0  501  502 -0.00000000000E+00 -0.00000000000E+00 -0.22678610819E+03  0.22678610819E+03  0.00000000000E+00 0.  1.
         25    1    1    2    0    0  0.83806364014E+02  0.75368360302E+02  0.13700845165E+03  0.21702583304E+03  0.12500000000E+03 0.  0.
         25    1    1    2    0    0 -0.56196125978E+02 -0.14303039142E+03 -0.61190157774E+02  0.20732808023E+03  0.12500000000E+03 0.  0.
         25    1    1    2    0    0 -0.27610238037E+02  0.67662031117E+02  0.47282515229E+02  0.15231911221E+03  0.12500000000E+03 0.  0.
</event>
<event>
 5    0  0.5619558E-005  0.2205562E+03  0.7546771E-02  0.1133469E+00
         21   -1    0    0  502  501  0.00000000000E+00  0.00000000000E+00  0.74774305511E+03  0.74774305511E+03  0.00000000000E+00 0.  1.
         21   -1    0    0  501  502 -0.00000000000E+00 -0.00000000000E+00 -0.65055802183E+02  0.65055802183E+02  0.00000000000E+00 0.  1.
         25    1    1    2    0    0  0.15338438028E+02  0.50075089436E+02  0.32495743221E+03  0.35208680039E+03  0.12500000000E+03 0.  0.
         25    1    1    2    0    0  0.10682102081E+02  0.39231344052E+02  0.13077622875E+03  0.18542013825E+03  0.12500000000E+03 0.  0.
         25    1    1    2    0    0 -0.26020540109E+02 -0.89306433488E+02  0.22695359197E+03  0.27529191866E+03  0.12500000000E+03 0.  0.
</event>
<event>
 5    0  0.5619558E-005  0.2183089E+03  0.7546771E-02  0.1135150E+00
         21   -1    0    0  502  501  0.00000000000E+00  0.00000000000E+00  0.34848623999E+03  0.34848623999E+03  0.00000000000E+00 0.  1.
         21   -1    0    0  501  502 -0.00000000000E+00 -0.00000000000E+00 -0.13675935732E+03  0.13675935732E+03  0.00000000000E+00 0.  1.
         25    1    1    2    0    0  0.58741471359E+02  0.23777128216E+02  0.10769368886E+03  0.17674513545E+03  0.12500000000E+03 0.  0.
         25    1    1    2    0    0 -0.71592703762E+02  0.35509860288E+02  0.31131641950E+02  0.15159368239E+03  0.12500000000E+03 0.  0.
         25    1    1    2    0    0  0.12851232404E+02 -0.59286988504E+02  0.72901551862E+02  0.15690677947E+03  0.12500000000E+03 0.  0.
</event>
<event>
 5    0  0.5636057E-005  0.3155198E+03  0.7546771E-02  0.1077730E+00
         21   -1    0    0  502  501  0.00000000000E+00  0.00000000000E+00  0.36589073045E+03  0.36589073045E+03  0.00000000000E+00 0. -1.
         21   -1    0    0  501  502 -0.00000000000E+00 -0.00000000000E+00 -0.27208332772E+03  0.27208332772E+03  0.00000000000E+00 0. -1.
         25    1    1    2    0    0 -0.41006603781E+02 -0.20017413074E+02  0.19387309771E+03  0.23514679754E+03  0.12500000000E+03 0.  0.
         25    1    1    2    0    0 -0.37026815156E+02  0.11664984469E+03 -0.13770802101E+03  0.22263573468E+03  0.12500000000E+03 0.  0.
         25    1    1    2    0    0  0.78033418936E+02 -0.96632431619E+02  0.37642326039E+02  0.18019152594E+03  0.12500000000E+03 0.  0.
</event>
<event>
 5    0  0.5619558E-005  0.2734080E+03  0.7546771E-02  0.1099345E+00
         21   -1    0    0  502  501  0.00000000000E+00  0.00000000000E+00  0.86125571898E+02  0.86125571898E+02  0.00000000000E+00 0.  1.
         21   -1    0    0  501  502 -0.00000000000E+00 -0.00000000000E+00 -0.86794107883E+03  0.86794107883E+03  0.00000000000E+00 0.  1.
         25    1    1    2    0    0 -0.24742688977E+02 -0.15122109792E+03 -0.29974204117E+03  0.35909652234E+03  0.12500000000E+03 0.  0.
         25    1    1    2    0    0  0.24729913982E+02 -0.23922956114E+02 -0.22547713194E+03  0.26009385518E+03  0.12500000000E+03 0.  0.
         25    1    1    2    0    0  0.12774995054E-01  0.17514405403E+03 -0.25659633383E+03  0.33487627321E+03  0.12500000000E+03 0.  0.
</event>
<event>
 5    0  0.5619558E-005  0.4448379E+03  0.7546771E-02  0.1029273E+00
         21   -1    0    0  502  501  0.00000000000E+00  0.00000000000E+00  0.88984013090E+02  0.88984013090E+02  0.00000000000E+00 0.  1.
         21   -1    0    0  501  502 -0.00000000000E+00 -0.00000000000E+00 -0.22237783555E+04  0.22237783555E+04  0.00000000000E+00 0.  1.
         25    1    1    2    0    0  0.33548629950E+03  0.14522513862E+03 -0.68040297669E+03  0.78244144108E+03  0.12500000000E+03 0.  0.
         25    1    1    2    0    0 -0.27465120354E+03 -0.12527927166E+03 -0.87106716846E+03  0.93032853954E+03  0.12500000000E+03 0.  0.
         25    1    1    2    0    0 -0.60835095958E+02 -0.19945866967E+02 -0.58332419729E+03  0.59999238800E+03  0.12500000000E+03 0.  0.
</event>
<event>
 5    0  0.5838327E-005  0.2798254E+03  0.7546771E-02  0.1095784E+00
         21   -1    0    0  502  501  0.00000000000E+00  0.00000000000E+00  0.49152511622E+03  0.49152511622E+03  0.00000000000E+00 0.  1.
         21   -1    0    0  501  502 -0.00000000000E+00 -0.00000000000E+00 -0.15930467889E+03  0.15930467889E+03  0.00000000000E+00 0.  1.
         25    1    1    2    0    0  0.14014958162E+03 -0.12799341879E+03  0.89111796911E+02  0.24411090273E+03  0.12500000000E+03 0.  0.
         25    1    1    2    0    0 -0.23655634692E+02  0.55790936564E+02  0.84030065696E+02  0.16235230087E+03  0.12500000000E+03 0.  0.
         25    1    1    2    0    0 -0.11649394693E+03  0.72202482231E+02  0.15907857473E+03  0.24436659152E+03  0.12500000000E+03 0.  0.
</event>
<event>
 5    0  0.5979227E-005  0.3062233E+03  0.7546771E-02  0.1082170E+00
         21   -1    0    0  502  501  0.00000000000E+00  0.00000000000E+00  0.22636034836E+03  0.22636034836E+03  0.00000000000E+00 0.  1.
         21   -1    0    0  501  502 -0.00000000000E+00 -0.00000000000E+00 -0.41426294891E+03  0.41426294891E+03  0.00000000000E+00 0.  1.
         25    1    1    2    0    0 -0.15311825733E+03 -0.89423138992E+02  0.33293631515E+02  0.21948841522E+03  0.12500000000E+03 0.  0.
         25    1    1    2    0    0  0.73465289858E+02  0.36117946670E+02 -0.21711949078E+03  0.26356693298E+03  0.12500000000E+03 0.  0.
         25    1    1    2    0    0  0.79652967477E+02  0.53305192322E+02 -0.40767412884E+01  0.15756794908E+03  0.12500000000E+03 0.  0.
</event>
<event>
 5    0  0.5619558E-005  0.3109448E+03  0.7546771E-02  0.1079894E+00
         21   -1    0    0  502  501  0.00000000000E+00  0.00000000000E+00  0.21363049938E+04  0.21363049938E+04  0.00000000000E+00 0.  1.
         21   -1    0    0  501  502 -0.00000000000E+00 -0.00000000000E+00 -0.45258826282E+02  0.45258826282E+02  0.00000000000E+00 0.  1.
         25    1    1    2    0    0  0.31757317900E+02  0.84473965170E+02  0.24316121645E+03  0.28791796612E+03  0.12500000000E+03 0.  0.
         25    1    1    2    0    0 -0.98348054958E+02 -0.15244574669E+03  0.66906317960E+03  0.70440228839E+03  0.12500000000E+03 0.  0.
         25    1    1    2    0    0  0.66590737057E+02  0.67971781525E+02  0.11788217715E+04  0.11892435656E+04  0.12500000000E+03 0.  0.
</event>
<event>
 5    0  0.5619558E-005  0.6272898E+03  0.7546771E-02  0.9850352E-01
         21   -1    0    0  502  501  0.00000000000E+00  0.00000000000E+00  0.98644421736E+03  0.98644421736E+03  0.00000000000E+00 0.  1.
         21   -1    0    0  501  502 -0.00000000000E+00 -0.00000000000E+00 -0.39889987896E+03  0.39889987896E+03  0.00000000000E+00 0.  1.
         25    1    1    2    0    0 -0.30628723670E+03  0.68197726282E+02 -0.90948637734E+02  0.34979916515E+03  0.12500000000E+03 0.  0.
         25    1    1    2    0    0  0.33742472067E+03 -0.33135140270E+03  0.43430230724E+03  0.65413506882E+03  0.12500000000E+03 0.  0.
         25    1    1    2    0    0 -0.31137483968E+02  0.26315367642E+03  0.24419066889E+03  0.38140986235E+03  0.12500000000E+03 0.  0.
</event>
<event>
 5    0  0.5619558E-005  0.3505989E+03  0.7546771E-02  0.1062370E+00
         21   -1    0    0  502  501  0.00000000000E+00  0.00000000000E+00  0.32472326921E+03  0.32472326921E+03  0.00000000000E+00 0. -1.
         21   -1    0    0  501  502 -0.00000000000E+00 -0.00000000000E+00 -0.37853633792E+03  0.37853633792E+03  0.00000000000E+00 0. -1.
         25    1    1    2    0    0 -0.27164017061E+01  0.21550731504E+03 -0.18720773306E+03  0.31164485716E+03  0.12500000000E+03 0.  0.
         25    1    1    2    0    0  0.35226165189E+02 -0.19245428201E+03  0.11512523125E+03  0.25914928564E+03  0.12500000000E+03 0.  0.
         25    1    1    2    0    0 -0.32509763482E+02 -0.23053033033E+02  0.18269433095E+02  0.13246546433E+03  0.12500000000E+03 0.  0.
</event>
<event>
 5    0  0.5669078E-005  0.3514980E+03  0.7546771E-02  0.1062002E+00
         21   -1    0    0  502  501  0.00000000000E+00  0.00000000000E+00  0.75887332781E+03  0.75887332781E+03  0.00000000000E+00 0. -1.
         21   -1    0    0  501  502 -0.00000000000E+00 -0.00000000000E+00 -0.16280823065E+03  0.16280823065E+03  0.00000000000E+00 0. -1.
         25    1    1    2    0    0 -0.13293323529E+03 -0.11009437370E+03  0.91867104066E+02  0.23207020699E+03  0.12500000000E+03 0.  0.
         25    1    1    2    0    0 -0.71898050636E+02  0.71229505008E+02  0.40184210888E+02  0.16577919916E+03  0.12500000000E+03 0.  0.
         25    1    1    2    0    0  0.20483128593E+03  0.38864868690E+02  0.46401378221E+03  0.52383215231E+03  0.12500000000E+03 0.  0.
</event>
<event>
 5    0  0.5619558E-005  0.2203723E+03  0.7546771E-02  0.1133606E+00
         21   -1    0    0  502  501  0.00000000000E+00  0.00000000000E+00  0.59014913092E+02  0.59014913092E+02  0.00000000000E+00 0. -1.
         21   -1    0    0  501  502 -0.00000000000E+00 -0.00000000000E+00 -0.82290970766E+03  0.82290970766E+03  0.00000000000E+00 0. -1.
         25    1    1    2    0    0 -0.41949809466E+02 -0.35236259490E+02 -0.10234381883E+03  0.17058909036E+03  0.12500000000E+03 0.  0.
         25    1    1    2    0    0  0.10334699459E+02  0.84050941182E+01 -0.38550135580E+03  0.40547965047E+03  0.12500000000E+03 0.  0.
         25    1    1    2    0    0  0.31615110007E+02  0.26831165371E+02 -0.27604961994E+03  0.30585587992E+03  0.12500000000E+03 0.  0.
</event>
<event>
 5    0  0.5619558E-005  0.6863773E+03  0.7546771E-02  0.9740817E-01
         21   -1    0    0  502  501  0.00000000000E+00  0.00000000000E+00  0.87931205896E+03  0.87931205896E+03  0.00000000000E+00 0.  1.
         21   -1    0    0  501  502 -0.00000000000E+00 -0.00000000000E+00 -0.53577543521E+03  0.53577543521E+03  0.00000000000E+00 0.  1.
         25    1    1    2    0    0 -0.86618857272E+02  0.57643513314E+03  0.18526374980E+03  0.62428194443E+03  0.12500000000E+03 0.  0.
         25    1    1    2    0    0 -0.66299906261E+02 -0.25443216296E+03 -0.12681499523E+03  0.31755069852E+03  0.12500000000E+03 0.  0.
         25    1    1    2    0    0  0.15291876353E+03 -0.32200297018E+03  0.28508786918E+03  0.47325485121E+03  0.12500000000E+03 0.  0.
</event>
<event>
 5    0  0.5619558E-005  0.2466840E+03  0.7546771E-02  0.1115419E+00
         21   -1    0    0  502  501  0.00000000000E+00  0.00000000000E+00  0.97784338934E+03  0.97784338934E+03  0.00000000000E+00 0.  1.
         21   -1    0    0  501  502 -0.00000000000E+00 -0.00000000000E+00 -0.62231854763E+02  0.62231854763E+02  0.00000000000E+00 0.  1.
         25    1    1    2    0    0  0.11448320574E+02  0.12215711831E+03  0.21645272921E+03  0.27844247086E+03  0.12500000000E+03 0.  0.
         25    1    1    2    0    0 -0.49782446522E+02 -0.38324615039E+02  0.41286017265E+03  0.43591924741E+03  0.12500000000E+03 0.  0.
         25    1    1    2    0    0  0.38334125947E+02 -0.83832503268E+02  0.28629863271E+03  0.32571352583E+03  0.12500000000E+03 0.  0.
</event>
<event>
 5    0  0.5619558E-005  0.3091496E+03  0.7546771E-02  0.1080754E+00
         21   -1    0    0  502  501  0.00000000000E+00  0.00000000000E+00  0.44616613176E+03  0.44616613176E+03  0.00000000000E+00 0. -1.
         21   -1    0    0  501  502 -0.00000000000E+00 -0.00000000000E+00 -0.21421047951E+03  0.21421047951E+03  0.00000000000E+00 0. -1.
         25    1    1    2    0    0  0.27309306996E+02  0.10767333659E+03  0.87734710554E+02  0.18884312298E+03  0.12500000000E+03 0.  0.
         25    1    1    2    0    0 -0.54489726988E+02  0.94800816280E+02  0.16118550354E+03  0.23143485404E+03  0.12500000000E+03 0.  0.
         25    1    1    2    0    0  0.27180419992E+02 -0.20247415287E+03 -0.16964561844E+02  0.24009863425E+03  0.12500000000E+03 0.  0.
</event>
<event>
 5    0  0.7903054E-005  0.2807159E+03  0.7546771E-02  0.1095299E+00
         21   -1    0    0  502  501  0.00000000000E+00  0.00000000000E+00  0.55629797192E+03  0.55629797192E+03  0.00000000000E+00 0.  1.
         21   -1    0    0  501  502 -0.00000000000E+00 -0.00000000000E+00 -0.14165323988E+03  0.14165323988E+03  0.00000000000E+00 0.  1.
         25    1    1    2    0    0 -0.48329556951E+02 -0.47958134829E+02  0.81441349028E+01  0.14257298378E+03  0.12500000000E+03 0.  0.
         25    1    1    2    0    0  0.33199635557E+02 -0.43741854723E+02  0.19131173002E+02  0.13786430806E+03  0.12500000000E+03 0.  0.
         25    1    1    2    0    0  0.15129921394E+02  0.91699989552E+02  0.38736942414E+03  0.41751391996E+03  0.12500000000E+03 0.  0.
</event>
<event>
 5    0  0.5619558E-005  0.2769021E+03  0.7546771E-02  0.1097393E+00
         21   -1    0    0  502  501  0.00000000000E+00  0.00000000000E+00  0.88019327195E+03  0.88019327195E+03  0.00000000000E+00 0.  1.
         21   -1    0    0  501  502 -0.00000000000E+00 -0.00000000000E+00 -0.87111299764E+02  0.87111299764E+02  0.00000000000E+00 0.  1.
         25    1    1    2    0    0 -0.15702900181E+02  0.36009867330E+02  0.19596586552E+03  0.23573483423E+03  0.12500000000E+03 0.  0.
         25    1    1    2    0    0 -0.78388701931E+02 -0.16391991607E+03  0.31631435231E+03  0.38560899491E+03  0.12500000000E+03 0.  0.
         25    1    1    2    0    0  0.94091602111E+02  0.12791004874E+03  0.28080175435E+03  0.34596074257E+03  0.12500000000E+03 0.  0.
</event>
<event>
 5    0  0.5619558E-005  0.3157544E+03  0.7546771E-02  0.1077620E+00
         21   -1    0    0  502  501  0.00000000000E+00  0.00000000000E+00  0.20684689126E+04  0.20684689126E+04  0.00000000000E+00 0. -1.
         21   -1    0    0  501  502 -0.00000000000E+00 -0.00000000000E+00 -0.48200308841E+02  0.48200308841E+02  0.00000000000E+00 0. -1.
         25    1    1    2    0    0 -0.96795469329E+01 -0.82526432157E+02  0.62443099583E+03  0.64221754428E+03  0.12500000000E+03 0.  0.
         25    1    1    2    0    0  0.14799097095E+03  0.85317782039E+02  0.32739256956E+03  0.38986067513E+03  0.12500000000E+03 0.  0.
         25    1    1    2    0    0 -0.13831142402E+03 -0.27913498817E+01  0.10684450384E+04  0.10845910021E+04  0.12500000000E+03 0.  0.
</event>
<event>
 5    0  0.5852236E-005  0.2943550E+03  0.7546771E-02  0.1088097E+00
         21   -1    0    0  502  501  0.00000000000E+00  0.00000000000E+00  0.77166701127E+02  0.77166701127E+02  0.00000000000E+00 0. -1.
         21   -1    0    0  501  502 -0.00000000000E+00 -0.00000000000E+00 -0.11228273878E+04  0.11228273878E+04  0.00000000000E+00 0. -1.
         25    1    1    2    0    0 -0.13584669634E+03 -0.45356623148E+02 -0.13981319607E+03  0.23597516387E+03  0.12500000000E+03 0.  0.
         25    1    1    2    0    0  0.32733944938E+02  0.45216640640E+01 -0.61624349698E+03  0.62966102323E+03  0.12500000000E+03 0.  0.
         25    1    1    2    0    0  0.10311275141E+03  0.40834959084E+02 -0.28960399358E+03  0.33435790178E+03  0.12500000000E+03 0.  0.
</event>
<event>
 5    0  0.5619558E-005  0.2875300E+03  0.7546771E-02  0.1091646E+00
         21   -1    0    0  502  501  0.00000000000E+00  0.00000000000E+00  0.36898587208E+03  0.36898587208E+03  0.00000000000E+00 0.  1.
         21   -1    0    0  501  502 -0.00000000000E+00 -0.00000000000E+00 -0.22405608425E+03  0.22405608425E+03  0.00000000000E+00 0.  1.
         25    1    1    2    0    0 -0.48993649239E+02 -0.12204188077E+03  0.11583786649E+03  0.21526265268E+03  0.12500000000E+03 0.  0.
         25    1    1    2    0    0  0.47665094970E+02  0.13436509214E+02 -0.10020436260E+03  0.16768546551E+03  0.12500000000E+03 0.  0.
         25    1    1    2    0    0  0.13285542691E+01  0.10860537155E+03  0.12929628394E+03  0.21009383815E+03  0.12500000000E+03 0.  0.
</event>
<event>
 5    0  0.5619558E-005  0.2123321E+03  0.7546771E-02  0.1139732E+00
         21   -1    0    0  502  501  0.00000000000E+00  0.00000000000E+00  0.67065051581E+03  0.67065051581E+03  0.00000000000E+00 0.  1.
         21   -1    0    0  501  502 -0.00000000000E+00 -0.00000000000E+00 -0.67225635370E+02  0.67225635370E+02  0.00000000000E+00 0.  1.
         25    1    1    2    0    0 -0.27941027656E+02 -0.23530148329E+02  0.18742485993E+03  0.22822674477E+03  0.12500000000E+03 0.  0.
         25    1    1    2    0    0  0.63407604841E+02 -0.36595393839E+01  0.30837548284E+03  0.33875412174E+03  0.12500000000E+03 0.  0.
         25    1    1    2    0    0 -0.35466577185E+02  0.27189687712E+02  0.10762453767E+03  0.17089528468E+03  0.12500000000E+03 0.  0.
</event>
<event>
 5    0  0.5619558E-005  0.3830306E+03  0.7546771E-02  0.1049819E+00
         21   -1    0    0  502  501  0.00000000000E+00  0.00000000000E+00  0.14141581480E+04  0.14141581480E+04  0.00000000000E+00 0.  1.
         21   -1    0    0  501  502 -0.00000000000E+00 -0.00000000000E+00 -0.10374542885E+03  0.10374542885E+03  0.00000000000E+00 0.  1.
         25    1    1    2    0    0 -0.22331663300E+03  0.99414516845E+02  0.28221986850E+03  0.39373419830E+03  0.12500000000E+03 0.  0.
         25    1    1    2    0    0  0.14228306285E+03  0.76406664349E+02  0.64971065315E+03  0.68105167289E+03  0.12500000000E+03 0.  0.
         25    1    1    2    0    0  0.81033570154E+02 -0.17582118119E+03  0.37848219755E+03  0.44311770570E+03  0.12500000000E+03 0.  0.
</event>
<event>
 5    0  0.5619558E-005  0.4515685E+03  0.7546771E-02  0.1027255E+00
         21   -1    0    0  502  501  0.00000000000E+00  0.00000000000E+00  0.85182277184E+02  0.85182277184E+02  0.00000000000E+00 0.  1.
         21   -1    0    0  501  502 -0.00000000000E+00 -0.00000000000E+00 -0.23938562419E+04  0.23938562419E+04  0.00000000000E+00 0. -1.
         25    1    1    2    0    0 -0.23054784262E+03 -0.16847003786E+03 -0.66157154737E+03  0.73132508072E+03  0.12500000000E+03 0.  0.
         25    1    1    2    0    0  0.25711017908E+03  0.28230572164E+03 -0.98361015620E+03  0.10625046372E+04  0.12500000000E+03 0.  0.
         25    1    1    2    0    0 -0.26562336460E+02 -0.11383568378E+03 -0.66349226111E+03  0.68520880115E+03  0.12500000000E+03 0.  0.
</event>
<event>
 5    0  0.5619558E-005  0.2583012E+03  0.7546771E-02  0.1108168E+00
         21   -1    0    0  502  501  0.00000000000E+00  0.00000000000E+00  0.18462014618E+03  0.18462014618E+03  0.00000000000E+00 0. -1.
         21   -1    0    0  501  502 -0.00000000000E+00 -0.00000000000E+00 -0.36138807562E+03  0.36138807562E+03  0.00000000000E+00 0. -1.
         25    1    1    2    0    0 -0.92820581594E+01 -0.92439029738E+02 -0.44547879574E+02  0.16198964287E+03  0.12500000000E+03 0.  0.
         25    1    1    2    0    0 -0.59070593545E+02  0.12245183733E+03  0.38667986780E+01  0.18472612057E+03  0.12500000000E+03 0.  0.
         25    1    1    2    0    0  0.68352651704E+02 -0.30012807593E+02 -0.13608684854E+03  0.19929245836E+03  0.12500000000E+03 0.  0.
</event>
<event>
 5    0  0.5619558E-005  0.4928114E+03  0.7546771E-02  0.1015672E+00
         21   -1    0    0  502  501  0.00000000000E+00  0.00000000000E+00  0.99326620169E+02  0.99326620169E+02  0.00000000000E+00 0. -1.
         21   -1    0    0  501  502 -0.00000000000E+00 -0.00000000000E+00 -0.24450958148E+04  0.24450958148E+04  0.00000000000E+00 0. -1.
         25    1    1    2    0    0 -0.21231586705E+03  0.30355388235E+02 -0.14262392857E+04  0.14476819323E+04  0.12500000000E+03 0.  0.
         25    1    1    2    0    0  0.22118686858E+03 -0.20768161280E+03 -0.31690424639E+03  0.45618919815E+03  0.12500000000E+03 0.  0.
         25    1    1    2    0    0 -0.88710015337E+01  0.17732622456E+03 -0.60262566249E+03  0.64055130449E+03  0.12500000000E+03 0.  0.
</event>
<event>
 5    0  0.5619558E-005  0.3589540E+03  0.7546771E-02  0.1058999E+00
         21   -1    0    0  502  501  0.00000000000E+00  0.00000000000E+00  0.16340416962E+04  0.16340416962E+04  0.00000000000E+00 0.  1.
         21   -1    0    0  501  502 -0.00000000000E+00 -0.00000000000E+00 -0.78852308872E+02  0.78852308872E+02  0.00000000000E+00 0.  1.
         25    1    1    2    0    0  0.12638659946E+03  0.16588312318E+03  0.95181251068E+03  0.98237611869E+03  0.12500000000E+03 0.  0.
         25    1    1    2    0    0 -0.52251040686E+02 -0.63246547512E+02  0.50613736964E+03  0.52775973129E+03  0.12500000000E+03 0.  0.
         25    1    1    2    0    0 -0.74135558774E+02 -0.10263657566E+03  0.97239507025E+02  0.20275815511E+03  0.12500000000E+03 0.  0.
</event>
<event>
 5    0  0.5619558E-005  0.2618313E+03  0.7546771E-02  0.1106048E+00
         21   -1    0    0  502  501  0.00000000000E+00  0.00000000000E+00  0.29265958061E+03  0.29265958061E+03  0.00000000000E+00 0. -1.
         21   -1    0    0  501  502 -0.00000000000E+00 -0.00000000000E+00 -0.23425040500E+03  0.23425040500E+03  0.00000000000E+00 0. -1.
         25    1    1    2    0    0  0.12778901765E+02 -0.19826510513E+02 -0.85838825931E+02  0.15345909842E+03  0.12500000000E+03 0.  0.
         25    1    1    2    0    0  0.68847454173E+02  0.91454253243E+02  0.29629397768E+02  0.17206613146E+03  0.12500000000E+03 0.  0.
         25    1    1    2    0    0 -0.81626355938E+02 -0.71627742730E+02  0.11461860377E+03  0.20138475573E+03  0.12500000000E+03 0.  0.
</event>
<event>
 5    0  0.5619558E-005  0.5595747E+03  0.7546771E-02  0.9993017E-01
         21   -1    0    0  502  501  0.00000000000E+00  0.00000000000E+00  0.48235686018E+03  0.48235686018E+03  0.00000000000E+00 0.  1.
         21   -1    0    0  501  502 -0.00000000000E+00 -0.00000000000E+00 -0.64915392656E+03  0.64915392656E+03  0.00000000000E+00 0.  1.
         25    1    1    2    0    0  0.81434917703E+02 -0.16066121220E+03  0.40560325848E+02  0.22296594125E+03  0.12500000000E+03 0.  0.
         25    1    1    2    0    0 -0.44710800955E+03  0.31270648785E+02 -0.18392922653E+03  0.50033827162E+03  0.12500000000E+03 0.  0.
         25    1    1    2    0    0  0.36567309184E+03  0.12939056341E+03 -0.23428165689E+02  0.40820657387E+03  0.12500000000E+03 0.  0.
</event>
<event>
 5    0  0.5619558E-005  0.4087157E+03  0.7546771E-02  0.1040803E+00
         21   -1    0    0  502  501  0.00000000000E+00  0.00000000000E+00  0.23504786794E+03  0.23504786794E+03  0.00000000000E+00 0. -1.
         21   -1    0    0  501  502 -0.00000000000E+00 -0.00000000000E+00 -0.71070002961E+03  0.71070002961E+03  0.00000000000E+00 0. -1.
         25    1    1    2    0    0  0.10385867293E+03  0.20131378396E+02  0.12288139399E+03  0.20473576465E+03  0.12500000000E+03 0.  0.
         25    1    1    2    0    0 -0.76844052540E+02 -0.16367989884E+03 -0.43988758217E+03  0.49175420958E+03  0.12500000000E+03 0.  0.
         25    1    1    2    0    0 -0.27014620386E+02  0.14354852044E+03 -0.15864597350E+03  0.24925792333E+03  0.12500000000E+03 0.  0.
</event>
<event>
 5    0  0.5619558E-005  0.3510839E+03  0.7546771E-02  0.1062171E+00
         21   -1    0    0  502  501  0.00000000000E+00  0.00000000000E+00  0.25380587961E+03  0.25380587961E+03  0.00000000000E+00 0. -1.
         21   -1    0    0  501  502 -0.00000000000E+00 -0.00000000000E+00 -0.48564633348E+03  0.48564633348E+03  0.00000000000E+00 0. -1.
         25    1    1    2    0    0 -0.42290616441E+02 -0.12851240046E+03  0.95493607421E+02  0.20748002884E+03  0.12500000000E+03 0.  0.
         25    1    1    2    0    0 -0.33860636822E+02  0.10224436062E+03 -0.34479559737E+03  0.38224266634E+03  0.12500000000E+03 0.  0.
         25    1    1    2    0    0  0.76151253264E+02  0.26268039834E+02  0.17461536088E+02  0.14972951791E+03  0.12500000000E+03 0.  0.
</event>
<event>
 5    0  0.5619558E-005  0.3233103E+03  0.7546771E-02  0.1074136E+00
         21   -1    0    0  502  501  0.00000000000E+00  0.00000000000E+00  0.74379891538E+03  0.74379891538E+03  0.00000000000E+00 0.  1.
         21   -1    0    0  501  502 -0.00000000000E+00 -0.00000000000E+00 -0.14053472230E+03  0.14053472230E+03  0.00000000000E+00 0.  1.
         25    1    1    2    0    0  0.36141011926E+02 -0.10146995559E+03  0.30222644681E+03  0.34433726168E+03  0.12500000000E+03 0.  0.
         25    1    1    2    0    0 -0.11711164169E+01 -0.33456872302E+02 -0.52733468378E+02  0.13973744131E+03  0.12500000000E+03 0.  0.
         25    1    1    2    0    0 -0.34969895509E+02  0.13492682789E+03  0.35377121465E+03  0.40025893468E+03  0.12500000000E+03 0.  0.
</event>
<event>
 5    0  0.5619558E-005  0.2787942E+03  0.7546771E-02  0.1096349E+00
         21   -1    0    0  502  501  0.00000000000E+00  0.00000000000E+00  0.74081961453E+03  0.74081961453E+03  0.00000000000E+00 0.  1.
         21   -1    0    0  501  502 -0.00000000000E+00 -0.00000000000E+00 -0.10491922374E+03  0.10491922374E+03  0.00000000000E+00 0.  1.
         25    1    1    2    0    0  0.82656715349E+02 -0.13152178050E+03  0.36381573306E+03  0.41486985786E+03  0.12500000000E+03 0.  0.
         25    1    1    2    0    0 -0.92242183848E+02  0.16257663253E+02  0.17605726661E+03  0.23535949783E+03  0.12500000000E+03 0.  0.
         25    1    1    2    0    0  0.95854684993E+01  0.11526411725E+03  0.96027391118E+02  0.19550948257E+03  0.12500000000E+03 0.  0.
</event>
<event>
 5    0  0.5619558E-005  0.2653638E+03  0.7546771E-02  0.1103963E+00
         21   -1    0    0  502  501  0.00000000000E+00  0.00000000000E+00  0.10219923685E+03  0.10219923685E+03  0.00000000000E+00 0. -1.
         21   -1    0    0  501  502 -0.00000000000E+00 -0.00000000000E+00 -0.68902609849E+03  0.68902609849E+03  0.00000000000E+00 0. -1.
         25    1    1    2    0    0  0.18994901672E+02  0.12794165598E+03 -0.26584433447E+03  0.32097988067E+03  0.12500000000E+03 0.  0.
         25    1    1    2    0    0  0.42047724786E+02 -0.45754300962E+02 -0.26451365647E+03  0.29908851812E+03  0.12500000000E+03 0.  0.
         25    1    1    2    0    0 -0.61042626458E+02 -0.82187355015E+02 -0.56468870705E+02  0.17115693655E+03  0.12500000000E+03 0.  0.
</event>
<event>
 5    0  0.5619558E-005  0.4015416E+03  0.7546771E-02  0.1043247E+00
         21   -1    0    0  502  501  0.00000000000E+00  0.00000000000E+00  0.41091180222E+03  0.41091180222E+03  0.00000000000E+00 0.  1.
         21   -1    0    0  501  502 -0.00000000000E+00 -0.00000000000E+00 -0.39238507128E+03  0.39238507128E+03  0.00000000000E+00 0.  1.
         25    1    1    2    0    0  0.12934570378E+03  0.12871362005E+03  0.85728636319E+02  0.23721700225E+03  0.12500000000E+03 0.  0.
         25    1    1    2    0    0 -0.22481929576E+03 -0.25358776565E+03 -0.46002249694E+02  0.36413140157E+03  0.12500000000E+03 0.  0.
         25    1    1    2    0    0  0.95473591978E+02  0.12487414560E+03 -0.21199655688E+02  0.20194846968E+03  0.12500000000E+03 0.  0.
</event>
<event>
 5    0  0.5619558E-005  0.4112070E+03  0.7546771E-02  0.1039967E+00
         21   -1    0    0  502  501  0.00000000000E+00  0.00000000000E+00  0.67896919041E+03  0.67896919041E+03  0.00000000000E+00 0. -1.
         21   -1    0    0  501  502 -0.00000000000E+00 -0.00000000000E+00 -0.24904100971E+03  0.24904100971E+03  0.00000000000E+00 0. -1.
         25    1    1    2    0    0 -0.28477068980E+03  0.47801073633E+02 -0.49852968896E+01  0.31468896008E+03  0.12500000000E+03 0.  0.
         25    1    1    2    0    0  0.24137549915E+03  0.28195140193E+02  0.22604639637E+03  0.35465345174E+03  0.12500000000E+03 0.  0.
         25    1    1    2    0    0  0.43395190648E+02 -0.75996213826E+02  0.20886708121E+03  0.25866778830E+03  0.12500000000E+03 0.  0.
</event>
<event>
 5    0  0.5619558E-005  0.2661519E+03  0.7546771E-02  0.1103502E+00
         21   -1    0    0  502  501  0.00000000000E+00  0.00000000000E+00  0.33887993541E+03  0.33887993541E+03  0.00000000000E+00 0.  1.
         21   -1    0    0  501  502 -0.00000000000E+00 -0.00000000000E+00 -0.20903230380E+03  0.20903230380E+03  0.00000000000E+00 0.  1.
         25    1    1    2    0    0 -0.14483475893E+03  0.41329739899E+02 -0.72462106039E+01  0.19586414262E+03  0.12500000000E+03 0.  0.
         25    1    1    2    0    0  0.25586081448E+02  0.29358436386E+02  0.22012464862E+02  0.13276337582E+03  0.12500000000E+03 0.  0.
         25    1    1    2    0    0  0.11924867748E+03 -0.70688176284E+02  0.11508137735E+03  0.21928472077E+03  0.12500000000E+03 0.  0.
</event>
<event>
 5    0  0.5619558E-005  0.5178987E+03  0.7546771E-02  0.1009210E+00
         21   -1    0    0  502  501  0.00000000000E+00  0.00000000000E+00  0.31473520398E+03  0.31473520398E+03  0.00000000000E+00 0.  1.
         21   -1    0    0  501  502 -0.00000000000E+00 -0.00000000000E+00 -0.85220561227E+03  0.85220561227E+03  0.00000000000E+00 0.  1.
         25    1    1    2    0    0  0.18893198940E+03 -0.13387281430E+03 -0.89511869765E+02  0.27794712061E+03  0.12500000000E+03 0.  0.
         25    1    1    2    0    0  0.16426560579E+03  0.15269453985E+03 -0.44509960163E+03  0.51384576199E+03  0.12500000000E+03 0.  0.
         25    1    1    2    0    0 -0.35319759519E+03 -0.18821725542E+02 -0.28589368977E+01  0.37514793365E+03  0.12500000000E+03 0.  0.
</event>
<event>
 5    0  0.5619558E-005  0.3402511E+03  0.7546771E-02  0.1066689E+00
         21   -1    0    0  502  501  0.00000000000E+00  0.00000000000E+00  0.19198912304E+03  0.19198912304E+03  0.00000000000E+00 0.  1.
         21   -1    0    0  501  502 -0.00000000000E+00 -0.00000000000E+00 -0.60300719173E+03  0.60300719173E+03  0.00000000000E+00 0.  1.
         25    1    1    2    0    0 -0.11551907485E+03  0.97424252252E+02  0.33651552510E+02  0.19898132718E+03  0.12500000000E+03 0.  0.
         25    1    1    2    0    0  0.18344269924E+02 -0.16952322912E+02 -0.38982085503E+03  0.41013313998E+03  0.12500000000E+03 0.  0.
         25    1    1    2    0    0  0.97174804922E+02 -0.80471929340E+02 -0.54848766165E+02  0.18588184762E+03  0.12500000000E+03 0.  0.
</event>
<event>
 5    0  0.5619558E-005  0.4436908E+03  0.7546771E-02  0.1029620E+00
         21   -1    0    0  502  501  0.00000000000E+00  0.00000000000E+00  0.73934852030E+03  0.73934852030E+03  0.00000000000E+00 0. -1.
         21   -1    0    0  501  502 -0.00000000000E+00 -0.00000000000E+00 -0.26626347053E+03  0.26626347053E+03  0.00000000000E+00 0. -1.
         25    1    1    2    0    0  0.13724815287E+03  0.14266879298E+03  0.33853596725E+03  0.41161030244E+03  0.12500000000E+03 0.  0.
         25    1    1    2    0    0  0.59305166227E+02  0.14639011258E+03  0.88192321245E+02  0.21988645554E+03  0.12500000000E+03 0.  0.
         25    1    1    2    0    0 -0.19655331910E+03 -0.28905890556E+03  0.46356761275E+02  0.37411523285E+03  0.12500000000E+03 0.  0.
</event>
<event>
 5    0  0.5619558E-005  0.2265082E+03  0.7546771E-02  0.1129122E+00
         21   -1    0    0  502  501  0.00000000000E+00  0.00000000000E+00  0.35680710370E+02  0.35680710370E+02  0.00000000000E+00 0. -1.
         21   -1    0    0  501  502 -0.00000000000E+00 -0.00000000000E+00 -0.14379184187E+04  0.14379184187E+04  0.00000000000E+00 0. -1.
         25    1    1    2    0    0  0.51974095070E+01 -0.21528176010E+02 -0.24551175129E+03  0.27639011461E+03  0.12500000000E+03 0.  0.
         25    1    1    2    0    0  0.10525426505E+02  0.32553231206E+02 -0.91753965489E+03  0.92664692076E+03  0.12500000000E+03 0.  0.
         25    1    1    2    0    0 -0.15722836012E+02 -0.11025055196E+02 -0.23918630216E+03  0.27056209371E+03  0.12500000000E+03 0.  0.
</event>
<event>
 5    0  0.5619558E-005  0.3720415E+03  0.7546771E-02  0.1053915E+00
         21   -1    0    0  502  501  0.00000000000E+00  0.00000000000E+00  0.56403244617E+02  0.56403244617E+02  0.00000000000E+00 0.  1.
         21   -1    0    0  501  502 -0.00000000000E+00 -0.00000000000E+00 -0.24540232516E+04  0.24540232516E+04  0.00000000000E+00 0.  1.
         25    1    1    2    0    0 -0.96461739478E+01  0.91071433834E+01 -0.81775431588E+03  0.82735911784E+03  0.12500000000E+03 0.  0.
         25    1    1    2    0    0  0.19325268775E+03 -0.11265344653E+03 -0.37930626655E+03  0.45775063537E+03  0.12500000000E+03 0.  0.
         25    1    1    2    0    0 -0.18360651381E+03  0.10354630315E+03 -0.12005594246E+04  0.12253167430E+04  0.12500000000E+03 0.  0.
</event>
<event>
 5    0  0.5619558E-005  0.4482567E+03  0.7546771E-02  0.1028243E+00
         21   -1    0    0  502  501  0.00000000000E+00  0.00000000000E+00  0.93187276245E+03  0.93187276245E+03  0.00000000000E+00 0. -1.
         21   -1    0    0  501  502 -0.00000000000E+00 -0.00000000000E+00 -0.21562391392E+03  0.21562391392E+03  0.00000000000E+00 0. -1.
         25    1    1    2    0    0  0.36679865013E+02  0.87868516558E+02  0.11088183478E+03  0.19231762785E+03  0.12500000000E+03 0.  0.
         25    1    1    2    0    0 -0.21204158265E+03 -0.63991264319E+01  0.67183061971E+03  0.71553054664E+03  0.12500000000E+03 0.  0.
         25    1    1    2    0    0  0.17536171764E+03 -0.81469390126E+02 -0.66463605957E+02  0.23964850189E+03  0.12500000000E+03 0.  0.
</event>
<event>
 5    0  0.5619558E-005  0.3337074E+03  0.7546771E-02  0.1069508E+00
         21   -1    0    0  502  501  0.00000000000E+00  0.00000000000E+00  0.22760875402E+03  0.22760875402E+03  0.00000000000E+00 0. -1.
         21   -1    0    0  501  502 -0.00000000000E+00 -0.00000000000E+00 -0.48926350157E+03  0.48926350157E+03  0.00000000000E+00 0. -1.
         25    1    1    2    0    0  0.90173765613E+01 -0.12477022347E+03 -0.82861162589E+01  0.17703836157E+03  0.12500000000E+03 0.  0.
         25    1    1    2    0    0 -0.18719583364E+03  0.71771761525E+01 -0.15606381229E+03  0.27399763776E+03  0.12500000000E+03 0.  0.
         25    1    1    2    0    0  0.17817845708E+03  0.11759304732E+03 -0.97304818998E+02  0.26583625627E+03  0.12500000000E+03 0.  0.
</event>
<event>
 5    0  0.5619558E-005  0.2768439E+03  0.7546771E-02  0.1097425E+00
         21   -1    0    0  502  501  0.00000000000E+00  0.00000000000E+00  0.72245823877E+03  0.72245823877E+03  0.00000000000E+00 0. -1.
         21   -1    0    0  501  502 -0.00000000000E+00 -0.00000000000E+00 -0.10608579587E+03  0.10608579587E+03  0.00000000000E+00 0. -1.
         25    1    1    2    0    0  0.46872446327E+02 -0.68546191285E+02  0.97746349751E+02  0.17909482252E+03  0.12500000000E+03 0.  0.
         25    1    1    2    0    0  0.99711690309E+02  0.15497287987E+02  0.11034153335E+03  0.19489187028E+03  0.12500000000E+03 0.  0.
         25    1    1    2    0    0 -0.14658413664E+03  0.53048903299E+02  0.40828455980E+03  0.45455734185E+03  0.12500000000E+03 0.  0.
</event>
<event>
 5    0  0.5619558E-005  0.3364934E+03  0.7546771E-02  0.1068299E+00
         21   -1    0    0  502  501  0.00000000000E+00  0.00000000000E+00  0.16530100861E+04  0.16530100861E+04  0.00000000000E+00 0. -1.
         21   -1    0    0  501  502 -0.00000000000E+00 -0.00000000000E+00 -0.68497938502E+02  0.68497938502E+02  0.00000000000E+00 0. -1.
         25    1    1    2    0    0  0.20374333737E+03 -0.11225459851E+03  0.48976133191E+03  0.55642034887E+03  0.12500000000E+03 0.  0.
         25    1    1    2    0    0 -0.19641614016E+03  0.12687000849E+03  0.62949160103E+03  0.68305195625E+03  0.12500000000E+03 0.  0.
         25    1    1    2    0    0 -0.73271972147E+01 -0.14615409976E+02  0.46525921467E+03  0.48203571949E+03  0.12500000000E+03 0.  0.
</event>
<event>
 5    0  0.5619558E-005  0.4124663E+03  0.7546771E-02  0.1039547E+00
         21   -1    0    0  502  501  0.00000000000E+00  0.00000000000E+00  0.21206740964E+03  0.21206740964E+03  0.00000000000E+00 0.  1.
         21   -1    0    0  501  502 -0.00000000000E+00 -0.00000000000E+00 -0.80223773117E+03  0.80223773117E+03  0.00000000000E+00 0.  1.
         25    1    1    2    0    0 -0.31017406204E+03  0.62792564227E+02 -0.38325825814E+03  0.51250633881E+03  0.12500000000E+03 0.  0.
         25    1    1    2    0    0  0.77582044285E+02 -0.11382476173E+03 -0.10897558790E+03  0.21558230154E+03  0.12500000000E+03 0.  0.
         25    1    1    2    0    0  0.23259201776E+03  0.51032197506E+02 -0.97936475497E+02  0.28621650047E+03  0.12500000000E+03 0.  0.
</event>
<event>
 5    0  0.5619558E-005  0.3185290E+03  0.7546771E-02  0.1076328E+00
         21   -1    0    0  502  501  0.00000000000E+00  0.00000000000E+00  0.20198267044E+03  0.20198267044E+03  0.00000000000E+00 0. -1.
         21   -1    0    0  501  502 -0.00000000000E+00 -0.00000000000E+00 -0.50232399139E+03  0.50232399139E+03  0.00000000000E+00 0. -1.
         25    1    1    2    0    0  0.67398662883E+02 -0.43570021213E+02 -0.39156920633E+03  0.41879872236E+03  0.12500000000E+03 0.  0.
         25    1    1    2    0    0 -0.14372442915E+02  0.21596941544E+02  0.15805896470E+02  0.12863833551E+03  0.12500000000E+03 0.  0.
         25    1    1    2    0    0 -0.53026219968E+02  0.21973079669E+02  0.75421988915E+02  0.15686960396E+03  0.12500000000E+03 0.  0.
</event>
<event>
 5    0  0.5619558E-005  0.3004184E+03  0.7546771E-02  0.1085032E+00
         21   -1    0    0  502  501  0.00000000000E+00  0.00000000000E+00  0.27818398706E+03  0.27818398706E+03  0.00000000000E+00 0. -1.
         21   -1    0    0  501  502 -0.00000000000E+00 -0.00000000000E+00 -0.32442986443E+03  0.32442986443E+03  0.00000000000E+00 0. -1.
         25    1    1    2    0    0 -0.86405377093E+02  0.12962774383E+03 -0.70513762457E+02  0.21181697727E+03  0.12500000000E+03 0.  0.
         25    1    1    2    0    0  0.10116771166E+03  0.52015608105E+02  0.78222056068E+01  0.16919431512E+03  0.12500000000E+03 0.  0.
         25    1    1    2    0    0 -0.14762334565E+02 -0.18164335194E+03  0.16445679484E+02  0.22160255910E+03  0.12500000000E+03 0.  0.
</event>
<event>
 5    0  0.5619558E-005  0.3682847E+03  0.7546771E-02  0.1055351E+00
         21   -1    0    0  502  501  0.00000000000E+00  0.00000000000E+00  0.33383939215E+03  0.33383939215E+03  0.00000000000E+00 0.  1.
         21   -1    0    0  501  502 -0.00000000000E+00 -0.00000000000E+00 -0.40628398906E+03  0.40628398906E+03  0.00000000000E+00 0.  1.
         25    1    1    2    0    0 -0.91821035919E+02 -0.16974017145E+03  0.59608178811E+01  0.23000730378E+03  0.12500000000E+03 0.  0.
         25    1    1    2    0    0  0.16368492287E+03  0.26133767881E+03 -0.62491672190E+02  0.33855626627E+03  0.12500000000E+03 0.  0.
         25    1    1    2    0    0 -0.71863886950E+02 -0.91597507356E+02 -0.15913742596E+02  0.17155981116E+03  0.12500000000E+03 0.  0.
</event>
<event>
 5    0  0.5619558E-005  0.2481039E+03  0.7546771E-02  0.1114509E+00
         21   -1    0    0  502  501  0.00000000000E+00  0.00000000000E+00  0.10236631726E+03  0.10236631726E+03  0.00000000000E+00 0. -1.
         21   -1    0    0  501  502 -0.00000000000E+00 -0.00000000000E+00 -0.60132620881E+03  0.60132620881E+03  0.00000000000E+00 0.  1.
         25    1    1    2    0    0 -0.26566009713E+02  0.27517987742E+02 -0.89900402864E+02  0.15865079564E+03  0.12500000000E+03 0.  0.
         25    1    1    2    0    0  0.74781285398E+02 -0.11712295158E+03 -0.14876536196E+03  0.23888524306E+03  0.12500000000E+03 0.  0.
         25    1    1    2    0    0 -0.48215275685E+02  0.89604963841E+02 -0.26029412673E+03  0.30615648738E+03  0.12500000000E+03 0.  0.
</event>
<event>
 5    0  0.5619558E-005  0.2893970E+03  0.7546771E-02  0.1090664E+00
         21   -1    0    0  502  501  0.00000000000E+00  0.00000000000E+00  0.24122666097E+03  0.24122666097E+03  0.00000000000E+00 0. -1.
         21   -1    0    0  501  502 -0.00000000000E+00 -0.00000000000E+00 -0.34718654051E+03  0.34718654051E+03  0.00000000000E+00 0. -1.
         25    1    1    2    0    0  0.88393857144E+02 -0.12093148165E+03 -0.73096914322E+02  0.20834120120E+03  0.12500000000E+03 0.  0.
         25    1    1    2    0    0 -0.39784762386E+02  0.18018281805E+03  0.21010544490E+02  0.22386406191E+03  0.12500000000E+03 0.  0.
         25    1    1    2    0    0 -0.48609094758E+02 -0.59251336392E+02 -0.53873509716E+02  0.15620793836E+03  0.12500000000E+03 0.  0.
</event>
<event>
 5    0  0.5619558E-005  0.2803138E+03  0.7546771E-02  0.1095518E+00
         21   -1    0    0  502  501  0.00000000000E+00  0.00000000000E+00  0.50163244528E+02  0.50163244528E+02  0.00000000000E+00 0. -1.
         21   -1    0    0  501  502 -0.00000000000E+00 -0.00000000000E+00 -0.15664025031E+04  0.15664025031E+04  0.00000000000E+00 0.  1.
         25    1    1    2    0    0  0.61707195166E+02  0.13296461627E+03 -0.53296641168E+03  0.56671471050E+03  0.12500000000E+03 0.  0.
         25    1    1    2    0    0 -0.96632595374E+02  0.12564582195E+02 -0.29995145846E+03  0.33925153596E+03  0.12500000000E+03 0.  0.
         25    1    1    2    0    0  0.34925400208E+02 -0.14552919847E+03 -0.68332138844E+03  0.71059950118E+03  0.12500000000E+03 0.  0.
</event>
<event>
 5    0  0.5619558E-005  0.2436230E+03  0.7546771E-02  0.1117403E+00
         21   -1    0    0  502  501  0.00000000000E+00  0.00000000000E+00  0.22791661790E+03  0.22791661790E+03  0.00000000000E+00 0. -1.
         21   -1    0    0  501  502 -0.00000000000E+00 -0.00000000000E+00 -0.26041173179E+03  0.26041173179E+03  0.00000000000E+00 0. -1.
         25    1    1    2    0    0 -0.96282974485E+01 -0.21463249179E+02 -0.90274150487E+02  0.15597370747E+03  0.12500000000E+03 0.  0.
         25    1    1    2    0    0 -0.98596932158E+02  0.20482573057E+02  0.43992122576E+02  0.16643676781E+03  0.12500000000E+03 0.  0.
         25    1    1    2    0    0  0.10822522961E+03  0.98067612244E+00  0.13786914024E+02  0.16591787441E+03  0.12500000000E+03 0.  0.
</event>
<event>
 5    0  0.5619558E-005  0.3197449E+03  0.7546771E-02  0.1075767E+00
         21   -1    0    0  502  501  0.00000000000E+00  0.00000000000E+00  0.20273364177E+04  0.20273364177E+04  0.00000000000E+00 0. -1.
         21   -1    0    0  501  502 -0.00000000000E+00 -0.00000000000E+00 -0.50429118652E+02  0.50429118652E+02  0.00000000000E+00 0. -1.
         25    1    1    2    0    0  0.15074856395E+03  0.97579600899E+02  0.50661097078E+03  0.55183927348E+03  0.12500000000E+03 0.  0.
         25    1    1    2    0    0 -0.15914706942E+02  0.74869080472E+02  0.39064554413E+03  0.41723805945E+03  0.12500000000E+03 0.  0.
         25    1    1    2    0    0 -0.13483385701E+03 -0.17244868137E+03  0.10796507841E+04  0.11086882034E+04  0.12500000000E+03 0.  0.
</event>
<event>
 5    0  0.5619558E-005  0.2963317E+03  0.7546771E-02  0.1087089E+00
         21   -1    0    0  502  501  0.00000000000E+00  0.00000000000E+00  0.47606437297E+03  0.47606437297E+03  0.00000000000E+00 0. -1.
         21   -1    0    0  501  502 -0.00000000000E+00 -0.00000000000E+00 -0.18445503884E+03  0.18445503884E+03  0.00000000000E+00 0. -1.
         25    1    1    2    0    0 -0.54021024657E+02 -0.96519126655E+02  0.12341569367E+03  0.20758286625E+03  0.12500000000E+03 0.  0.
         25    1    1    2    0    0 -0.68184248374E+02 -0.76416824908E+02  0.12910180097E+02  0.16211198477E+03  0.12500000000E+03 0.  0.
         25    1    1    2    0    0  0.12220527303E+03  0.17293595156E+03  0.15528346035E+03  0.29082456079E+03  0.12500000000E+03 0.  0.
</event>
<event>
 5    0  0.5619558E-005  0.3342768E+03  0.7546771E-02  0.1069260E+00
         21   -1    0    0  502  501  0.00000000000E+00  0.00000000000E+00  0.18735344864E+03  0.18735344864E+03  0.00000000000E+00 0. -1.
         21   -1    0    0  501  502 -0.00000000000E+00 -0.00000000000E+00 -0.59641802105E+03  0.59641802105E+03  0.00000000000E+00 0. -1.
         25    1    1    2    0    0  0.21585052206E+03 -0.14753314089E+03 -0.98937177413E+02  0.30622057509E+03  0.12500000000E+03 0.  0.
         25    1    1    2    0    0 -0.11569063431E+03  0.70272026830E+02 -0.13955733241E+03  0.23113573858E+03  0.12500000000E+03 0.  0.
         25    1    1    2    0    0 -0.10015988776E+03  0.77261114062E+02 -0.17057006259E+03  0.24641515601E+03  0.12500000000E+03 0.  0.
</event>
<event>
 5    0  0.5619558E-005  0.2638513E+03  0.7546771E-02  0.1104851E+00
         21   -1    0    0  502  501  0.00000000000E+00  0.00000000000E+00  0.15470084033E+03  0.15470084033E+03  0.00000000000E+00 0. -1.
         21   -1    0    0  501  502 -0.00000000000E+00 -0.00000000000E+00 -0.45001384651E+03  0.45001384651E+03  0.00000000000E+00 0. -1.
         25    1    1    2    0    0  0.11154390688E+03  0.22378569121E+01 -0.18735596637E+03  0.25134500054E+03  0.12500000000E+03 0.  0.
         25    1    1    2    0    0 -0.11155829103E+02  0.49431371692E+02  0.26969713162E+02  0.13755100312E+03  0.12500000000E+03 0.  0.
         25    1    1    2    0    0 -0.10038807777E+03 -0.51669228604E+02 -0.13492675298E+03  0.21581868319E+03  0.12500000000E+03 0.  0.
</event>
<event>
 5    0  0.6075293E-005  0.6763346E+03  0.7546771E-02  0.9758581E-01
         21   -1    0    0  502  501  0.00000000000E+00  0.00000000000E+00  0.10482522963E+04  0.10482522963E+04  0.00000000000E+00 0. -1.
         21   -1    0    0  501  502 -0.00000000000E+00 -0.00000000000E+00 -0.43637256171E+03  0.43637256171E+03  0.00000000000E+00 0.  1.
         25    1    1    2    0    0  0.27903724805E+03 -0.10801841857E+03  0.39458288348E+03  0.51073517256E+03  0.12500000000E+03 0.  0.
         25    1    1    2    0    0 -0.52032339546E+03 -0.14232424636E+03  0.24045310360E+03  0.60368478696E+03  0.12500000000E+03 0.  0.
         25    1    1    2    0    0  0.24128614742E+03  0.25034266493E+03 -0.23156252532E+02  0.37020489847E+03  0.12500000000E+03 0.  0.
</event>
<event>
 5    0  0.5619558E-005  0.3144561E+03  0.7546771E-02  0.1078229E+00
         21   -1    0    0  502  501  0.00000000000E+00  0.00000000000E+00  0.41561144083E+03  0.41561144083E+03  0.00000000000E+00 0. -1.
         21   -1    0    0  501  502 -0.00000000000E+00 -0.00000000000E+00 -0.23792090390E+03  0.23792090390E+03  0.00000000000E+00 0. -1.
         25    1    1    2    0    0 -0.50764863583E+02  0.58658423630E+01  0.31278896400E+02  0.13861763539E+03  0.12500000000E+03 0.  0.
         25    1    1    2    0    0 -0.17058613780E+03  0.43194315221E+02  0.13738119802E+03  0.25585928329E+03  0.12500000000E+03 0.  0.
         25    1    1    2    0    0  0.22135100138E+03 -0.49060157585E+02  0.90304425102E+01  0.25905542605E+03  0.12500000000E+03 0.  0.
</event>
<event>
 5    0  0.5619558E-005  0.2941283E+03  0.7546771E-02  0.1088213E+00
         21   -1    0    0  502  501  0.00000000000E+00  0.00000000000E+00  0.99792334489E+02  0.99792334489E+02  0.00000000000E+00 0.  1.
         21   -1    0    0  501  502 -0.00000000000E+00 -0.00000000000E+00 -0.86691472481E+03  0.86691472481E+03  0.00000000000E+00 0.  1.
         25    1    1    2    0    0  0.19686509609E+02 -0.17021789824E+02 -0.43669029992E+03  0.45497331574E+03  0.12500000000E+03 0.  0.
         25    1    1    2    0    0  0.13485323245E+03 -0.58863011942E+01 -0.11138357076E+03  0.21506125332E+03  0.12500000000E+03 0.  0.
         25    1    1    2    0    0 -0.15453974206E+03  0.22908091018E+02 -0.21904851965E+03  0.29667249025E+03  0.12500000000E+03 0.  0.
</event>
<event>
 5    0  0.5619558E-005  0.3441976E+03  0.7546771E-02  0.1065022E+00
         21   -1    0    0  502  501  0.00000000000E+00  0.00000000000E+00  0.10772668737E+04  0.10772668737E+04  0.00000000000E+00 0. -1.
         21   -1    0    0  501  502 -0.00000000000E+00 -0.00000000000E+00 -0.10997461347E+03  0.10997461347E+03  0.00000000000E+00 0. -1.
         25    1    1    2    0    0  0.14599681526E+03  0.11355682025E+02  0.38600395115E+03  0.43135608479E+03  0.12500000000E+03 0.  0.
         25    1    1    2    0    0  0.71992214136E+02 -0.62314399178E+02  0.48230354940E+02  0.16436888507E+03  0.12500000000E+03 0.  0.
         25    1    1    2    0    0 -0.21798902939E+03  0.50958717153E+02  0.53305795413E+03  0.59151651731E+03  0.12500000000E+03 0.  0.
</event>
<event>
 5    0  0.5619558E-005  0.2510797E+03  0.7546771E-02  0.1112624E+00
         21   -1    0    0  502  501  0.00000000000E+00  0.00000000000E+00  0.33090532816E+03  0.33090532816E+03  0.00000000000E+00 0.  1.
         21   -1    0    0  501  502 -0.00000000000E+00 -0.00000000000E+00 -0.19051070186E+03  0.19051070186E+03  0.00000000000E+00 0.  1.
         25    1    1    2    0    0 -0.32069656572E+02  0.57794971159E+02 -0.78128107912E+01  0.14161483530E+03  0.12500000000E+03 0.  0.
         25    1    1    2    0    0  0.45098758159E+02  0.83661714732E+02  0.93806735123E+02  0.18291496400E+03  0.12500000000E+03 0.  0.
         25    1    1    2    0    0 -0.13029101587E+02 -0.14145668589E+03  0.54400701968E+02  0.19688623072E+03  0.12500000000E+03 0.  0.
</event>
<event>
 5    0  0.5619558E-005  0.3739703E+03  0.7546771E-02  0.1053185E+00
         21   -1    0    0  502  501  0.00000000000E+00  0.00000000000E+00  0.10045960619E+04  0.10045960619E+04  0.00000000000E+00 0. -1.
         21   -1    0    0  501  502 -0.00000000000E+00 -0.00000000000E+00 -0.13921396756E+03  0.13921396756E+03  0.00000000000E+00 0. -1.
         25    1    1    2    0    0 -0.24475052709E+02  0.19174690212E+03  0.60356467082E+03  0.64597307571E+03  0.12500000000E+03 0.  0.
         25    1    1    2    0    0  0.14643972162E+03 -0.84580878428E+02  0.18138989189E+03  0.27771533977E+03  0.12500000000E+03 0.  0.
         25    1    1    2    0    0 -0.12196466891E+03 -0.10716602369E+03  0.80427531634E+02  0.22012161398E+03  0.12500000000E+03 0.  0.
</event>
<event>
 5    0  0.5619558E-005  0.2447822E+03  0.7546771E-02  0.1116647E+00
         21   -1    0    0  502  501  0.00000000000E+00  0.00000000000E+00  0.22426276619E+03  0.22426276619E+03  0.00000000000E+00 0. -1.
         21   -1    0    0  501  502 -0.00000000000E+00 -0.00000000000E+00 -0.26717909341E+03  0.26717909341E+03  0.00000000000E+00 0. -1.
         25    1    1    2    0    0  0.69083757673E+02  0.94039678039E+02  0.42675698743E+02  0.17624483505E+03  0.12500000000E+03 0.  0.
         25    1    1    2    0    0  0.15317940352E+02 -0.64646089210E+00 -0.37130409810E+02  0.13129632341E+03  0.12500000000E+03 0.  0.
         25    1    1    2    0    0 -0.84401698025E+02 -0.93393217146E+02 -0.48461616148E+02  0.18390070114E+03  0.12500000000E+03 0.  0.
</event>
<event>
 5    0  0.5619558E-005  0.2360897E+03  0.7546771E-02  0.1122425E+00
         21   -1    0    0  502  501  0.00000000000E+00  0.00000000000E+00  0.28393147873E+03  0.28393147873E+03  0.00000000000E+00 0.  1.
         21   -1    0    0  501  502 -0.00000000000E+00 -0.00000000000E+00 -0.19630923024E+03  0.19630923024E+03  0.00000000000E+00 0.  1.
         25    1    1    2    0    0 -0.49690386919E+02 -0.44838572799E+02  0.89809441438E+02  0.16784030486E+03  0.12500000000E+03 0.  0.
         25    1    1    2    0    0 -0.19116321258E+02  0.10381382796E+02 -0.76206988900E+02  0.14800578369E+03  0.12500000000E+03 0.  0.
         25    1    1    2    0    0  0.68806708176E+02  0.34457190003E+02  0.74019795948E+02  0.16439462043E+03  0.12500000000E+03 0.  0.
</event>
<event>
 5    0  0.5619558E-005  0.5053195E+03  0.7546771E-02  0.1012400E+00
         21   -1    0    0  502  501  0.00000000000E+00  0.00000000000E+00  0.10566557032E+04  0.10566557032E+04  0.00000000000E+00 0. -1.
         21   -1    0    0  501  502 -0.00000000000E+00 -0.00000000000E+00 -0.24165660092E+03  0.24165660092E+03  0.00000000000E+00 0. -1.
         25    1    1    2    0    0 -0.23057888702E+03 -0.23401708891E+03  0.79409677788E+03  0.86841540387E+03  0.12500000000E+03 0.  0.
         25    1    1    2    0    0  0.16614887920E+03  0.96666627643E+02 -0.16154239801E+02  0.22986049339E+03  0.12500000000E+03 0.  0.
         25    1    1    2    0    0  0.64430007819E+02  0.13735046127E+03  0.37056564206E+02  0.20003640686E+03  0.12500000000E+03 0.  0.
</event>
<event>
 5    0  0.5619558E-005  0.2548330E+03  0.7546771E-02  0.1110288E+00
         21   -1    0    0  502  501  0.00000000000E+00  0.00000000000E+00  0.17689865242E+03  0.17689865242E+03  0.00000000000E+00 0. -1.
         21   -1    0    0  501  502 -0.00000000000E+00 -0.00000000000E+00 -0.36710217378E+03  0.36710217378E+03  0.00000000000E+00 0. -1.
         25    1    1    2    0    0 -0.74882716917E+02  0.12780653193E+03 -0.59172562245E+02  0.20265320875E+03  0.12500000000E+03 0.  0.
         25    1    1    2    0    0  0.29950080213E+02 -0.26195982766E+02 -0.11300140584E+03  0.17314027417E+03  0.12500000000E+03 0.  0.
         25    1    1    2    0    0  0.44932636705E+02 -0.10161054916E+03 -0.18029553268E+02  0.16820734328E+03  0.12500000000E+03 0.  0.
</event>
<event>
 5    0  0.5619558E-005  0.2930808E+03  0.7546771E-02  0.1088752E+00
         21   -1    0    0  502  501  0.00000000000E+00  0.00000000000E+00  0.91475883663E+03  0.91475883663E+03  0.00000000000E+00 0.  1.
         21   -1    0    0  501  502 -0.00000000000E+00 -0.00000000000E+00 -0.93900558014E+02  0.93900558014E+02  0.00000000000E+00 0.  1.
         25    1    1    2    0    0  0.26322624592E+02  0.55231601580E+02  0.22509747436E+03  0.26464558062E+03  0.12500000000E+03 0.  0.
         25    1    1    2    0    0  0.88420668315E+02 -0.17503637242E+03  0.37197680867E+03  0.43868860533E+03  0.12500000000E+03 0.  0.
         25    1    1    2    0    0 -0.11474329291E+03  0.11980477084E+03  0.22378399558E+03  0.30532520869E+03  0.12500000000E+03 0.  0.
</event>
<event>
 5    0  0.5619558E-005  0.2294461E+03  0.7546771E-02  0.1127030E+00
         21   -1    0    0  502  501  0.00000000000E+00  0.00000000000E+00  0.91643967001E+03  0.91643967001E+03  0.00000000000E+00 0. -1.
         21   -1    0    0  501  502 -0.00000000000E+00 -0.00000000000E+00 -0.57445688916E+02  0.57445688916E+02  0.00000000000E+00 0. -1.
         25    1    1    2    0    0 -0.21549555421E+02  0.17934910169E+02  0.23765154922E+03  0.26998019036E+03  0.12500000000E+03 0.  0.
         25    1    1    2    0    0  0.40603501839E+02  0.94248421501E+02  0.30722808234E+03  0.34719663577E+03  0.12500000000E+03 0.  0.
         25    1    1    2    0    0 -0.19053946418E+02 -0.11218333167E+03  0.31411434954E+03  0.35670853279E+03  0.12500000000E+03 0.  0.
</event>
<event>
 5    0  0.5619558E-005  0.2297193E+03  0.7546771E-02  0.1126838E+00
         21   -1    0    0  502  501  0.00000000000E+00  0.00000000000E+00  0.17419669595E+03  0.17419669595E+03  0.00000000000E+00 0. -1.
         21   -1    0    0  501  502 -0.00000000000E+00 -0.00000000000E+00 -0.30293884009E+03  0.30293884009E+03  0.00000000000E+00 0. -1.
         25    1    1    2    0    0  0.27574746480E+02  0.32037845147E+02 -0.67373569698E+02  0.14815865840E+03  0.12500000000E+03 0.  0.
         25    1    1    2    0    0 -0.52795294554E+02 -0.97162119444E+02  0.13429729834E+02  0.16743111487E+03  0.12500000000E+03 0.  0.
         25    1    1    2    0    0  0.25220548073E+02  0.65124274297E+02 -0.74798304281E+02  0.16154576278E+03  0.12500000000E+03 0.  0.
</event>
<event>
 5    0  0.5619558E-005  0.3088373E+03  0.7546771E-02  0.1080905E+00
         21   -1    0    0  502  501  0.00000000000E+00  0.00000000000E+00  0.11963954048E+03  0.11963954048E+03  0.00000000000E+00 0.  1.
         21   -1    0    0  501  502 -0.00000000000E+00 -0.00000000000E+00 -0.79723211704E+03  0.79723211704E+03  0.00000000000E+00 0.  1.
         25    1    1    2    0    0 -0.56486737560E+02 -0.13971187431E+02 -0.90901143956E+02  0.16514830781E+03  0.12500000000E+03 0.  0.
         25    1    1    2    0    0  0.64750406857E+02  0.18620278748E+03 -0.42291985246E+03  0.48306344807E+03  0.12500000000E+03 0.  0.
         25    1    1    2    0    0 -0.82636692968E+01 -0.17223160005E+03 -0.16377158014E+03  0.26865990164E+03  0.12500000000E+03 0.  0.
</event>
<event>
 5    0  0.5619558E-005  0.3132052E+03  0.7546771E-02  0.1078820E+00
         21   -1    0    0  502  501  0.00000000000E+00  0.00000000000E+00  0.74774394371E+03  0.74774394371E+03  0.00000000000E+00 0.  1.
         21   -1    0    0  501  502 -0.00000000000E+00 -0.00000000000E+00 -0.13119133273E+03  0.13119133273E+03  0.00000000000E+00 0.  1.
         25    1    1    2    0    0  0.75709685854E+02 -0.10712591014E+03  0.82334045691E+02  0.19902716457E+03  0.12500000000E+03 0.  0.
         25    1    1    2    0    0 -0.17891038827E+03 -0.43438135767E+01  0.22561963708E+03  0.31393791804E+03  0.12500000000E+03 0.  0.
         25    1    1    2    0    0  0.10320070241E+03  0.11146972372E+03  0.30859892821E+03  0.36597019384E+03  0.12500000000E+03 0.  0.
</event>
<event>
 5    0  0.5619558E-005  0.4216315E+03  0.7546771E-02  0.1036537E+00
         21   -1    0    0  502  501  0.00000000000E+00  0.00000000000E+00  0.30894382494E+03  0.30894382494E+03  0.00000000000E+00 0. -1.
         21   -1    0    0  501  502 -0.00000000000E+00 -0.00000000000E+00 -0.57542215147E+03  0.57542215147E+03  0.00000000000E+00 0. -1.
         25    1    1    2    0    0 -0.28105890783E+03  0.40674106872E+02 -0.27747690833E+03  0.41625344119E+03  0.12500000000E+03 0.  0.
         25    1    1    2    0    0 -0.16895952276E+02  0.13980996172E+02 -0.46969168284E+02  0.13532200200E+03  0.12500000000E+03 0.  0.
         25    1    1    2    0    0  0.29795486011E+03 -0.54655103044E+02  0.57967750089E+02  0.33279053322E+03  0.12500000000E+03 0.  0.
</event>
<event>
 5    0  0.5619558E-005  0.3327133E+03  0.7546771E-02  0.1069943E+00
         21   -1    0    0  502  501  0.00000000000E+00  0.00000000000E+00  0.70889716272E+03  0.70889716272E+03  0.00000000000E+00 0. -1.
         21   -1    0    0  501  502 -0.00000000000E+00 -0.00000000000E+00 -0.15615545142E+03  0.15615545142E+03  0.00000000000E+00 0. -1.
         25    1    1    2    0    0 -0.17227906957E+03 -0.10177026182E+03  0.30006088506E+03  0.38170512014E+03  0.12500000000E+03 0.  0.
         25    1    1    2    0    0  0.17006381544E+03  0.12331027645E+03  0.25924695816E+03  0.35631602675E+03  0.12500000000E+03 0.  0.
         25    1    1    2    0    0  0.22152541253E+01 -0.21540014637E+02 -0.65661319208E+01  0.12703146724E+03  0.12500000000E+03 0.  0.
</event>
<event>
 5    0  0.5619558E-005  0.3155325E+03  0.7546771E-02  0.1077724E+00
         21   -1    0    0  502  501  0.00000000000E+00  0.00000000000E+00  0.18079957539E+04  0.18079957539E+04  0.00000000000E+00 0. -1.
         21   -1    0    0  501  502 -0.00000000000E+00 -0.00000000000E+00 -0.55066929579E+02  0.55066929579E+02  0.00000000000E+00 0. -1.
         25    1    1    2    0    0  0.35941471960E+02  0.94829716307E+02  0.10421879728E+04  0.10545450370E+04  0.12500000000E+03 0.  0.
         25    1    1    2    0    0  0.10206200691E+03 -0.11481503464E+03  0.35608238283E+03  0.40745405728E+03  0.12500000000E+03 0.  0.
         25    1    1    2    0    0 -0.13800347887E+03  0.19985318328E+02  0.35465846868E+03  0.40106358914E+03  0.12500000000E+03 0.  0.
</event>
<event>
 5    0  0.5619558E-005  0.4529083E+03  0.7546771E-02  0.1026858E+00
         21   -1    0    0  502  501  0.00000000000E+00  0.00000000000E+00  0.13743684370E+03  0.13743684370E+03  0.00000000000E+00 0. -1.
         21   -1    0    0  501  502 -0.00000000000E+00 -0.00000000000E+00 -0.14925104894E+04  0.14925104894E+04  0.00000000000E+00 0. -1.
         25    1    1    2    0    0  0.13592896482E+03 -0.18751195213E+03 -0.93951638037E+03  0.97568101583E+03  0.12500000000E+03 0.  0.
         25    1    1    2    0    0  0.91141911798E+02  0.13049583845E+02 -0.26571985544E+03  0.30774856832E+03  0.12500000000E+03 0.  0.
         25    1    1    2    0    0 -0.22707087662E+03  0.17446236828E+03 -0.14983740992E+03  0.34651774899E+03  0.12500000000E+03 0.  0.
</event>
<event>
 5    0  0.5619558E-005  0.2192947E+03  0.7546771E-02  0.1134410E+00
         21   -1    0    0  502  501  0.00000000000E+00  0.00000000000E+00  0.69597227980E+02  0.69597227980E+02  0.00000000000E+00 0.  1.
         21   -1    0    0  501  502 -0.00000000000E+00 -0.00000000000E+00 -0.69097827920E+03  0.69097827920E+03  0.00000000000E+00 0.  1.
         25    1    1    2    0    0 -0.55055981000E+02  0.50872893009E+02 -0.12361548071E+03  0.19111514686E+03  0.12500000000E+03 0.  0.
         25    1    1    2    0    0 -0.11183342942E+02 -0.46185565704E+02 -0.26987546929E+03  0.30119087397E+03  0.12500000000E+03 0.  0.
         25    1    1    2    0    0  0.66239323942E+02 -0.46873273051E+01 -0.22789010121E+03  0.26826948635E+03  0.12500000000E+03 0.  0.
</event>
<event>
 5    0  0.5619558E-005  0.3643196E+03  0.7546771E-02  0.1056886E+00
         21   -1    0    0  502  501  0.00000000000E+00  0.00000000000E+00  0.28295310997E+04  0.28295310997E+04  0.00000000000E+00 0.  1.
         21   -1    0    0  501  502 -0.00000000000E+00 -0.00000000000E+00 -0.46908402104E+02  0.46908402104E+02  0.00000000000E+00 0.  1.
         25    1    1    2    0    0  0.57806166807E+00 -0.11423356587E+02  0.20048241942E+04  0.20087498294E+04  0.12500000000E+03 0.  0.
         25    1    1    2    0    0  0.28095204697E+02 -0.20980479855E+02  0.69719450024E+02  0.14736119833E+03  0.12500000000E+03 0.  0.
         25    1    1    2    0    0 -0.28673266365E+02  0.32403836442E+02  0.70807905332E+03  0.72032847408E+03  0.12500000000E+03 0.  0.
</event>
<event>
 5    0  0.5619558E-005  0.4069898E+03  0.7546771E-02  0.1041386E+00
         21   -1    0    0  502  501  0.00000000000E+00  0.00000000000E+00  0.11040540781E+04  0.11040540781E+04  0.00000000000E+00 0.  1.
         21   -1    0    0  501  502 -0.00000000000E+00 -0.00000000000E+00 -0.15002954650E+03  0.15002954650E+03  0.00000000000E+00 0.  1.
         25    1    1    2    0    0 -0.93554563878E+02 -0.80241744839E+02  0.73161190877E+02  0.19018084522E+03  0.12500000000E+03 0.  0.
         25    1    1    2    0    0 -0.11482880319E+03  0.89594020820E+02  0.50217801808E+02  0.19839246515E+03  0.12500000000E+03 0.  0.
         25    1    1    2    0    0  0.20838336707E+03 -0.93522759807E+01  0.83064553892E+03  0.86551031424E+03  0.12500000000E+03 0.  0.
</event>
<event>
 5    0  0.5619558E-005  0.3348047E+03  0.7546771E-02  0.1069030E+00
         21   -1    0    0  502  501  0.00000000000E+00  0.00000000000E+00  0.15986813683E+03  0.15986813683E+03  0.00000000000E+00 0. -1.
         21   -1    0    0  501  502 -0.00000000000E+00 -0.00000000000E+00 -0.70116656117E+03  0.70116656117E+03  0.00000000000E+00 0. -1.
         25    1    1    2    0    0  0.42718559404E+02 -0.21424696510E+01 -0.22796742314E+03  0.26348360766E+03  0.12500000000E+03 0.  0.
         25    1    1    2    0    0 -0.22547144572E+02 -0.21466207764E+03 -0.10236555433E+03  0.26961433200E+03  0.12500000000E+03 0.  0.
         25    1    1    2    0    0 -0.20171414832E+02  0.21680454729E+03 -0.21096544687E+03  0.32793675835E+03  0.12500000000E+03 0.  0.
</event>
<event>
 5    0  0.6047442E-005  0.3175767E+03  0.7546771E-02  0.1076770E+00
         21   -1    0    0  502  501  0.00000000000E+00  0.00000000000E+00  0.17986353252E+03  0.17986353252E+03  0.00000000000E+00 0.  1.
         21   -1    0    0  501  502 -0.00000000000E+00 -0.00000000000E+00 -0.56073051908E+03  0.56073051908E+03  0.00000000000E+00 0.  1.
         25    1    1    2    0    0  0.97534495237E+02 -0.62569376852E+02 -0.46432783651E+02  0.17666043156E+03  0.12500000000E+03 0.  0.
         25    1    1    2    0    0  0.91003105788E+02  0.82435745202E+02 -0.20408148502E+02  0.17640495989E+03  0.12500000000E+03 0.  0.
         25    1    1    2    0    0 -0.18853760102E+03 -0.19866368350E+02 -0.31402605441E+03  0.38752866015E+03  0.12500000000E+03 0.  0.
</event>
<event>
 5    0  0.5619558E-005  0.2999011E+03  0.7546771E-02  0.1085290E+00
         21   -1    0    0  502  501  0.00000000000E+00  0.00000000000E+00  0.51931597399E+03  0.51931597399E+03  0.00000000000E+00 0. -1.
         21   -1    0    0  501  502 -0.00000000000E+00 -0.00000000000E+00 -0.17319067076E+03  0.17319067076E+03  0.00000000000E+00 0. -1.
         25    1    1    2    0    0 -0.18866926470E+03  0.29757636862E+02  0.11235592084E+03  0.25442181774E+03  0.12500000000E+03 0.  0.
         25    1    1    2    0    0  0.16047569325E+03  0.23585448770E+02  0.21685001844E+03  0.29825769397E+03  0.12500000000E+03 0.  0.
         25    1    1    2    0    0  0.28193571452E+02 -0.53343085632E+02  0.16919363946E+02  0.13982713303E+03  0.12500000000E+03 0.  0.
</event>
<event>
 5    0  0.5619558E-005  0.4447528E+03  0.7546771E-02  0.1029298E+00
         21   -1    0    0  502  501  0.00000000000E+00  0.00000000000E+00  0.32960886930E+03  0.32960886930E+03  0.00000000000E+00 0.  1.
         21   -1    0    0  501  502 -0.00000000000E+00 -0.00000000000E+00 -0.60012055336E+03  0.60012055336E+03  0.00000000000E+00 0.  1.
         25    1    1    2    0    0  0.24318286570E+03  0.95783547203E+00 -0.44589311556E+03  0.52305305096E+03  0.12500000000E+03 0.  0.
         25    1    1    2    0    0 -0.10577962694E+03 -0.40023615396E+02  0.39222446154E+02  0.17307402909E+03  0.12500000000E+03 0.  0.
         25    1    1    2    0    0 -0.13740323876E+03  0.39065779924E+02  0.13615898534E+03  0.23360234261E+03  0.12500000000E+03 0.  0.
</event>
<event>
 5    0  0.5619558E-005  0.4730737E+03  0.7546771E-02  0.1021056E+00
         21   -1    0    0  502  501  0.00000000000E+00  0.00000000000E+00  0.29795607726E+03  0.29795607726E+03  0.00000000000E+00 0.  1.
         21   -1    0    0  501  502 -0.00000000000E+00 -0.00000000000E+00 -0.75111317883E+03  0.75111317883E+03  0.00000000000E+00 0.  1.
         25    1    1    2    0    0  0.16436694930E+03  0.12358717540E+03  0.90631428399E+02  0.25715625553E+03  0.12500000000E+03 0.  0.
         25    1    1    2    0    0 -0.65757912479E+02  0.16880808269E+03 -0.11284808080E+03  0.24734583315E+03  0.12500000000E+03 0.  0.
         25    1    1    2    0    0 -0.98609036821E+02 -0.29239525809E+03 -0.43094044917E+03  0.54456716742E+03  0.12500000000E+03 0.  0.
</event>
<event>
 5    0  0.5619558E-005  0.2222284E+03  0.7546771E-02  0.1132233E+00
         21   -1    0    0  502  501  0.00000000000E+00  0.00000000000E+00  0.60170045003E+03  0.60170045003E+03  0.00000000000E+00 0.  1.
         21   -1    0    0  501  502 -0.00000000000E+00 -0.00000000000E+00 -0.82076464599E+02  0.82076464599E+02  0.00000000000E+00 0.  1.
         25    1    1    2    0    0  0.42851626617E+02 -0.12444724300E+02  0.92892234058E+02  0.16200339569E+03  0.12500000000E+03 0.  0.
         25    1    1    2    0    0  0.22528324715E+02  0.73014534693E+02  0.21840448195E+03  0.26299080864E+03  0.12500000000E+03 0.  0.
         25    1    1    2    0    0 -0.65379951331E+02 -0.60569810392E+02  0.20832726942E+03  0.25878271030E+03  0.12500000000E+03 0.  0.
</event>
<event>
 5    0  0.5619558E-005  0.3096980E+03  0.7546771E-02  0.1080491E+00
         21   -1    0    0  502  501  0.00000000000E+00  0.00000000000E+00  0.40552595693E+03  0.40552595693E+03  0.00000000000E+00 0. -1.
         21   -1    0    0  501  502 -0.00000000000E+00 -0.00000000000E+00 -0.23651470501E+03  0.23651470501E+03  0.00000000000E+00 0. -1.
         25    1    1    2    0    0  0.13366313700E+03 -0.11932311484E+03  0.14155627510E+03  0.26032099213E+03  0.12500000000E+03 0.  0.
         25    1    1    2    0    0 -0.80537682868E+01  0.80683862811E+01  0.99767691969E+02  0.16033887364E+03  0.12500000000E+03 0.  0.
         25    1    1    2    0    0 -0.12560936871E+03  0.11125472855E+03 -0.72312715148E+02  0.22138079615E+03  0.12500000000E+03 0.  0.
</event>
<event>
 5    0  0.5619558E-005  0.2826712E+03  0.7546771E-02  0.1094239E+00
         21   -1    0    0  502  501  0.00000000000E+00  0.00000000000E+00  0.15459021216E+03  0.15459021216E+03  0.00000000000E+00 0. -1.
         21   -1    0    0  501  502 -0.00000000000E+00 -0.00000000000E+00 -0.51686993515E+03  0.51686993515E+03  0.00000000000E+00 0. -1.
         25    1    1    2    0    0 -0.62410058936E+02 -0.44731075844E+02  0.50432140506E+02  0.15512667533E+03  0.12500000000E+03 0.  0.
         25    1    1    2    0    0 -0.12969459967E+02  0.47898272976E+02 -0.30971971751E+03  0.33765922890E+03  0.12500000000E+03 0.  0.
         25    1    1    2    0    0  0.75379518903E+02 -0.31671971324E+01 -0.10299214598E+03  0.17867424308E+03  0.12500000000E+03 0.  0.
</event>
<event>
 5    0  0.5619558E-005  0.3437527E+03  0.7546771E-02  0.1065209E+00
         21   -1    0    0  502  501  0.00000000000E+00  0.00000000000E+00  0.20188596713E+03  0.20188596713E+03  0.00000000000E+00 0. -1.
         21   -1    0    0  501  502 -0.00000000000E+00 -0.00000000000E+00 -0.58531032291E+03  0.58531032291E+03  0.00000000000E+00 0. -1.
         25    1    1    2    0    0 -0.50088161005E+01  0.22721759184E+02 -0.26868699253E+03  0.29725252990E+03  0.12500000000E+03 0.  0.
         25    1    1    2    0    0 -0.10840241880E+03 -0.17170637016E+03 -0.11518214404E+03  0.26481330832E+03  0.12500000000E+03 0.  0.
         25    1    1    2    0    0  0.11341123490E+03  0.14898461098E+03  0.44478078173E+00  0.22513045183E+03  0.12500000000E+03 0.  0.
</event>
<event>
 5    0  0.5619558E-005  0.2493450E+03  0.7546771E-02  0.1113719E+00
         21   -1    0    0  502  501  0.00000000000E+00  0.00000000000E+00  0.13918428395E+03  0.13918428395E+03  0.00000000000E+00 0. -1.
         21   -1    0    0  501  502 -0.00000000000E+00 -0.00000000000E+00 -0.44669500891E+03  0.44669500891E+03  0.00000000000E+00 0. -1.
         25    1    1    2    0    0  0.16737246808E+02  0.35912583914E+02 -0.11879872706E+02  0.13166617063E+03  0.12500000000E+03 0.  0.
         25    1    1    2    0    0  0.63770687045E+01  0.12036265652E+02  0.33782539354E+01  0.12578533816E+03  0.12500000000E+03 0.  0.
         25    1    1    2    0    0 -0.23114315512E+02 -0.47948849566E+02 -0.29900910619E+03  0.32842778406E+03  0.12500000000E+03 0.  0.
</event>
<event>
 5    0  0.5619558E-005  0.2260917E+03  0.7546771E-02  0.1129421E+00
         21   -1    0    0  502  501  0.00000000000E+00  0.00000000000E+00  0.44524868278E+03  0.44524868278E+03  0.00000000000E+00 0.  1.
         21   -1    0    0  501  502 -0.00000000000E+00 -0.00000000000E+00 -0.11480649501E+03  0.11480649501E+03  0.00000000000E+00 0.  1.
         25    1    1    2    0    0  0.37366473644E+02  0.25418424531E+02  0.20249172172E+03  0.24221941917E+03  0.12500000000E+03 0.  0.
         25    1    1    2    0    0  0.45404648029E+02 -0.22170398478E+02  0.93208953671E+02  0.16390856499E+03  0.12500000000E+03 0.  0.
         25    1    1    2    0    0 -0.82771121673E+02 -0.32480260525E+01  0.34741512383E+02  0.15392719363E+03  0.12500000000E+03 0.  0.
</event>
<event>
 5    0  0.5619558E-005  0.2912748E+03  0.7546771E-02  0.1089685E+00
         21   -1    0    0  502  501  0.00000000000E+00  0.00000000000E+00  0.15371374729E+04  0.15371374729E+04  0.00000000000E+00 0. -1.
         21   -1    0    0  501  502 -0.00000000000E+00 -0.00000000000E+00 -0.55194159000E+02  0.55194159000E+02  0.00000000000E+00 0. -1.
         25    1    1    2    0    0  0.37575331675E+02 -0.22392315370E+02  0.16599918558E+03  0.21235359887E+03  0.12500000000E+03 0.  0.
         25    1    1    2    0    0 -0.15730305238E+03 -0.64523897494E+02  0.84070429192E+03  0.86678503107E+03  0.12500000000E+03 0.  0.
         25    1    1    2    0    0  0.11972772070E+03  0.86916212864E+02  0.47523983639E+03  0.51319300195E+03  0.12500000000E+03 0.  0.
</event>
<event>
 5    0  0.5619558E-005  0.4987098E+03  0.7546771E-02  0.1014116E+00
         21   -1    0    0  502  501  0.00000000000E+00  0.00000000000E+00  0.13910517279E+03  0.13910517279E+03  0.00000000000E+00 0. -1.
         21   -1    0    0  501  502 -0.00000000000E+00 -0.00000000000E+00 -0.17879379371E+04  0.17879379371E+04  0.00000000000E+00 0. -1.
         25    1    1    2    0    0  0.21991952503E+03 -0.88712772792E+02 -0.25295932197E+03  0.36857559892E+03  0.12500000000E+03 0.  0.
         25    1    1    2    0    0 -0.41813753650E+03  0.10427022226E+03 -0.78791233543E+03  0.90672053413E+03  0.12500000000E+03 0.  0.
         25    1    1    2    0    0  0.19821801146E+03 -0.15557449466E+02 -0.60796110692E+03  0.65174697685E+03  0.12500000000E+03 0.  0.
</event>
<event>
 5    0  0.5619558E-005  0.2425847E+03  0.7546771E-02  0.1118083E+00
         21   -1    0    0  502  501  0.00000000000E+00  0.00000000000E+00  0.70582098243E+02  0.70582098243E+02  0.00000000000E+00 0. -1.
         21   -1    0    0  501  502 -0.00000000000E+00 -0.00000000000E+00 -0.83374323765E+03  0.83374323765E+03  0.00000000000E+00 0. -1.
         25    1    1    2    0    0  0.18598235292E+02 -0.13633074025E+02 -0.51334075891E+03  0.52884354002E+03  0.12500000000E+03 0.  0.
         25    1    1    2    0    0  0.40235766736E+02  0.22572395337E+02 -0.76445516691E+02  0.15361427986E+03  0.12500000000E+03 0.  0.
         25    1    1    2    0    0 -0.58834002027E+02 -0.89393213122E+01 -0.17337486381E+03  0.22186751601E+03  0.12500000000E+03 0.  0.
</event>
<event>
 5    0  0.5619558E-005  0.4794820E+03  0.7546771E-02  0.1019278E+00
         21   -1    0    0  502  501  0.00000000000E+00  0.00000000000E+00  0.11553850502E+03  0.11553850502E+03  0.00000000000E+00 0. -1.
         21   -1    0    0  501  502 -0.00000000000E+00 -0.00000000000E+00 -0.19898387593E+04  0.19898387593E+04  0.00000000000E+00 0. -1.
         25    1    1    2    0    0 -0.87834798078E+02 -0.19456455401E+03 -0.11332554084E+04  0.11599410063E+04  0.12500000000E+03 0.  0.
         25    1    1    2    0    0 -0.26777994422E+02  0.31560673692E+03 -0.61200679472E+03  0.70035847261E+03  0.12500000000E+03 0.  0.
         25    1    1    2    0    0  0.11461279250E+03 -0.12104218291E+03 -0.12903805115E+03  0.24507778539E+03  0.12500000000E+03 0.  0.
</event>
<event>
 5    0  0.5619558E-005  0.2677844E+03  0.7546771E-02  0.1102554E+00
         21   -1    0    0  502  501  0.00000000000E+00  0.00000000000E+00  0.79627146444E+03  0.79627146444E+03  0.00000000000E+00 0.  1.
         21   -1    0    0  501  502 -0.00000000000E+00 -0.00000000000E+00 -0.90055329793E+02  0.90055329793E+02  0.00000000000E+00 0.  1.
         25    1    1    2    0    0 -0.78516469346E+02 -0.25862980365E+02  0.19629800882E+03  0.24696485171E+03  0.12500000000E+03 0.  0.
         25    1    1    2    0    0 -0.94202912381E+02  0.68879012551E+01  0.30575322454E+03  0.34355736959E+03  0.12500000000E+03 0.  0.
         25    1    1    2    0    0  0.17271938173E+03  0.18975079110E+02  0.20416490128E+03  0.29580457293E+03  0.12500000000E+03 0.  0.
</event>
<event>
 5    0  0.5619558E-005  0.2590753E+03  0.7546771E-02  0.1107700E+00
         21   -1    0    0  502  501  0.00000000000E+00  0.00000000000E+00  0.24253183685E+02  0.24253183685E+02  0.00000000000E+00 0.  1.
         21   -1    0    0  501  502 -0.00000000000E+00 -0.00000000000E+00 -0.27674712200E+04  0.27674712200E+04  0.00000000000E+00 0.  1.
         25    1    1    2    0    0  0.93525719819E+02 -0.58618581120E+02 -0.70730464004E+03  0.72669667134E+03  0.12500000000E+03 0.  0.
         25    1    1    2    0    0  0.29042563218E+02  0.29233986875E+02 -0.43976284809E+03  0.45903644630E+03  0.12500000000E+03 0.  0.
         25    1    1    2    0    0 -0.12256828304E+03  0.29384594245E+02 -0.15961505482E+04  0.16059912860E+04  0.12500000000E+03 0.  0.
</event>
<event>
 5    0  0.5619558E-005  0.2471819E+03  0.7546771E-02  0.1115099E+00
         21   -1    0    0  502  501  0.00000000000E+00  0.00000000000E+00  0.49860695266E+02  0.49860695266E+02  0.00000000000E+00 0.  1.
         21   -1    0    0  501  502 -0.00000000000E+00 -0.00000000000E+00 -0.12253916339E+04  0.12253916339E+04  0.00000000000E+00 0.  1.
         25    1    1    2    0    0  0.45819431446E+02  0.83301352505E+02 -0.40699447411E+03  0.43624309459E+03  0.12500000000E+03 0.  0.
         25    1    1    2    0    0 -0.16027551288E+02 -0.14082711131E+03 -0.35507119708E+03  0.40223091959E+03  0.12500000000E+03 0.  0.
         25    1    1    2    0    0 -0.29791880158E+02  0.57525758807E+02 -0.41346526740E+03  0.43677831494E+03  0.12500000000E+03 0.  0.
</event>
<event>
 5    0  0.5619558E-005  0.2792798E+03  0.7546771E-02  0.1096083E+00
         21   -1    0    0  502  501  0.00000000000E+00  0.00000000000E+00  0.15844612198E+04  0.15844612198E+04  0.00000000000E+00 0. -1.
         21   -1    0    0  501  502 -0.00000000000E+00 -0.00000000000E+00 -0.49226334624E+02  0.49226334624E+02  0.00000000000E+00 0. -1.
         25    1    1    2    0    0 -0.11216056408E+02  0.15956683992E+03  0.41707372921E+03  0.46385652083E+03  0.12500000000E+03 0.  0.
         25    1    1    2    0    0  0.87910351477E+02 -0.55428626143E+02  0.47827291301E+03  0.50514408025E+03  0.12500000000E+03 0.  0.
         25    1    1    2    0    0 -0.76694295070E+02 -0.10413821377E+03  0.63988824292E+03  0.66468695330E+03  0.12500000000E+03 0.  0.
</event>
<event>
 5    0  0.5907639E-005  0.4910229E+03  0.7546771E-02  0.1016149E+00
         21   -1    0    0  502  501  0.00000000000E+00  0.00000000000E+00  0.30071271581E+03  0.30071271581E+03  0.00000000000E+00 0. -1.
         21   -1    0    0  501  502 -0.00000000000E+00 -0.00000000000E+00 -0.80177341781E+03  0.80177341781E+03  0.00000000000E+00 0. -1.
         25    1    1    2    0    0  0.17864981141E+01 -0.16342355205E+03  0.91997733789E+02  0.22538640590E+03  0.12500000000E+03 0.  0.
         25    1    1    2    0    0  0.37274011789E+02 -0.16537243740E+03 -0.44717425690E+03  0.49429466014E+03  0.12500000000E+03 0.  0.
         25    1    1    2    0    0 -0.39060509904E+02  0.32879598945E+03 -0.14588417889E+03  0.38280506758E+03  0.12500000000E+03 0.  0.
</event>
<event>
 5    0  0.5619558E-005  0.2456557E+03  0.7546771E-02  0.1116082E+00
         21   -1    0    0  502  501  0.00000000000E+00  0.00000000000E+00  0.23532302035E+03  0.23532302035E+03  0.00000000000E+00 0.  1.
         21   -1    0    0  501  502 -0.00000000000E+00 -0.00000000000E+00 -0.25644204330E+03  0.25644204330E+03  0.00000000000E+00 0.  1.
         25    1    1    2    0    0 -0.97316819891E+02  0.48708421281E+02  0.65718801632E+01  0.16586519631E+03  0.12500000000E+03 0.  0.
         25    1    1    2    0    0  0.87931993711E+02  0.47456463064E+02 -0.46867765257E+02  0.16675052871E+03  0.12500000000E+03 0.  0.
         25    1    1    2    0    0  0.93848261803E+01 -0.96164884345E+02  0.19176862146E+02  0.15914933863E+03  0.12500000000E+03 0.  0.
</event>
<event>
 5    0  0.5619558E-005  0.3429357E+03  0.7546771E-02  0.1065552E+00
         21   -1    0    0  502  501  0.00000000000E+00  0.00000000000E+00  0.10843256107E+04  0.10843256107E+04  0.00000000000E+00 0.  1.
         21   -1    0    0  501  502 -0.00000000000E+00 -0.00000000000E+00 -0.10845903666E+03  0.10845903666E+03  0.00000000000E+00 0.  1.
         25    1    1    2    0    0 -0.50374924578E+02 -0.10150929954E+03  0.32945810586E+03  0.37014782781E+03  0.12500000000E+03 0.  0.
         25    1    1    2    0    0 -0.11630591847E+03 -0.10586975626E+03  0.35974675811E+03  0.41204150510E+03  0.12500000000E+03 0.  0.
         25    1    1    2    0    0  0.16668084305E+03  0.20737905580E+03  0.28666171011E+03  0.41059531447E+03  0.12500000000E+03 0.  0.
</event>
<event>
 5    0  0.5619558E-005  0.3261986E+03  0.7546771E-02  0.1072831E+00
         21   -1    0    0  502  501  0.00000000000E+00  0.00000000000E+00  0.12232491248E+03  0.12232491248E+03  0.00000000000E+00 0.  1.
         21   -1    0    0  501  502 -0.00000000000E+00 -0.00000000000E+00 -0.86985999675E+03  0.86985999675E+03  0.00000000000E+00 0.  1.
         25    1    1    2    0    0 -0.46490579663E+02 -0.14351478507E+03 -0.89693497681E+02  0.21547109100E+03  0.12500000000E+03 0.  0.
         25    1    1    2    0    0 -0.77652393349E+02 -0.45852470501E+02 -0.25660936456E+03  0.29934212738E+03  0.12500000000E+03 0.  0.
         25    1    1    2    0    0  0.12414297301E+03  0.18936725557E+03 -0.40123222203E+03  0.47737169085E+03  0.12500000000E+03 0.  0.
</event>
<event>
 5    0  0.5619558E-005  0.2659943E+03  0.7546771E-02  0.1103594E+00
         21   -1    0    0  502  501  0.00000000000E+00  0.00000000000E+00  0.14060319165E+04  0.14060319165E+04  0.00000000000E+00 0. -1.
         21   -1    0    0  501  502 -0.00000000000E+00 -0.00000000000E+00 -0.50321023491E+02  0.50321023491E+02  0.00000000000E+00 0. -1.
         25    1    1    2    0    0 -0.27903095541E+02  0.22742246357E+02  0.66456812211E+03  0.67717913541E+03  0.12500000000E+03 0.  0.
         25    1    1    2    0    0  0.39966174649E+02 -0.11025005846E+03  0.19336086990E+03  0.25839078256E+03  0.12500000000E+03 0.  0.
         25    1    1    2    0    0 -0.12063079108E+02  0.87507812105E+02  0.49778190104E+03  0.52078302206E+03  0.12500000000E+03 0.  0.
</event>
<event>
 5    0  0.5619558E-005  0.3825122E+03  0.7546771E-02  0.1050009E+00
         21   -1    0    0  502  501  0.00000000000E+00  0.00000000000E+00  0.33131196294E+03  0.33131196294E+03  0.00000000000E+00 0. -1.
         21   -1    0    0  501  502 -0.00000000000E+00 -0.00000000000E+00 -0.44162488473E+03  0.44162488473E+03  0.00000000000E+00 0. -1.
         25    1    1    2    0    0 -0.10401132996E+03 -0.17902581676E+03  0.14865452094E+03  0.28388689019E+03  0.12500000000E+03 0.  0.
         25    1    1    2    0    0 -0.54834458887E+02  0.46946281828E+02 -0.13897907441E+02  0.14501352727E+03  0.12500000000E+03 0.  0.
         25    1    1    2    0    0  0.15884578885E+03  0.13207953493E+03 -0.24506953530E+03  0.34403643021E+03  0.12500000000E+03 0.  0.
</event>
<event>
 5    0  0.5619558E-005  0.4477869E+03  0.7546771E-02  0.1028384E+00
         21   -1    0    0  502  501  0.00000000000E+00  0.00000000000E+00  0.49749287420E+03  0.49749287420E+03  0.00000000000E+00 0.  1.
         21   -1    0    0  501  502 -0.00000000000E+00 -0.00000000000E+00 -0.40304728411E+03  0.40304728411E+03  0.00000000000E+00 0.  1.
         25    1    1    2    0    0 -0.17657682451E+03  0.12203905528E+03 -0.23833916919E+03  0.34424332316E+03  0.12500000000E+03 0.  0.
         25    1    1    2    0    0  0.43014615283E+02 -0.10427950157E+01 -0.27003774411E+02  0.13492793774E+03  0.12500000000E+03 0.  0.
         25    1    1    2    0    0  0.13356220922E+03 -0.12099626027E+03  0.35978853369E+03  0.42136889742E+03  0.12500000000E+03 0.  0.
</event>
<event>
 5    0  0.5619558E-005  0.3699855E+03  0.7546771E-02  0.1054699E+00
         21   -1    0    0  502  501  0.00000000000E+00  0.00000000000E+00  0.45412736601E+03  0.45412736601E+03  0.00000000000E+00 0. -1.
         21   -1    0    0  501  502 -0.00000000000E+00 -0.00000000000E+00 -0.30143368455E+03  0.30143368455E+03  0.00000000000E+00 0. -1.
         25    1    1    2    0    0  0.24582744771E+03 -0.42141331863E+02  0.55333570053E+02  0.28441840636E+03  0.12500000000E+03 0.  0.
         25    1    1    2    0    0 -0.25627076270E+03 -0.56378302380E+02  0.11085266289E+03  0.31107319020E+03  0.12500000000E+03 0.  0.
         25    1    1    2    0    0  0.10443314983E+02  0.98519634243E+02 -0.13492551477E+02  0.16006945400E+03  0.12500000000E+03 0.  0.
</event>
<event>
 5    0  0.5619558E-005  0.3975782E+03  0.7546771E-02  0.1044621E+00
         21   -1    0    0  502  501  0.00000000000E+00  0.00000000000E+00  0.16703589614E+03  0.16703589614E+03  0.00000000000E+00 0. -1.
         21   -1    0    0  501  502 -0.00000000000E+00 -0.00000000000E+00 -0.94631415969E+03  0.94631415969E+03  0.00000000000E+00 0. -1.
         25    1    1    2    0    0 -0.96059118379E+02  0.36765253494E+02  0.40377092940E+02  0.16683629018E+03  0.12500000000E+03 0.  0.
         25    1    1    2    0    0 -0.95630599631E+02  0.11189229872E+03 -0.42368833079E+03  0.46561990910E+03  0.12500000000E+03 0.  0.
         25    1    1    2    0    0  0.19168971801E+03 -0.14865755222E+03 -0.39596702570E+03  0.48089385655E+03  0.12500000000E+03 0.  0.
</event>
<event>
 5    0  0.5619558E-005  0.3605110E+03  0.7546771E-02  0.1058382E+00
         21   -1    0    0  502  501  0.00000000000E+00  0.00000000000E+00  0.52906843169E+03  0.52906843169E+03  0.00000000000E+00 0. -1.
         21   -1    0    0  501  502 -0.00000000000E+00 -0.00000000000E+00 -0.24565472419E+03  0.24565472419E+03  0.00000000000E+00 0. -1.
         25    1    1    2    0    0 -0.20751275899E+01  0.26061365443E+02  0.24571910671E+03  0.27692305849E+03  0.12500000000E+03 0.  0.
         25    1    1    2    0    0  0.12694825717E+03  0.11183837824E+03 -0.10191729502E+03  0.23374305951E+03  0.12500000000E+03 0.  0.
         25    1    1    2    0    0 -0.12487312958E+03 -0.13789974368E+03  0.13961189581E+03  0.26405703787E+03  0.12500000000E+03 0.  0.
</event>
<event>
 5    0  0.5619558E-005  0.2301133E+03  0.7546771E-02  0.1126560E+00
         21   -1    0    0  502  501  0.00000000000E+00  0.00000000000E+00  0.10774652876E+04  0.10774652876E+04  0.00000000000E+00 0.  1.
         21   -1    0    0  501  502 -0.00000000000E+00 -0.00000000000E+00 -0.49145103228E+02  0.49145103228E+02  0.00000000000E+00 0.  1.
         25    1    1    2    0    0  0.39195855376E+02  0.29207905485E+02  0.34352699104E+03  0.36881595735E+03  0.12500000000E+03 0.  0.
         25    1    1    2    0    0 -0.99117063218E+02 -0.29699271538E+02  0.50707953923E+03  0.53241046013E+03  0.12500000000E+03 0.  0.
         25    1    1    2    0    0  0.59921207841E+02  0.49136605303E+00  0.17771365412E+03  0.22538397336E+03  0.12500000000E+03 0.  0.
</event>
<event>
 5    0  0.5619558E-005  0.3322231E+03  0.7546771E-02  0.1070157E+00
         21   -1    0    0  502  501  0.00000000000E+00  0.00000000000E+00  0.53416019671E+02  0.53416019671E+02  0.00000000000E+00 0.  1.
         21   -1    0    0  501  502 -0.00000000000E+00 -0.00000000000E+00 -0.20662752221E+04  0.20662752221E+04  0.00000000000E+00 0.  1.
         25    1    1    2    0    0  0.22757436373E+03  0.43191653192E+02 -0.75003073680E+03  0.79487528334E+03  0.12500000000E+03 0.  0.
         25    1    1    2    0    0 -0.15905456595E+03  0.72045972278E+02 -0.75372448339E+03  0.78371842771E+03  0.12500000000E+03 0.  0.
         25    1    1    2    0    0 -0.68519797780E+02 -0.11523762547E+03 -0.50910398224E+03  0.54109753072E+03  0.12500000000E+03 0.  0.
</event>
<event>
 5    0  0.5619558E-005  0.2567921E+03  0.7546771E-02  0.1109086E+00
         21   -1    0    0  502  501  0.00000000000E+00  0.00000000000E+00  0.39783441107E+03  0.39783441107E+03  0.00000000000E+00 0.  1.
         21   -1    0    0  501  502 -0.00000000000E+00 -0.00000000000E+00 -0.16575283774E+03  0.16575283774E+03  0.00000000000E+00 0.  1.
         25    1    1    2    0    0  0.11811941416E+03  0.49388504742E+02  0.13440966453E+03  0.22379092546E+03  0.12500000000E+03 0.  0.
         25    1    1    2    0    0 -0.46164116109E+02 -0.85835277010E+02  0.10618962503E+03  0.19078798930E+03  0.12500000000E+03 0.  0.
         25    1    1    2    0    0 -0.71955298049E+02  0.36446772268E+02 -0.85177162367E+01  0.14900833405E+03  0.12500000000E+03 0.  0.
</event>
<event>
 5    0  0.5619558E-005  0.3859104E+03  0.7546771E-02  0.1048771E+00
         21   -1    0    0  502  501  0.00000000000E+00  0.00000000000E+00  0.17494703822E+03  0.17494703822E+03  0.00000000000E+00 0.  1.
         21   -1    0    0  501  502 -0.00000000000E+00 -0.00000000000E+00 -0.85126794756E+03  0.85126794756E+03  0.00000000000E+00 0.  1.
         25    1    1    2    0    0 -0.27245661325E+02  0.24044079311E+02 -0.35910883093E+01  0.13022419025E+03  0.12500000000E+03 0.  0.
         25    1    1    2    0    0 -0.12637445493E+03  0.21652374078E+03 -0.32498674583E+03  0.42906225439E+03  0.12500000000E+03 0.  0.
         25    1    1    2    0    0  0.15362011625E+03 -0.24056782010E+03 -0.34774307520E+03  0.46692854114E+03  0.12500000000E+03 0.  0.
</event>
<event>
 5    0  0.5619558E-005  0.3794573E+03  0.7546771E-02  0.1051135E+00
         21   -1    0    0  502  501  0.00000000000E+00  0.00000000000E+00  0.42016418824E+03  0.42016418824E+03  0.00000000000E+00 0. -1.
         21   -1    0    0  501  502 -0.00000000000E+00 -0.00000000000E+00 -0.34269423557E+03  0.34269423557E+03  0.00000000000E+00 0. -1.
         25    1    1    2    0    0  0.24115600494E+03 -0.19660338957E+03  0.12952811876E+02  0.33556204619E+03  0.12500000000E+03 0.  0.
         25    1    1    2    0    0 -0.18226577526E+03  0.16961326591E+03  0.18620894470E+02  0.27921534793E+03  0.12500000000E+03 0.  0.
         25    1    1    2    0    0 -0.58890229678E+02  0.26990123653E+02  0.45896246326E+02  0.14808102969E+03  0.12500000000E+03 0.  0.
</event>
<event>
 5    0  0.5619558E-005  0.3079673E+03  0.7546771E-02  0.1081324E+00
         21   -1    0    0  502  501  0.00000000000E+00  0.00000000000E+00  0.80325082969E+03  0.80325082969E+03  0.00000000000E+00 0.  1.
         21   -1    0    0  501  502 -0.00000000000E+00 -0.00000000000E+00 -0.11807503371E+03  0.11807503371E+03  0.00000000000E+00 0.  1.
         25    1    1    2    0    0 -0.14391500295E+03  0.18041680537E+02  0.20411721712E+02  0.19255822157E+03  0.12500000000E+03 0.  0.
         25    1    1    2    0    0  0.46025699724E+02 -0.32039544888E+02  0.26303140964E+03  0.29657279027E+03  0.12500000000E+03 0.  0.
         25    1    1    2    0    0  0.97889303224E+02  0.13997864351E+02  0.40173266463E+03  0.43219485157E+03  0.12500000000E+03 0.  0.
</event>
<event>
 5    0  0.6343520E-005  0.4691245E+03  0.7546771E-02  0.1022168E+00
         21   -1    0    0  502  501  0.00000000000E+00  0.00000000000E+00  0.27275070341E+03  0.27275070341E+03  0.00000000000E+00 0.  1.
         21   -1    0    0  501  502 -0.00000000000E+00 -0.00000000000E+00 -0.80688244678E+03  0.80688244678E+03  0.00000000000E+00 0.  1.
         25    1    1    2    0    0 -0.67123039538E+02 -0.13654756747E+02  0.12365164077E+03  0.18869733195E+03  0.12500000000E+03 0.  0.
         25    1    1    2    0    0  0.19954377734E+03 -0.19839996278E+03 -0.43783185894E+03  0.53525881685E+03  0.12500000000E+03 0.  0.
         25    1    1    2    0    0 -0.13242073781E+03  0.21205471953E+03 -0.21995152520E+03  0.35567700138E+03  0.12500000000E+03 0.  0.
</event>
<event>
 5    0  0.5619558E-005  0.2032343E+03  0.7546771E-02  0.1147039E+00
         21   -1    0    0  502  501  0.00000000000E+00  0.00000000000E+00  0.11075963597E+03  0.11075963597E+03  0.00000000000E+00 0.  1.
         21   -1    0    0  501  502 -0.00000000000E+00 -0.00000000000E+00 -0.37291725058E+03  0.37291725058E+03  0.00000000000E+00 0.  1.
         25    1    1    2    0    0 -0.21922792137E+02  0.63491073083E+00 -0.79439444059E+02  0.14972186614E+03  0.12500000000E+03 0.  0.
         25    1    1    2    0    0 -0.40645182570E+02 -0.28287312610E+02 -0.66085398455E+02  0.14981482840E+03  0.12500000000E+03 0.  0.
         25    1    1    2    0    0  0.62567974708E+02  0.27652401879E+02 -0.11663277209E+03  0.18414019201E+03  0.12500000000E+03 0.  0.
</event>
<event>
 5    0  0.5619558E-005  0.2623562E+03  0.7546771E-02  0.1105736E+00
         21   -1    0    0  502  501  0.00000000000E+00  0.00000000000E+00  0.15481516122E+04  0.15481516122E+04  0.00000000000E+00 0. -1.
         21   -1    0    0  501  502 -0.00000000000E+00 -0.00000000000E+00 -0.44459979205E+02  0.44459979205E+02  0.00000000000E+00 0. -1.
         25    1    1    2    0    0 -0.70162466980E+02  0.86258117646E+02  0.66947615095E+03  0.69006271550E+03  0.12500000000E+03 0.  0.
         25    1    1    2    0    0  0.13306705316E+03 -0.84523288829E+01  0.48803817044E+03  0.52113773449E+03  0.12500000000E+03 0.  0.
         25    1    1    2    0    0 -0.62904586178E+02 -0.77805788763E+02  0.34617731160E+03  0.38141114141E+03  0.12500000000E+03 0.  0.
</event>
<event>
 5    0  0.5619558E-005  0.3410647E+03  0.7546771E-02  0.1066343E+00
         21   -1    0    0  502  501  0.00000000000E+00  0.00000000000E+00  0.50679512444E+03  0.50679512444E+03  0.00000000000E+00 0.  1.
         21   -1    0    0  501  502 -0.00000000000E+00 -0.00000000000E+00 -0.22953082362E+03  0.22953082362E+03  0.00000000000E+00 0.  1.
         25    1    1    2    0    0 -0.16080169616E+03 -0.14432896223E+03  0.29921045214E+03  0.38966643363E+03  0.12500000000E+03 0.  0.
         25    1    1    2    0    0  0.10299902916E+03  0.28979908685E+02 -0.28042761545E+02  0.16691324570E+03  0.12500000000E+03 0.  0.
         25    1    1    2    0    0  0.57802667007E+02  0.11534905355E+03  0.60966102282E+01  0.17974626873E+03  0.12500000000E+03 0.  0.
</event>
<event>
 5    0  0.5619558E-005  0.2278025E+03  0.7546771E-02  0.1128196E+00
         21   -1    0    0  502  501  0.00000000000E+00  0.00000000000E+00  0.34797525589E+03  0.34797525589E+03  0.00000000000E+00 0. -1.
         21   -1    0    0  501  502 -0.00000000000E+00 -0.00000000000E+00 -0.14913125466E+03  0.14913125466E+03  0.00000000000E+00 0. -1.
         25    1    1    2    0    0  0.35247502129E+02 -0.61799790474E+02  0.37735244608E+02  0.14869616402E+03  0.12500000000E+03 0.  0.
         25    1    1    2    0    0  0.42990519208E+02  0.83190548564E+02  0.55424812234E+02  0.16572797568E+03  0.12500000000E+03 0.  0.
         25    1    1    2    0    0 -0.78238021337E+02 -0.21390758090E+02  0.10568394439E+03  0.18268237084E+03  0.12500000000E+03 0.  0.
</event>
<event>
 5    0  0.5619558E-005  0.4973141E+03  0.7546771E-02  0.1014482E+00
         21   -1    0    0  502  501  0.00000000000E+00  0.00000000000E+00  0.53992566721E+03  0.53992566721E+03  0.00000000000E+00 0. -1.
         21   -1    0    0  501  502 -0.00000000000E+00 -0.00000000000E+00 -0.45806554211E+03  0.45806554211E+03  0.00000000000E+00 0. -1.
         25    1    1    2    0    0  0.91733842164E+02  0.47300087109E+02 -0.13823428592E+03  0.21304016955E+03  0.12500000000E+03 0.  0.
         25    1    1    2    0    0  0.20640355272E+03  0.18844324480E+03 -0.38459345879E+02  0.30857317507E+03  0.12500000000E+03 0.  0.
         25    1    1    2    0    0 -0.29813739488E+03 -0.23574333191E+03  0.25855375690E+03  0.47637786470E+03  0.12500000000E+03 0.  0.
</event>
<event>
 5    0  0.5619558E-005  0.3518238E+03  0.7546771E-02  0.1061869E+00
         21   -1    0    0  502  501  0.00000000000E+00  0.00000000000E+00  0.10713918270E+04  0.10713918270E+04  0.00000000000E+00 0. -1.
         21   -1    0    0  501  502 -0.00000000000E+00 -0.00000000000E+00 -0.11553194585E+03  0.11553194585E+03  0.00000000000E+00 0. -1.
         25    1    1    2    0    0 -0.96151080262E+02 -0.43658841967E+02  0.85853714164E+02  0.18478902823E+03  0.12500000000E+03 0.  0.
         25    1    1    2    0    0  0.52951933633E+02 -0.16966392863E+03  0.23883190919E+03  0.32288610500E+03  0.12500000000E+03 0.  0.
         25    1    1    2    0    0  0.43199146629E+02  0.21332277060E+03  0.63117425783E+03  0.67924863965E+03  0.12500000000E+03 0.  0.
</event>
<event>
 5    0  0.5619558E-005  0.2666622E+03  0.7546771E-02  0.1103205E+00
         21   -1    0    0  502  501  0.00000000000E+00  0.00000000000E+00  0.30471883981E+02  0.30471883981E+02  0.00000000000E+00 0.  1.
         21   -1    0    0  501  502 -0.00000000000E+00 -0.00000000000E+00 -0.23335843860E+04  0.23335843860E+04  0.00000000000E+00 0.  1.
         25    1    1    2    0    0 -0.14155928580E+02  0.10364990056E+03 -0.86895389746E+03  0.88410947745E+03  0.12500000000E+03 0.  0.
         25    1    1    2    0    0 -0.98681243853E+02 -0.11031839655E+03 -0.86088485831E+03  0.88241479803E+03  0.12500000000E+03 0.  0.
         25    1    1    2    0    0  0.11283717243E+03  0.66684959862E+01 -0.57327374620E+03  0.59753199446E+03  0.12500000000E+03 0.  0.
</event>
<event>
 5    0  0.5902138E-005  0.2767262E+03  0.7546771E-02  0.1097491E+00
         21   -1    0    0  502  501  0.00000000000E+00  0.00000000000E+00  0.28258904795E+03  0.28258904795E+03  0.00000000000E+00 0. -1.
         21   -1    0    0  501  502 -0.00000000000E+00 -0.00000000000E+00 -0.27098507180E+03  0.27098507180E+03  0.00000000000E+00 0. -1.
         25    1    1    2    0    0 -0.11810551937E+03 -0.26824722658E+02  0.93881945403E+02  0.19775565510E+03  0.12500000000E+03 0.  0.
         25    1    1    2    0    0 -0.33389777244E+02  0.52939218267E+02  0.36743640260E+01  0.13984255077E+03  0.12500000000E+03 0.  0.
         25    1    1    2    0    0  0.15149529662E+03 -0.26114495609E+02 -0.85952333276E+02  0.21597591387E+03  0.12500000000E+03 0.  0.
</event>
<event>
 5    0  0.5619558E-005  0.2725455E+03  0.7546771E-02  0.1099832E+00
         21   -1    0    0  502  501  0.00000000000E+00  0.00000000000E+00  0.43981675028E+03  0.43981675028E+03  0.00000000000E+00 0. -1.
         21   -1    0    0  501  502 -0.00000000000E+00 -0.00000000000E+00 -0.16889088234E+03  0.16889088234E+03  0.00000000000E+00 0. -1.
         25    1    1    2    0    0 -0.35911716287E+02 -0.37123237325E+01  0.82227005518E+02  0.15391462942E+03  0.12500000000E+03 0.  0.
         25    1    1    2    0    0 -0.10795615089E+03  0.21781513731E+02  0.20324882445E+03  0.26280039858E+03  0.12500000000E+03 0.  0.
         25    1    1    2    0    0  0.14386786718E+03 -0.18069189999E+02 -0.14549962027E+02  0.19199260462E+03  0.12500000000E+03 0.  0.
</event>
<event>
 5    0  0.5619558E-005  0.3261872E+03  0.7546771E-02  0.1072836E+00
         21   -1    0    0  502  501  0.00000000000E+00  0.00000000000E+00  0.19021498072E+03  0.19021498072E+03  0.00000000000E+00 0.  1.
         21   -1    0    0  501  502 -0.00000000000E+00 -0.00000000000E+00 -0.55935697906E+03  0.55935697906E+03  0.00000000000E+00 0.  1.
         25    1    1    2    0    0 -0.20615318066E+03  0.78427347995E+02 -0.21475879032E+03  0.33225941797E+03  0.12500000000E+03 0.  0.
         25    1    1    2    0    0  0.18417162805E+03 -0.10063561724E+02 -0.15793521825E+03  0.27310986254E+03  0.12500000000E+03 0.  0.
         25    1    1    2    0    0  0.21981552611E+02 -0.68363786271E+02  0.35520102314E+01  0.14420267926E+03  0.12500000000E+03 0.  0.
</event>
<event>
 5    0  0.5619558E-005  0.4667488E+03  0.7546771E-02  0.1022842E+00
         21   -1    0    0  502  501  0.00000000000E+00  0.00000000000E+00  0.16069017859E+04  0.16069017859E+04  0.00000000000E+00 0.  1.
         21   -1    0    0  501  502 -0.00000000000E+00 -0.00000000000E+00 -0.13557418514E+03  0.13557418514E+03  0.00000000000E+00 0.  1.
         25    1    1    2    0    0 -0.67612637931E+02  0.36004512530E+03  0.34351617926E+03  0.51752519404E+03  0.12500000000E+03 0.  0.
         25    1    1    2    0    0 -0.29700123701E+02 -0.26116013567E+03  0.66683864851E+03  0.72758882410E+03  0.12500000000E+03 0.  0.
         25    1    1    2    0    0  0.97312761632E+02 -0.98884989633E+02  0.46097277300E+03  0.49736195291E+03  0.12500000000E+03 0.  0.
</event>
<event>
 5    0  0.5619558E-005  0.4698976E+03  0.7546771E-02  0.1021949E+00
         21   -1    0    0  502  501  0.00000000000E+00  0.00000000000E+00  0.14442767368E+03  0.14442767368E+03  0.00000000000E+00 0.  1.
         21   -1    0    0  501  502 -0.00000000000E+00 -0.00000000000E+00 -0.15288188526E+04  0.15288188526E+04  0.00000000000E+00 0.  1.
         25    1    1    2    0    0  0.12119030560E+03 -0.28048000028E+03 -0.35409014577E+03  0.48410840941E+03  0.12500000000E+03 0.  0.
         25    1    1    2    0    0  0.10783755384E+03 -0.41729456682E+02 -0.39957360082E+03  0.43434358295E+03  0.12500000000E+03 0.  0.
         25    1    1    2    0    0 -0.22902785944E+03  0.32220945696E+03 -0.63072743234E+03  0.75479453394E+03  0.12500000000E+03 0.  0.
</event>
<event>
 5    0  0.5619558E-005  0.2105492E+03  0.7546771E-02  0.1141132E+00
         21   -1    0    0  502  501  0.00000000000E+00  0.00000000000E+00  0.11077760488E+04  0.11077760488E+04  0.00000000000E+00 0.  1.
         21   -1    0    0  501  502 -0.00000000000E+00 -0.00000000000E+00 -0.40017995607E+02  0.40017995607E+02  0.00000000000E+00 0.  1.
         25    1    1    2    0    0  0.16335162034E+02 -0.23335867398E+02  0.47500535485E+03  0.49200252780E+03  0.12500000000E+03 0.  0.
         25    1    1    2    0    0 -0.12528965765E+02 -0.48928271169E+02  0.31769668789E+03  0.34511901744E+03  0.12500000000E+03 0.  0.
         25    1    1    2    0    0 -0.38061962689E+01  0.72264138567E+02  0.27505601047E+03  0.31067249918E+03  0.12500000000E+03 0.  0.
</event>
<event>
 5    0  0.5619558E-005  0.3388779E+03  0.7546771E-02  0.1067275E+00
         21   -1    0    0  502  501  0.00000000000E+00  0.00000000000E+00  0.89755774464E+02  0.89755774464E+02  0.00000000000E+00 0.  1.
         21   -1    0    0  501  502 -0.00000000000E+00 -0.00000000000E+00 -0.12794520460E+04  0.12794520460E+04  0.00000000000E+00 0.  1.
         25    1    1    2    0    0 -0.99678305507E+01 -0.76626949763E+02 -0.77552800070E+03  0.78932865585E+03  0.12500000000E+03 0.  0.
         25    1    1    2    0    0 -0.28964039359E+02  0.18605548653E+03 -0.29557427337E+03  0.37208159148E+03  0.12500000000E+03 0.  0.
         25    1    1    2    0    0  0.38931869909E+02 -0.10942853677E+03 -0.11859399742E+03  0.20779757308E+03  0.12500000000E+03 0.  0.
</event>
<event>
 5    0  0.5619558E-005  0.3034660E+03  0.7546771E-02  0.1083521E+00
         21   -1    0    0  502  501  0.00000000000E+00  0.00000000000E+00  0.11693410428E+04  0.11693410428E+04  0.00000000000E+00 0.  1.
         21   -1    0    0  501  502 -0.00000000000E+00 -0.00000000000E+00 -0.78755143033E+02  0.78755143033E+02  0.00000000000E+00 0.  1.
         25    1    1    2    0    0 -0.78596842274E+02 -0.13315833211E+03  0.52227060579E+03  0.55883825092E+03  0.12500000000E+03 0.  0.
         25    1    1    2    0    0  0.26761961683E+02 -0.30585379224E+02  0.73088415733E+02  0.15039476231E+03  0.12500000000E+03 0.  0.
         25    1    1    2    0    0  0.51834880591E+02  0.16374371133E+03  0.49522687823E+03  0.53886317258E+03  0.12500000000E+03 0.  0.
</event>
<event>
 5    0  0.5619558E-005  0.2130001E+03  0.7546771E-02  0.1139212E+00
         21   -1    0    0  502  501  0.00000000000E+00  0.00000000000E+00  0.80758849109E+02  0.80758849109E+02  0.00000000000E+00 0.  1.
         21   -1    0    0  501  502 -0.00000000000E+00 -0.00000000000E+00 -0.56178400131E+03  0.56178400131E+03  0.00000000000E+00 0.  1.
         25    1    1    2    0    0 -0.13361194315E+02 -0.97361214523E+01 -0.15257326936E+03  0.19793159449E+03  0.12500000000E+03 0.  0.
         25    1    1    2    0    0  0.25367993008E+02 -0.12923956203E+02 -0.48714374040E+02  0.13714464609E+03  0.12500000000E+03 0.  0.
         25    1    1    2    0    0 -0.12006798693E+02  0.22660077656E+02 -0.27973750880E+03  0.30746660984E+03  0.12500000000E+03 0.  0.
</event>
<event>
 5    0  0.5619558E-005  0.3629461E+03  0.7546771E-02  0.1057423E+00
         21   -1    0    0  502  501  0.00000000000E+00  0.00000000000E+00  0.14294011159E+04  0.14294011159E+04  0.00000000000E+00 0.  1.
         21   -1    0    0  501  502 -0.00000000000E+00 -0.00000000000E+00 -0.92157400235E+02  0.92157400235E+02  0.00000000000E+00 0.  1.
         25    1    1    2    0    0 -0.17765370724E+01  0.15412851155E+03  0.64344218755E+03  0.67335102501E+03  0.12500000000E+03 0.  0.
         25    1    1    2    0    0 -0.15828885217E+03 -0.17293813586E+02  0.15044673555E+03  0.25221747946E+03  0.12500000000E+03 0.  0.
         25    1    1    2    0    0  0.16006538924E+03 -0.13683469797E+03  0.54335479257E+03  0.59599001167E+03  0.12500000000E+03 0.  0.
</event>
<event>
 5    0  0.5619558E-005  0.2946347E+03  0.7546771E-02  0.1087954E+00
         21   -1    0    0  502  501  0.00000000000E+00  0.00000000000E+00  0.11029306879E+04  0.11029306879E+04  0.00000000000E+00 0. -1.
         21   -1    0    0  501  502 -0.00000000000E+00 -0.00000000000E+00 -0.78708109222E+02  0.78708109222E+02  0.00000000000E+00 0. -1.
         25    1    1    2    0    0 -0.11907339240E+02 -0.98132631112E+02  0.61664629756E+02  0.17087809860E+03  0.12500000000E+03 0.  0.
         25    1    1    2    0    0  0.47890248288E+02  0.85892104034E+02  0.35026224219E+03  0.38468112472E+03  0.12500000000E+03 0.  0.
         25    1    1    2    0    0 -0.35982909048E+02  0.12240527078E+02  0.61229570674E+03  0.62607957381E+03  0.12500000000E+03 0.  0.
</event>
<event>
 5    0  0.5619558E-005  0.4128112E+03  0.7546771E-02  0.1039432E+00
         21   -1    0    0  502  501  0.00000000000E+00  0.00000000000E+00  0.12524916857E+03  0.12524916857E+03  0.00000000000E+00 0.  1.
         21   -1    0    0  501  502 -0.00000000000E+00 -0.00000000000E+00 -0.13605925591E+04  0.13605925591E+04  0.00000000000E+00 0.  1.
         25    1    1    2    0    0  0.15591241296E+03  0.13319079608E+03 -0.99906235213E+03  0.10275208281E+04  0.12500000000E+03 0.  0.
         25    1    1    2    0    0 -0.10119590630E+03  0.30661755204E+02 -0.16761450330E+03  0.23430829349E+03  0.12500000000E+03 0.  0.
         25    1    1    2    0    0 -0.54716506654E+02 -0.16385255129E+03 -0.68666535149E+02  0.22401260615E+03  0.12500000000E+03 0.  0.
</event>
<event>
 5    0  0.5619558E-005  0.4625981E+03  0.7546771E-02  0.1024030E+00
         21   -1    0    0  502  501  0.00000000000E+00  0.00000000000E+00  0.10353818271E+03  0.10353818271E+03  0.00000000000E+00 0. -1.
         21   -1    0    0  501  502 -0.00000000000E+00 -0.00000000000E+00 -0.20668412331E+04  0.20668412331E+04  0.00000000000E+00 0. -1.
         25    1    1    2    0    0  0.23139842048E+03  0.23316086646E+03 -0.59049136086E+03  0.68717848184E+03  0.12500000000E+03 0.  0.
         25    1    1    2    0    0 -0.24831003884E+03 -0.27371490513E+03 -0.73867825282E+03  0.83537314170E+03  0.12500000000E+03 0.  0.
         25    1    1    2    0    0  0.16911618360E+02  0.40554038668E+02 -0.63413343670E+03  0.64782779226E+03  0.12500000000E+03 0.  0.
</event>
<event>
 5    0  0.5619558E-005  0.2407276E+03  0.7546771E-02  0.1119309E+00
         21   -1    0    0  502  501  0.00000000000E+00  0.00000000000E+00  0.19756866897E+03  0.19756866897E+03  0.00000000000E+00 0. -1.
         21   -1    0    0  501  502 -0.00000000000E+00 -0.00000000000E+00 -0.29331449711E+03  0.29331449711E+03  0.00000000000E+00 0. -1.
         25    1    1    2    0    0 -0.30679218582E+02 -0.92417146359E+02  0.21086895841E+02  0.15984930582E+03  0.12500000000E+03 0.  0.
         25    1    1    2    0    0  0.63110925519E+02  0.39080807313E+01 -0.10298184346E+03  0.17386351572E+03  0.12500000000E+03 0.  0.
         25    1    1    2    0    0 -0.32431706936E+02  0.88509065628E+02 -0.13850880521E+02  0.15717034454E+03  0.12500000000E+03 0.  0.
</event>
<event>
 5    0  0.5619558E-005  0.2668810E+03  0.7546771E-02  0.1103078E+00
         21   -1    0    0  502  501  0.00000000000E+00  0.00000000000E+00  0.65671225200E+03  0.65671225200E+03  0.00000000000E+00 0.  1.
         21   -1    0    0  501  502 -0.00000000000E+00 -0.00000000000E+00 -0.10845762950E+03  0.10845762950E+03  0.00000000000E+00 0.  1.
         25    1    1    2    0    0  0.56421148243E+02 -0.49419258433E+02  0.66155332470E+02  0.16008478094E+03  0.12500000000E+03 0.  0.
         25    1    1    2    0    0  0.79224115668E+02  0.32739149248E+02  0.33797305112E+03  0.37040396283E+03  0.12500000000E+03 0.  0.
         25    1    1    2    0    0 -0.13564526391E+03  0.16680109186E+02  0.14412623891E+03  0.23468113773E+03  0.12500000000E+03 0.  0.
</event>
<event>
 5    0  0.5619558E-005  0.4530261E+03  0.7546771E-02  0.1026823E+00
         21   -1    0    0  502  501  0.00000000000E+00  0.00000000000E+00  0.24174603405E+03  0.24174603405E+03  0.00000000000E+00 0. -1.
         21   -1    0    0  501  502 -0.00000000000E+00 -0.00000000000E+00 -0.84895979696E+03  0.84895979696E+03  0.00000000000E+00 0. -1.
         25    1    1    2    0    0  0.10066560958E+03  0.22622514925E+03 -0.24510240630E+02  0.27845490658E+03  0.12500000000E+03 0.  0.
         25    1    1    2    0    0  0.28838841593E+02 -0.31478070042E+03 -0.24335952311E+03  0.41805194131E+03  0.12500000000E+03 0.  0.
         25    1    1    2    0    0 -0.12950445117E+03  0.88555551176E+02 -0.33934399917E+03  0.39419898312E+03  0.12500000000E+03 0.  0.
</event>
<event>
 5    0  0.5619558E-005  0.4385125E+03  0.7546771E-02  0.1031204E+00
         21   -1    0    0  502  501  0.00000000000E+00  0.00000000000E+00  0.13256542531E+04  0.13256542531E+04  0.00000000000E+00 0.  1.
         21   -1    0    0  501  502 -0.00000000000E+00 -0.00000000000E+00 -0.14505530129E+03  0.14505530129E+03  0.00000000000E+00 0.  1.
         25    1    1    2    0    0  0.27688538737E+00  0.11249547775E+03  0.60229085345E+03  0.62532757922E+03  0.12500000000E+03 0.  0.
         25    1    1    2    0    0 -0.38736297993E+02 -0.25750436126E+03  0.64842387683E+02  0.29603805852E+03  0.12500000000E+03 0.  0.
         25    1    1    2    0    0  0.38459412605E+02  0.14500888351E+03  0.51346571068E+03  0.54934391665E+03  0.12500000000E+03 0.  0.
</event>
<event>
 5    0  0.5619558E-005  0.5522626E+03  0.7546771E-02  0.1000972E+00
         21   -1    0    0  502  501  0.00000000000E+00  0.00000000000E+00  0.38919530069E+03  0.38919530069E+03  0.00000000000E+00 0. -1.
         21   -1    0    0  501  502 -0.00000000000E+00 -0.00000000000E+00 -0.78365290682E+03  0.78365290682E+03  0.00000000000E+00 0. -1.
         25    1    1    2    0    0  0.22587160383E+03  0.15465156239E+03 -0.44648820033E+03  0.53843458303E+03  0.12500000000E+03 0.  0.
         25    1    1    2    0    0  0.12808437947E+03 -0.17613088063E+03 -0.18803087787E+02  0.25180597984E+03  0.12500000000E+03 0.  0.
         25    1    1    2    0    0 -0.35395598330E+03  0.21479318236E+02  0.70833681996E+02  0.38260764464E+03  0.12500000000E+03 0.  0.
</event>
<event>
 5    0  0.5619558E-005  0.2312021E+03  0.7546771E-02  0.1125797E+00
         21   -1    0    0  502  501  0.00000000000E+00  0.00000000000E+00  0.67314583155E+02  0.67314583155E+02  0.00000000000E+00 0. -1.
         21   -1    0    0  501  502 -0.00000000000E+00 -0.00000000000E+00 -0.79409859881E+03  0.79409859881E+03  0.00000000000E+00 0. -1.
         25    1    1    2    0    0  0.52152157057E+02 -0.71452330250E+02 -0.22728757694E+03  0.27406190107E+03  0.12500000000E+03 0.  0.
         25    1    1    2    0    0 -0.10062861474E+03  0.95400959285E+01 -0.27820166442E+03  0.32130717020E+03  0.12500000000E+03 0.  0.
         25    1    1    2    0    0  0.48476457685E+02  0.61912234322E+02 -0.22129477430E+03  0.26604411070E+03  0.12500000000E+03 0.  0.
</event>
<event>
 5    0  0.5619558E-005  0.2593133E+03  0.7546771E-02  0.1107557E+00
         21   -1    0    0  502  501  0.00000000000E+00  0.00000000000E+00  0.16150318277E+03  0.16150318277E+03  0.00000000000E+00 0. -1.
         21   -1    0    0  501  502 -0.00000000000E+00 -0.00000000000E+00 -0.41635949096E+03  0.41635949096E+03  0.00000000000E+00 0. -1.
         25    1    1    2    0    0  0.72140106928E+02 -0.10239678775E+03 -0.40670664879E+02  0.18157202469E+03  0.12500000000E+03 0.  0.
         25    1    1    2    0    0 -0.12690998870E+03  0.78365338689E+02 -0.13252870256E+03  0.23544878115E+03  0.12500000000E+03 0.  0.
         25    1    1    2    0    0  0.54769881774E+02  0.24031449060E+02 -0.81656940755E+02  0.16084186789E+03  0.12500000000E+03 0.  0.
</event>
<event>
 5    0  0.5619558E-005  0.3617752E+03  0.7546771E-02  0.1057883E+00
         21   -1    0    0  502  501  0.00000000000E+00  0.00000000000E+00  0.28349502493E+03  0.28349502493E+03  0.00000000000E+00 0.  1.
         21   -1    0    0  501  502 -0.00000000000E+00 -0.00000000000E+00 -0.46167050672E+03  0.46167050672E+03  0.00000000000E+00 0. -1.
         25    1    1    2    0    0 -0.18385568536E+03  0.21053654376E+02 -0.13439174425E+02  0.22372255321E+03  0.12500000000E+03 0.  0.
         25    1    1    2    0    0  0.22221428973E+03 -0.16230860882E+03 -0.98583818421E+02  0.31791043442E+03  0.12500000000E+03 0.  0.
         25    1    1    2    0    0 -0.38358604367E+02  0.14125495445E+03 -0.66152488947E+02  0.20353254403E+03  0.12500000000E+03 0.  0.
</event>
<event>
 5    0  0.5619558E-005  0.3163484E+03  0.7546771E-02  0.1077342E+00
         21   -1    0    0  502  501  0.00000000000E+00  0.00000000000E+00  0.33831934062E+03  0.33831934062E+03  0.00000000000E+00 0. -1.
         21   -1    0    0  501  502 -0.00000000000E+00 -0.00000000000E+00 -0.29580437295E+03  0.29580437295E+03  0.00000000000E+00 0. -1.
         25    1    1    2    0    0  0.58570683342E+02  0.83517806498E+02 -0.15735581660E+02  0.16210600692E+03  0.12500000000E+03 0.  0.
         25    1    1    2    0    0 -0.15342338391E+03 -0.13666005995E+03  0.14920571671E+03  0.28302306022E+03  0.12500000000E+03 0.  0.
         25    1    1    2    0    0  0.94852700570E+02  0.53142253449E+02 -0.90955167383E+02  0.18899464643E+03  0.12500000000E+03 0.  0.
</event>
<event>
 5    0  0.6212410E-005  0.2797218E+03  0.7546771E-02  0.1095841E+00
         21   -1    0    0  502  501  0.00000000000E+00  0.00000000000E+00  0.43804749245E+03  0.43804749245E+03  0.00000000000E+00 0.  1.
         21   -1    0    0  501  502 -0.00000000000E+00 -0.00000000000E+00 -0.17862052595E+03  0.17862052595E+03  0.00000000000E+00 0.  1.
         25    1    1    2    0    0 -0.12845415676E+02  0.13626956395E+02 -0.45148325858E+01  0.12647561962E+03  0.12500000000E+03 0.  0.
         25    1    1    2    0    0  0.89646451351E+02 -0.16137778110E+02  0.30138976768E+03  0.33875906804E+03  0.12500000000E+03 0.  0.
         25    1    1    2    0    0 -0.76801035675E+02  0.25108217141E+01 -0.37447968593E+02  0.15143333074E+03  0.12500000000E+03 0.  0.
</event>
<event>
 5    0  0.5619558E-005  0.2176640E+03  0.7546771E-02  0.1135637E+00
         21   -1    0    0  502  501  0.00000000000E+00  0.00000000000E+00  0.26899415599E+03  0.26899415599E+03  0.00000000000E+00 0.  1.
         21   -1    0    0  501  502 -0.00000000000E+00 -0.00000000000E+00 -0.17612877598E+03  0.17612877598E+03  0.00000000000E+00 0.  1.
         25    1    1    2    0    0 -0.63255946586E+02  0.26717188290E+02 -0.31482512377E+02  0.14605229034E+03  0.12500000000E+03 0.  0.
         25    1    1    2    0    0  0.18205466734E+02 -0.49998964698E+02  0.76685491496E+02  0.15600320540E+03  0.12500000000E+03 0.  0.
         25    1    1    2    0    0  0.45050479852E+02  0.23281776408E+02  0.47662400893E+02  0.14306743622E+03  0.12500000000E+03 0.  0.
</event>
<event>
 5    0  0.5619558E-005  0.2675021E+03  0.7546771E-02  0.1102718E+00
         21   -1    0    0  502  501  0.00000000000E+00  0.00000000000E+00  0.47082220493E+02  0.47082220493E+02  0.00000000000E+00 0. -1.
         21   -1    0    0  501  502 -0.00000000000E+00 -0.00000000000E+00 -0.15198385753E+04  0.15198385753E+04  0.00000000000E+00 0. -1.
         25    1    1    2    0    0 -0.14513201297E+03 -0.44918413306E+02 -0.48653809466E+03  0.52480975848E+03  0.12500000000E+03 0.  0.
         25    1    1    2    0    0  0.12388435292E+03  0.89706533550E+02 -0.66938377503E+03  0.69792136615E+03  0.12500000000E+03 0.  0.
         25    1    1    2    0    0  0.21247660043E+02 -0.44788120244E+02 -0.31683448512E+03  0.34418967117E+03  0.12500000000E+03 0.  0.
</event>
<event>
 5    0  0.5619558E-005  0.3399462E+03  0.7546771E-02  0.1066819E+00
         21   -1    0    0  502  501  0.00000000000E+00  0.00000000000E+00  0.29201103700E+03  0.29201103700E+03  0.00000000000E+00 0.  1.
         21   -1    0    0  501  502 -0.00000000000E+00 -0.00000000000E+00 -0.39575016740E+03  0.39575016740E+03  0.00000000000E+00 0.  1.
         25    1    1    2    0    0 -0.97353084256E+02  0.13032095890E+02 -0.16961432935E+03  0.23246823279E+03  0.12500000000E+03 0.  0.
         25    1    1    2    0    0  0.91601138146E+02 -0.13416999452E+03 -0.87829375201E+02  0.22300528040E+03  0.12500000000E+03 0.  0.
         25    1    1    2    0    0  0.57519461101E+01  0.12113789863E+03  0.15370457415E+03  0.23228769120E+03  0.12500000000E+03 0.  0.
</event>
<event>
 5    0  0.5619558E-005  0.3112577E+03  0.7546771E-02  0.1079745E+00
         21   -1    0    0  502  501  0.00000000000E+00  0.00000000000E+00  0.23579187180E+03  0.23579187180E+03  0.00000000000E+00 0.  1.
         21   -1    0    0  501  502 -0.00000000000E+00 -0.00000000000E+00 -0.41087655423E+03  0.41087655423E+03  0.00000000000E+00 0.  1.
         25    1    1    2    0    0 -0.18035815613E+03 -0.12105799229E+03 -0.14819529483E+03  0.29115450776E+03  0.12500000000E+03 0.  0.
         25    1    1    2    0    0  0.15912558357E+03  0.95288068087E+02 -0.32479701764E+02  0.22601039421E+03  0.12500000000E+03 0.  0.
         25    1    1    2    0    0  0.21232572562E+02  0.25769924200E+02  0.55903141684E+01  0.12950352406E+03  0.12500000000E+03 0.  0.
</event>
<event>
 5    0  0.5619558E-005  0.4049042E+03  0.7546771E-02  0.1042095E+00
         21   -1    0    0  502  501  0.00000000000E+00  0.00000000000E+00  0.13843769244E+03  0.13843769244E+03  0.00000000000E+00 0. -1.
         21   -1    0    0  501  502 -0.00000000000E+00 -0.00000000000E+00 -0.11842683270E+04  0.11842683270E+04  0.00000000000E+00 0. -1.
         25    1    1    2    0    0  0.33394903039E+02 -0.17663457595E+03 -0.38556557765E+03  0.44339689628E+03  0.12500000000E+03 0.  0.
         25    1    1    2    0    0 -0.17227089695E+03  0.28946838188E+03 -0.36551057127E+03  0.51253505613E+03  0.12500000000E+03 0.  0.
         25    1    1    2    0    0  0.13887599391E+03 -0.11283380594E+03 -0.29475448568E+03  0.36677406707E+03  0.12500000000E+03 0.  0.
</event>
<event>
 5    0  0.5619558E-005  0.5282749E+03  0.7546771E-02  0.1006651E+00
         21   -1    0    0  502  501  0.00000000000E+00  0.00000000000E+00  0.57905448193E+03  0.57905448193E+03  0.00000000000E+00 0. -1.
         21   -1    0    0  501  502 -0.00000000000E+00 -0.00000000000E+00 -0.48194843207E+03  0.48194843207E+03  0.00000000000E+00 0. -1.
         25    1    1    2    0    0  0.12009036470E+03  0.22391026140E+03  0.30126120946E+03  0.41344989682E+03  0.12500000000E+03 0.  0.
         25    1    1    2    0    0  0.34956036833E+02  0.11214955184E+03  0.53391278412E+02  0.17965265124E+03  0.12500000000E+03 0.  0.
         25    1    1    2    0    0 -0.15504640153E+03 -0.33605981324E+03 -0.25754643802E+03  0.46790036593E+03  0.12500000000E+03 0.  0.
</event>
<event>
 5    0  0.5619558E-005  0.2812006E+03  0.7546771E-02  0.1095035E+00
         21   -1    0    0  502  501  0.00000000000E+00  0.00000000000E+00  0.65156626715E+02  0.65156626715E+02  0.00000000000E+00 0.  1.
         21   -1    0    0  501  502 -0.00000000000E+00 -0.00000000000E+00 -0.12135955954E+04  0.12135955954E+04  0.00000000000E+00 0. -1.
         25    1    1    2    0    0  0.14227507924E+03  0.82667935360E+02 -0.52803578599E+03  0.56702996128E+03  0.12500000000E+03 0.  0.
         25    1    1    2    0    0  0.23140620698E+02 -0.16549590522E+02 -0.18660020666E+03  0.22639349460E+03  0.12500000000E+03 0.  0.
         25    1    1    2    0    0 -0.16541569994E+03 -0.66118344838E+02 -0.43380297603E+03  0.48532876622E+03  0.12500000000E+03 0.  0.
</event>
<event>
 5    0  0.5619558E-005  0.2719956E+03  0.7546771E-02  0.1100143E+00
         21   -1    0    0  502  501  0.00000000000E+00  0.00000000000E+00  0.10814825690E+03  0.10814825690E+03  0.00000000000E+00 0.  1.
         21   -1    0    0  501  502 -0.00000000000E+00 -0.00000000000E+00 -0.68407597428E+03  0.68407597428E+03  0.00000000000E+00 0.  1.
         25    1    1    2    0    0  0.26221903709E+02  0.10871432143E+03 -0.19664333951E+03  0.25845694978E+03  0.12500000000E+03 0.  0.
         25    1    1    2    0    0  0.17703119302E+02 -0.70989371342E+02 -0.16580817647E+02  0.14578345170E+03  0.12500000000E+03 0.  0.
         25    1    1    2    0    0 -0.43925023011E+02 -0.37724950087E+02 -0.36270356023E+03  0.38798382970E+03  0.12500000000E+03 0.  0.
</event>
<event>
 5    0  0.5619558E-005  0.2447561E+03  0.7546771E-02  0.1116664E+00
         21   -1    0    0  502  501  0.00000000000E+00  0.00000000000E+00  0.14021859164E+04  0.14021859164E+04  0.00000000000E+00 0.  1.
         21   -1    0    0  501  502 -0.00000000000E+00 -0.00000000000E+00 -0.42722975482E+02  0.42722975482E+02  0.00000000000E+00 0.  1.
         25    1    1    2    0    0  0.29101829592E+02 -0.94543723078E+02  0.54453468827E+03  0.56738739746E+03  0.12500000000E+03 0.  0.
         25    1    1    2    0    0 -0.75736982046E+01  0.86252011779E+02  0.20934239551E+03  0.25873926837E+03  0.12500000000E+03 0.  0.
         25    1    1    2    0    0 -0.21528131387E+02  0.82917112997E+01  0.60558585713E+03  0.61878222605E+03  0.12500000000E+03 0.  0.
</event>
<event>
 5    0  0.5619558E-005  0.5388836E+03  0.7546771E-02  0.1004100E+00
         21   -1    0    0  502  501  0.00000000000E+00  0.00000000000E+00  0.93357214957E+02  0.93357214957E+02  0.00000000000E+00 0.  1.
         21   -1    0    0  501  502 -0.00000000000E+00 -0.00000000000E+00 -0.31105850116E+04  0.31105850116E+04  0.00000000000E+00 0.  1.
         25    1    1    2    0    0  0.89570567543E+02 -0.46559342763E+03 -0.10855011399E+04  0.11911078251E+04  0.12500000000E+03 0.  0.
         25    1    1    2    0    0 -0.81772628051E+01  0.10678083411E+03 -0.78458088391E+03  0.80166151059E+03  0.12500000000E+03 0.  0.
         25    1    1    2    0    0 -0.81393304738E+02  0.35881259351E+03 -0.11471457729E+04  0.12111728909E+04  0.12500000000E+03 0.  0.
</event>
<event>
 5    0  0.5619558E-005  0.3166154E+03  0.7546771E-02  0.1077218E+00
         21   -1    0    0  502  501  0.00000000000E+00  0.00000000000E+00  0.11623337817E+04  0.11623337817E+04  0.00000000000E+00 0. -1.
         21   -1    0    0  501  502 -0.00000000000E+00 -0.00000000000E+00 -0.86244848008E+02  0.86244848008E+02  0.00000000000E+00 0. -1.
         25    1    1    2    0    0 -0.15997093298E+03  0.78511810207E+02  0.17450672606E+03  0.27898458950E+03  0.12500000000E+03 0.  0.
         25    1    1    2    0    0  0.26770055295E+02 -0.41664692646E+02  0.60162458843E+03  0.61646551231E+03  0.12500000000E+03 0.  0.
         25    1    1    2    0    0  0.13320087769E+03 -0.36847117561E+02  0.29995761922E+03  0.35312852790E+03  0.12500000000E+03 0.  0.
</event>
<event>
 5    0  0.5619558E-005  0.2538398E+03  0.7546771E-02  0.1110902E+00
         21   -1    0    0  502  501  0.00000000000E+00  0.00000000000E+00  0.43976915021E+03  0.43976915021E+03  0.00000000000E+00 0. -1.
         21   -1    0    0  501  502 -0.00000000000E+00 -0.00000000000E+00 -0.14651928441E+03  0.14651928441E+03  0.00000000000E+00 0. -1.
         25    1    1    2    0    0  0.48957706586E+02 -0.75398028030E+02  0.13510794074E+03  0.20484353862E+03  0.12500000000E+03 0.  0.
         25    1    1    2    0    0  0.69334249307E+02  0.83881952264E+02  0.34295635333E+02  0.16924718800E+03  0.12500000000E+03 0.  0.
         25    1    1    2    0    0 -0.11829195589E+03 -0.84839242336E+01  0.12384628974E+03  0.21219770800E+03  0.12500000000E+03 0.  0.
</event>
<event>
 5    0  0.5619558E-005  0.5895453E+03  0.7546771E-02  0.9927337E-01
         21   -1    0    0  502  501  0.00000000000E+00  0.00000000000E+00  0.75193690376E+03  0.75193690376E+03  0.00000000000E+00 0.  1.
         21   -1    0    0  501  502 -0.00000000000E+00 -0.00000000000E+00 -0.46222449804E+03  0.46222449804E+03  0.00000000000E+00 0.  1.
         25    1    1    2    0    0  0.10077871917E+02 -0.10779369286E+03  0.15664292054E+02  0.16610663373E+03  0.12500000000E+03 0.  0.
         25    1    1    2    0    0 -0.35279971889E+03  0.10679857760E+03 -0.20973690731E+03  0.44214041674E+03  0.12500000000E+03 0.  0.
         25    1    1    2    0    0  0.34272184697E+03  0.99511526486E+00  0.48378502097E+03  0.60591435134E+03  0.12500000000E+03 0.  0.
</event>
<event>
 5    0  0.5619558E-005  0.4238541E+03  0.7546771E-02  0.1035819E+00
         21   -1    0    0  502  501  0.00000000000E+00  0.00000000000E+00  0.84444377263E+03  0.84444377263E+03  0.00000000000E+00 0. -1.
         21   -1    0    0  501  502 -0.00000000000E+00 -0.00000000000E+00 -0.21274626803E+03  0.21274626803E+03  0.00000000000E+00 0. -1.
         25    1    1    2    0    0 -0.29453692494E+03 -0.65507381930E+02  0.13677770446E+03  0.35408524069E+03  0.12500000000E+03 0.  0.
         25    1    1    2    0    0  0.26033364846E+03  0.37994840167E+02  0.49059794649E+03  0.57055110332E+03  0.12500000000E+03 0.  0.
         25    1    1    2    0    0  0.34203276473E+02  0.27512541763E+02  0.43218536593E+01  0.13255369665E+03  0.12500000000E+03 0.  0.
</event>
<event>
 5    0  0.5619558E-005  0.4000825E+03  0.7546771E-02  0.1043751E+00
         21   -1    0    0  502  501  0.00000000000E+00  0.00000000000E+00  0.35910323749E+03  0.35910323749E+03  0.00000000000E+00 0. -1.
         21   -1    0    0  501  502 -0.00000000000E+00 -0.00000000000E+00 -0.44573811544E+03  0.44573811544E+03  0.00000000000E+00 0. -1.
         25    1    1    2    0    0 -0.17837690886E+01 -0.13206018253E+03  0.70062432715E+02  0.19487641756E+03  0.12500000000E+03 0.  0.
         25    1    1    2    0    0  0.13796848747E+03 -0.15508532192E+03 -0.10694882234E+03  0.26485809636E+03  0.12500000000E+03 0.  0.
         25    1    1    2    0    0 -0.13618471838E+03  0.28714550445E+03 -0.49748488317E+02  0.34510683901E+03  0.12500000000E+03 0.  0.
</event>
<event>
 5    0  0.5619558E-005  0.3222257E+03  0.7546771E-02  0.1074630E+00
         21   -1    0    0  502  501  0.00000000000E+00  0.00000000000E+00  0.46947734904E+03  0.46947734904E+03  0.00000000000E+00 0.  1.
         21   -1    0    0  501  502 -0.00000000000E+00 -0.00000000000E+00 -0.22115949591E+03  0.22115949591E+03  0.00000000000E+00 0.  1.
         25    1    1    2    0    0  0.11597801685E+03  0.26333625645E+02  0.33147906096E+02  0.17569332346E+03  0.12500000000E+03 0.  0.
         25    1    1    2    0    0  0.84337939583E+02  0.49446374634E+02 -0.35205141899E+02  0.16254917420E+03  0.12500000000E+03 0.  0.
         25    1    1    2    0    0 -0.20031595643E+03 -0.75780000279E+02  0.25037508893E+03  0.35239434729E+03  0.12500000000E+03 0.  0.
</event>
<event>
 5    0  0.5619558E-005  0.3012206E+03  0.7546771E-02  0.1084632E+00
         21   -1    0    0  502  501  0.00000000000E+00  0.00000000000E+00  0.31740351540E+03  0.31740351540E+03  0.00000000000E+00 0. -1.
         21   -1    0    0  501  502 -0.00000000000E+00 -0.00000000000E+00 -0.28586273228E+03  0.28586273228E+03  0.00000000000E+00 0. -1.
         25    1    1    2    0    0 -0.21079474653E+01 -0.66945781181E+02  0.92262479886E+02  0.16918494689E+03  0.12500000000E+03 0.  0.
         25    1    1    2    0    0 -0.59266839526E+02  0.15180076598E+03 -0.14413934604E+03  0.25091269776E+03  0.12500000000E+03 0.  0.
         25    1    1    2    0    0  0.61374786991E+02 -0.84854984802E+02  0.83417649279E+02  0.18316860303E+03  0.12500000000E+03 0.  0.
</event>
<event>
 5    0  0.5619558E-005  0.2862857E+03  0.7546771E-02  0.1092305E+00
         21   -1    0    0  502  501  0.00000000000E+00  0.00000000000E+00  0.14263665181E+04  0.14263665181E+04  0.00000000000E+00 0. -1.
         21   -1    0    0  501  502 -0.00000000000E+00 -0.00000000000E+00 -0.57460340495E+02  0.57460340495E+02  0.00000000000E+00 0. -1.
         25    1    1    2    0    0 -0.89730105178E+02  0.26494083669E+02  0.92153970322E+03  0.93467312621E+03  0.12500000000E+03 0.  0.
         25    1    1    2    0    0  0.81070089641E+02  0.38242113273E+02  0.33570886061E+03  0.36926989825E+03  0.12500000000E+03 0.  0.
         25    1    1    2    0    0  0.86600155367E+01 -0.64736196942E+02  0.11165761373E+03  0.17988383409E+03  0.12500000000E+03 0.  0.
</event>
<event>
 5    0  0.5619558E-005  0.3218617E+03  0.7546771E-02  0.1074796E+00
         21   -1    0    0  502  501  0.00000000000E+00  0.00000000000E+00  0.11445745310E+03  0.11445745310E+03  0.00000000000E+00 0. -1.
         21   -1    0    0  501  502 -0.00000000000E+00 -0.00000000000E+00 -0.90509579475E+03  0.90509579475E+03  0.00000000000E+00 0. -1.
         25    1    1    2    0    0  0.21124735633E+02  0.21159748115E+03 -0.47072295934E+03  0.53143659352E+03  0.12500000000E+03 0.  0.
         25    1    1    2    0    0  0.63287973591E+02 -0.14877175300E+03 -0.19469762894E+03  0.28225975414E+03  0.12500000000E+03 0.  0.
         25    1    1    2    0    0 -0.84412709224E+02 -0.62825728150E+02 -0.12521775337E+03  0.20585690019E+03  0.12500000000E+03 0.  0.
</event>
<event>
 5    0  0.5619558E-005  0.3821316E+03  0.7546771E-02  0.1050149E+00
         21   -1    0    0  502  501  0.00000000000E+00  0.00000000000E+00  0.11532444619E+03  0.11532444619E+03  0.00000000000E+00 0.  1.
         21   -1    0    0  501  502 -0.00000000000E+00 -0.00000000000E+00 -0.12662064554E+04  0.12662064554E+04  0.00000000000E+00 0.  1.
         25    1    1    2    0    0  0.10459041894E+03 -0.21532653670E+03 -0.43021636656E+03  0.50795255211E+03  0.12500000000E+03 0.  0.
         25    1    1    2    0    0 -0.67801638764E+02  0.25903576776E+03 -0.66042066015E+03  0.72351713148E+03  0.12500000000E+03 0.  0.
         25    1    1    2    0    0 -0.36788780173E+02 -0.43709231064E+02 -0.60244982486E+02  0.15006121798E+03  0.12500000000E+03 0.  0.
</event>
<event>
 5    0  0.5619558E-005  0.3893040E+03  0.7546771E-02  0.1047548E+00
         21   -1    0    0  502  501  0.00000000000E+00  0.00000000000E+00  0.60129841831E+02  0.60129841831E+02  0.00000000000E+00 0.  1.
         21   -1    0    0  501  502 -0.00000000000E+00 -0.00000000000E+00 -0.25205051600E+04  0.25205051600E+04  0.00000000000E+00 0.  1.
         25    1    1    2    0    0 -0.29262198552E+02 -0.89867734716E+02 -0.15767435465E+04  0.15845118167E+04  0.12500000000E+03 0.  0.
         25    1    1    2    0    0 -0.99861443914E+02  0.35232096938E+02 -0.10369170230E+03  0.19388289703E+03  0.12500000000E+03 0.  0.
         25    1    1    2    0    0  0.12912364247E+03  0.54635637779E+02 -0.77994006940E+03  0.80224028807E+03  0.12500000000E+03 0.  0.
</event>
<event>
 5    0  0.5619558E-005  0.4718537E+03  0.7546771E-02  0.1021398E+00
         21   -1    0    0  502  501  0.00000000000E+00  0.00000000000E+00  0.27356354302E+03  0.27356354302E+03  0.00000000000E+00 0.  1.
         21   -1    0    0  501  502 -0.00000000000E+00 -0.00000000000E+00 -0.81387287806E+03  0.81387287806E+03  0.00000000000E+00 0.  1.
         25    1    1    2    0    0  0.22357355107E+03  0.10086200578E+03 -0.12959120807E+03  0.30426494731E+03  0.12500000000E+03 0.  0.
         25    1    1    2    0    0 -0.25130776962E+03  0.10386983769E+03  0.84761832842E+01  0.29940170998E+03  0.12500000000E+03 0.  0.
         25    1    1    2    0    0  0.27734218546E+02 -0.20473184347E+03 -0.41919431026E+03  0.48376976379E+03  0.12500000000E+03 0.  0.
</event>
<event>
 5    0  0.5619558E-005  0.4078830E+03  0.7546771E-02  0.1041084E+00
         21   -1    0    0  502  501  0.00000000000E+00  0.00000000000E+00  0.12917736057E+04  0.12917736057E+04  0.00000000000E+00 0.  1.
         21   -1    0    0  501  502 -0.00000000000E+00 -0.00000000000E+00 -0.12879077997E+03  0.12879077997E+03  0.00000000000E+00 0.  1.
         25    1    1    2    0    0 -0.18995189588E+03 -0.85001012453E+02  0.20789456121E+03  0.31961233307E+03  0.12500000000E+03 0.  0.
         25    1    1    2    0    0 -0.10465225670E+03 -0.16421529283E+02  0.12669759855E+03  0.20712084139E+03  0.12500000000E+03 0.  0.
         25    1    1    2    0    0  0.29460415259E+03  0.10142254174E+03  0.82839066595E+03  0.89383121121E+03  0.12500000000E+03 0.  0.
</event>
<event>
 5    0  0.5619558E-005  0.3793029E+03  0.7546771E-02  0.1051192E+00
         21   -1    0    0  502  501  0.00000000000E+00  0.00000000000E+00  0.83886751020E+03  0.83886751020E+03  0.00000000000E+00 0.  1.
         21   -1    0    0  501  502 -0.00000000000E+00 -0.00000000000E+00 -0.17150584333E+03  0.17150584333E+03  0.00000000000E+00 0.  1.
         25    1    1    2    0    0  0.12226166928E+03 -0.13765281606E+03  0.47325013584E+02  0.22751015462E+03  0.12500000000E+03 0.  0.
         25    1    1    2    0    0  0.15078850774E+02 -0.72507908036E+02  0.40253061446E+03  0.42794937089E+03  0.12500000000E+03 0.  0.
         25    1    1    2    0    0 -0.13734052005E+03  0.21016072409E+03  0.21750603882E+03  0.35491382802E+03  0.12500000000E+03 0.  0.
</event>
<event>
 5    0  0.5619558E-005  0.3763473E+03  0.7546771E-02  0.1052292E+00
         21   -1    0    0  502  501  0.00000000000E+00  0.00000000000E+00  0.31052887061E+03  0.31052887061E+03  0.00000000000E+00 0.  1.
         21   -1    0    0  501  502 -0.00000000000E+00 -0.00000000000E+00 -0.45611638976E+03  0.45611638976E+03  0.00000000000E+00 0.  1.
         25    1    1    2    0    0  0.64546779576E+02  0.15512074444E+03 -0.10467314097E+02  0.20967426350E+03  0.12500000000E+03 0.  0.
         25    1    1    2    0    0 -0.22664992548E+03 -0.23258178995E+02  0.31711753358E+02  0.26180482599E+03  0.12500000000E+03 0.  0.
         25    1    1    2    0    0  0.16210314591E+03 -0.13186256545E+03 -0.16683195842E+03  0.29516617088E+03  0.12500000000E+03 0.  0.
</event>
<event>
 5    0  0.5619558E-005  0.2842249E+03  0.7546771E-02  0.1093404E+00
         21   -1    0    0  502  501  0.00000000000E+00  0.00000000000E+00  0.17296583450E+03  0.17296583450E+03  0.00000000000E+00 0.  1.
         21   -1    0    0  501  502 -0.00000000000E+00 -0.00000000000E+00 -0.46705045187E+03  0.46705045187E+03  0.00000000000E+00 0.  1.
         25    1    1    2    0    0 -0.72866823080E+02  0.74987003099E+02 -0.36722253508E+02  0.16705133475E+03  0.12500000000E+03 0.  0.
         25    1    1    2    0    0  0.11511176315E+03 -0.13073272457E+03 -0.25027452200E+03  0.32955136117E+03  0.12500000000E+03 0.  0.
         25    1    1    2    0    0 -0.42244940066E+02  0.55745721468E+02 -0.70878418586E+01  0.14341359045E+03  0.12500000000E+03 0.  0.
</event>
<event>
 5    0  0.5619558E-005  0.2531964E+03  0.7546771E-02  0.1111301E+00
         21   -1    0    0  502  501  0.00000000000E+00  0.00000000000E+00  0.11368299614E+03  0.11368299614E+03  0.00000000000E+00 0. -1.
         21   -1    0    0  501  502 -0.00000000000E+00 -0.00000000000E+00 -0.56392256590E+03  0.56392256590E+03  0.00000000000E+00 0. -1.
         25    1    1    2    0    0 -0.13382556873E+02  0.32120268738E+01 -0.17152821207E+03  0.21268835765E+03  0.12500000000E+03 0.  0.
         25    1    1    2    0    0 -0.89187919985E+02 -0.67062897424E+02 -0.22964773352E+03  0.28427978963E+03  0.12500000000E+03 0.  0.
         25    1    1    2    0    0  0.10257047686E+03  0.63850870550E+02 -0.49063624167E+02  0.18063741476E+03  0.12500000000E+03 0.  0.
</event>
<event>
 5    0  0.5619558E-005  0.5043706E+03  0.7546771E-02  0.1012644E+00
         21   -1    0    0  502  501  0.00000000000E+00  0.00000000000E+00  0.86485088288E+03  0.86485088288E+03  0.00000000000E+00 0. -1.
         21   -1    0    0  501  502 -0.00000000000E+00 -0.00000000000E+00 -0.29414289468E+03  0.29414289468E+03  0.00000000000E+00 0. -1.
         25    1    1    2    0    0 -0.21224770373E+03 -0.18746806667E+02  0.97502568488E+02  0.26557914331E+03  0.12500000000E+03 0.  0.
         25    1    1    2    0    0  0.42317642734E+03 -0.13989424924E+03  0.32761626953E+03  0.56710326192E+03  0.12500000000E+03 0.  0.
         25    1    1    2    0    0 -0.21092872360E+03  0.15864105591E+03  0.14558915018E+03  0.32631137233E+03  0.12500000000E+03 0.  0.
</event>
<event>
 5    0  0.5619558E-005  0.3308351E+03  0.7546771E-02  0.1070768E+00
         21   -1    0    0  502  501  0.00000000000E+00  0.00000000000E+00  0.12109622544E+03  0.12109622544E+03  0.00000000000E+00 0. -1.
         21   -1    0    0  501  502 -0.00000000000E+00 -0.00000000000E+00 -0.90384209639E+03  0.90384209639E+03  0.00000000000E+00 0. -1.
         25    1    1    2    0    0  0.13815213624E+03 -0.17649288226E+03 -0.36529675906E+03  0.44643305479E+03  0.12500000000E+03 0.  0.
         25    1    1    2    0    0  0.13327154260E+02  0.11372975046E+03 -0.91008872207E+02  0.19240499993E+03  0.12500000000E+03 0.  0.
         25    1    1    2    0    0 -0.15147929050E+03  0.62763131803E+02 -0.32644023969E+03  0.38610026710E+03  0.12500000000E+03 0.  0.
</event>
<event>
 5    0  0.5619558E-005  0.2543595E+03  0.7546771E-02  0.1110580E+00
         21   -1    0    0  502  501  0.00000000000E+00  0.00000000000E+00  0.17728227105E+03  0.17728227105E+03  0.00000000000E+00 0. -1.
         21   -1    0    0  501  502 -0.00000000000E+00 -0.00000000000E+00 -0.36494756233E+03  0.36494756233E+03  0.00000000000E+00 0. -1.
         25    1    1    2    0    0  0.30330012604E+02  0.35793036762E+02  0.53539874180E+02  0.14384911982E+03  0.12500000000E+03 0.  0.
         25    1    1    2    0    0 -0.80808918308E+02  0.34324710191E+02 -0.65831133290E+02  0.16633401672E+03  0.12500000000E+03 0.  0.
         25    1    1    2    0    0  0.50478905704E+02 -0.70117746953E+02 -0.17537403216E+03  0.23204669684E+03  0.12500000000E+03 0.  0.
</event>
<event>
 5    0  0.5619558E-005  0.3155606E+03  0.7546771E-02  0.1077711E+00
         21   -1    0    0  502  501  0.00000000000E+00  0.00000000000E+00  0.29321530362E+03  0.29321530362E+03  0.00000000000E+00 0.  1.
         21   -1    0    0  501  502 -0.00000000000E+00 -0.00000000000E+00 -0.33960867601E+03  0.33960867601E+03  0.00000000000E+00 0.  1.
         25    1    1    2    0    0 -0.19235403254E+03  0.13433391600E+03 -0.19484907873E+02  0.26655268983E+03  0.12500000000E+03 0.  0.
         25    1    1    2    0    0  0.11620681086E+03 -0.93382359104E+02  0.42575668367E+02  0.19915314564E+03  0.12500000000E+03 0.  0.
         25    1    1    2    0    0  0.76147221679E+02 -0.40951556899E+02 -0.69484132888E+02  0.16711814415E+03  0.12500000000E+03 0.  0.
</event>
<event>
 5    0  0.5619558E-005  0.6368743E+03  0.7546771E-02  0.9831725E-01
         21   -1    0    0  502  501  0.00000000000E+00  0.00000000000E+00  0.20206734195E+04  0.20206734195E+04  0.00000000000E+00 0. -1.
         21   -1    0    0  501  502 -0.00000000000E+00 -0.00000000000E+00 -0.20072958287E+03  0.20072958287E+03  0.00000000000E+00 0. -1.
         25    1    1    2    0    0  0.28356515788E+02  0.10355160553E+03 -0.82443705553E+02  0.18425252123E+03  0.12500000000E+03 0.  0.
         25    1    1    2    0    0  0.12816988307E+03 -0.90844586375E+02  0.18012310798E+04  0.18123847992E+04  0.12500000000E+03 0.  0.
         25    1    1    2    0    0 -0.15652639886E+03 -0.12707019156E+02  0.10115646244E+03  0.22476568192E+03  0.12500000000E+03 0.  0.
</event>
<event>
 5    0  0.5619558E-005  0.3397171E+03  0.7546771E-02  0.1066916E+00
         21   -1    0    0  502  501  0.00000000000E+00  0.00000000000E+00  0.59631289493E+03  0.59631289493E+03  0.00000000000E+00 0. -1.
         21   -1    0    0  501  502 -0.00000000000E+00 -0.00000000000E+00 -0.19353544022E+03  0.19353544022E+03  0.00000000000E+00 0. -1.
         25    1    1    2    0    0 -0.48872986642E+02  0.24337867167E+02  0.17884360755E+02  0.13757089431E+03  0.12500000000E+03 0.  0.
         25    1    1    2    0    0  0.22480206964E+03  0.97880216023E+02  0.16545398770E+03  0.32111762525E+03  0.12500000000E+03 0.  0.
         25    1    1    2    0    0 -0.17592908300E+03 -0.12221808319E+03  0.21943910626E+03  0.33115981559E+03  0.12500000000E+03 0.  0.
</event>
<event>
 5    0  0.5619558E-005  0.3814940E+03  0.7546771E-02  0.1050383E+00
         21   -1    0    0  502  501  0.00000000000E+00  0.00000000000E+00  0.14920503297E+04  0.14920503297E+04  0.00000000000E+00 0. -1.
         21   -1    0    0  501  502 -0.00000000000E+00 -0.00000000000E+00 -0.97542070711E+02  0.97542070711E+02  0.00000000000E+00 0. -1.
         25    1    1    2    0    0 -0.10945479515E+03  0.94124176316E+02  0.79572534781E+03  0.81831750677E+03  0.12500000000E+03 0.  0.
         25    1    1    2    0    0  0.15030337763E+03 -0.22458223522E+03  0.32561287738E+03  0.44122220209E+03  0.12500000000E+03 0.  0.
         25    1    1    2    0    0 -0.40848582486E+02  0.13045805891E+03  0.27317003377E+03  0.33005269151E+03  0.12500000000E+03 0.  0.
</event>
<event>
 5    0  0.6000322E-005  0.2861837E+03  0.7546771E-02  0.1092359E+00
         21   -1    0    0  502  501  0.00000000000E+00  0.00000000000E+00  0.26677554297E+03  0.26677554297E+03  0.00000000000E+00 0.  1.
         21   -1    0    0  501  502 -0.00000000000E+00 -0.00000000000E+00 -0.30700386402E+03  0.30700386402E+03  0.00000000000E+00 0.  1.
         25    1    1    2    0    0 -0.43578691533E+02 -0.76831334602E+02  0.34742447202E+02  0.15695283996E+03  0.12500000000E+03 0.  0.
         25    1    1    2    0    0 -0.70561276556E+02  0.14256088664E+03 -0.11238626870E+03  0.23142638903E+03  0.12500000000E+03 0.  0.
         25    1    1    2    0    0  0.11413996809E+03 -0.65729552038E+02  0.37415500452E+02  0.18540017800E+03  0.12500000000E+03 0.  0.
</event>
<event>
 5    0  0.5619558E-005  0.2955317E+03  0.7546771E-02  0.1087496E+00
         21   -1    0    0  502  501  0.00000000000E+00  0.00000000000E+00  0.31217290737E+03  0.31217290737E+03  0.00000000000E+00 0.  1.
         21   -1    0    0  501  502 -0.00000000000E+00 -0.00000000000E+00 -0.27977765139E+03  0.27977765139E+03  0.00000000000E+00 0.  1.
         25    1    1    2    0    0 -0.45071918859E+02  0.13429412447E+03 -0.13352719674E+03  0.23134584934E+03  0.12500000000E+03 0.  0.
         25    1    1    2    0    0  0.31957939511E+02 -0.57378845423E+02  0.15962538693E+03  0.21311711793E+03  0.12500000000E+03 0.  0.
         25    1    1    2    0    0  0.13113979349E+02 -0.76915279051E+02  0.62970657836E+01  0.14748759149E+03  0.12500000000E+03 0.  0.
</event>
<event>
 5    0  0.5619558E-005  0.4480386E+03  0.7546771E-02  0.1028309E+00
         21   -1    0    0  502  501  0.00000000000E+00  0.00000000000E+00  0.14220821511E+04  0.14220821511E+04  0.00000000000E+00 0. -1.
         21   -1    0    0  501  502 -0.00000000000E+00 -0.00000000000E+00 -0.14115822731E+03  0.14115822731E+03  0.00000000000E+00 0. -1.
         25    1    1    2    0    0 -0.65259876121E+02  0.11584837702E+02  0.41293017949E+03  0.43649672740E+03  0.12500000000E+03 0.  0.
         25    1    1    2    0    0 -0.21595203748E+03 -0.17292874417E+03  0.17222796448E+03  0.34903739742E+03  0.12500000000E+03 0.  0.
         25    1    1    2    0    0  0.28121191360E+03  0.16134390647E+03  0.69576577987E+03  0.77770625363E+03  0.12500000000E+03 0.  0.
</event>
<event>
 5    0  0.5619558E-005  0.2426171E+03  0.7546771E-02  0.1118062E+00
         21   -1    0    0  502  501  0.00000000000E+00  0.00000000000E+00  0.17550910423E+03  0.17550910423E+03  0.00000000000E+00 0. -1.
         21   -1    0    0  501  502 -0.00000000000E+00 -0.00000000000E+00 -0.33538476115E+03  0.33538476115E+03  0.00000000000E+00 0. -1.
         25    1    1    2    0    0 -0.72504983535E+02  0.48190320886E+02 -0.44176208878E+02  0.15860585454E+03  0.12500000000E+03 0.  0.
         25    1    1    2    0    0  0.89973432746E+02  0.35951707510E+02  0.53101494091E+01  0.15824329863E+03  0.12500000000E+03 0.  0.
         25    1    1    2    0    0 -0.17468449211E+02 -0.84142028396E+02 -0.12100959745E+03  0.19404471221E+03  0.12500000000E+03 0.  0.
</event>
<event>
 5    0  0.5619558E-005  0.5580595E+03  0.7546771E-02  0.9996455E-01
         21   -1    0    0  502  501  0.00000000000E+00  0.00000000000E+00  0.62963871842E+03  0.62963871842E+03  0.00000000000E+00 0.  1.
         21   -1    0    0  501  502 -0.00000000000E+00 -0.00000000000E+00 -0.49461758711E+03  0.49461758711E+03  0.00000000000E+00 0.  1.
         25    1    1    2    0    0  0.38512617139E+03 -0.46343298271E+01  0.18764315785E+03  0.44629429707E+03  0.12500000000E+03 0.  0.
         25    1    1    2    0    0 -0.50535782235E+02 -0.18310171916E+03  0.97528876785E+02  0.24742066739E+03  0.12500000000E+03 0.  0.
         25    1    1    2    0    0 -0.33459038916E+03  0.18773604899E+03 -0.15015090332E+03  0.43054134107E+03  0.12500000000E+03 0.  0.
</event>
<event>
 5    0  0.5619558E-005  0.3900585E+03  0.7546771E-02  0.1047277E+00
         21   -1    0    0  502  501  0.00000000000E+00  0.00000000000E+00  0.60861470025E+03  0.60861470025E+03  0.00000000000E+00 0.  1.
         21   -1    0    0  501  502 -0.00000000000E+00 -0.00000000000E+00 -0.24998683507E+03  0.24998683507E+03  0.00000000000E+00 0.  1.
         25    1    1    2    0    0  0.35990782574E+02  0.29276063760E+03  0.14963887447E+03  0.35358297486E+03  0.12500000000E+03 0.  0.
         25    1    1    2    0    0 -0.30818322777E+01 -0.13342071923E+01  0.12167076391E+03  0.17447077861E+03  0.12500000000E+03 0.  0.
         25    1    1    2    0    0 -0.32908950297E+02 -0.29142643041E+03  0.87318226804E+02  0.33054778184E+03  0.12500000000E+03 0.  0.
</event>
<event>
 5    0  0.5619558E-005  0.4001791E+03  0.7546771E-02  0.1043718E+00
         21   -1    0    0  502  501  0.00000000000E+00  0.00000000000E+00  0.25192794784E+03  0.25192794784E+03  0.00000000000E+00 0.  1.
         21   -1    0    0  501  502 -0.00000000000E+00 -0.00000000000E+00 -0.63567102834E+03  0.63567102834E+03  0.00000000000E+00 0.  1.
         25    1    1    2    0    0  0.63747474086E+02  0.47932799991E+02 -0.44066544158E+03  0.46494335695E+03  0.12500000000E+03 0.  0.
         25    1    1    2    0    0 -0.78443465012E+02 -0.16632368098E+03  0.10116695335E+03  0.24428814238E+03  0.12500000000E+03 0.  0.
         25    1    1    2    0    0  0.14695990926E+02  0.11839088099E+03 -0.44244592271E+02  0.17836747685E+03  0.12500000000E+03 0.  0.
</event>
<event>
 5    0  0.5619558E-005  0.3693488E+03  0.7546771E-02  0.1054942E+00
         21   -1    0    0  502  501  0.00000000000E+00  0.00000000000E+00  0.48480865243E+03  0.48480865243E+03  0.00000000000E+00 0.  1.
         21   -1    0    0  501  502 -0.00000000000E+00 -0.00000000000E+00 -0.28138638619E+03  0.28138638619E+03  0.00000000000E+00 0.  1.
         25    1    1    2    0    0  0.93274431848E+02  0.28816834216E+02  0.20959268001E+03  0.26283953486E+03  0.12500000000E+03 0.  0.
         25    1    1    2    0    0 -0.20686929282E+03 -0.88787116545E+02 -0.12708583445E+03  0.28714781158E+03  0.12500000000E+03 0.  0.
         25    1    1    2    0    0  0.11359486097E+03  0.59970282330E+02  0.12091542068E+03  0.21620769218E+03  0.12500000000E+03 0.  0.
</event>
<event>
 5    0  0.5619558E-005  0.3177352E+03  0.7546771E-02  0.1076696E+00
         21   -1    0    0  502  501  0.00000000000E+00  0.00000000000E+00  0.68767817284E+02  0.68767817284E+02  0.00000000000E+00 0.  1.
         21   -1    0    0  501  502 -0.00000000000E+00 -0.00000000000E+00 -0.14680654817E+04  0.14680654817E+04  0.00000000000E+00 0.  1.
         25    1    1    2    0    0  0.17318866624E+01  0.44757906843E+02 -0.14068691845E+03  0.19345303999E+03  0.12500000000E+03 0.  0.
         25    1    1    2    0    0 -0.98879150697E+02 -0.10329749106E+02 -0.11165222617E+04  0.11278877387E+04  0.12500000000E+03 0.  0.
         25    1    1    2    0    0  0.97147264034E+02 -0.34428157737E+02 -0.14208848423E+03  0.21549252030E+03  0.12500000000E+03 0.  0.
</event>
<event>
 5    0  0.5619558E-005  0.2768870E+03  0.7546771E-02  0.1097401E+00
         21   -1    0    0  502  501  0.00000000000E+00  0.00000000000E+00  0.17998620852E+03  0.17998620852E+03  0.00000000000E+00 0.  1.
         21   -1    0    0  501  502 -0.00000000000E+00 -0.00000000000E+00 -0.42595699176E+03  0.42595699176E+03  0.00000000000E+00 0.  1.
         25    1    1    2    0    0 -0.20231963749E+02 -0.13053002457E+02 -0.85655192974E+02  0.15343247803E+03  0.12500000000E+03 0.  0.
         25    1    1    2    0    0 -0.14139377118E+03  0.25781984046E+02 -0.15847614733E+03  0.24778337011E+03  0.12500000000E+03 0.  0.
         25    1    1    2    0    0  0.16162573493E+03 -0.12728981589E+02 -0.18394429292E+01  0.20472735214E+03  0.12500000000E+03 0.  0.
</event>
<event>
 5    0  0.5619558E-005  0.2307955E+03  0.7546771E-02  0.1126081E+00
         21   -1    0    0  502  501  0.00000000000E+00  0.00000000000E+00  0.51779899163E+03  0.51779899163E+03  0.00000000000E+00 0. -1.
         21   -1    0    0  501  502 -0.00000000000E+00 -0.00000000000E+00 -0.10287110176E+03  0.10287110176E+03  0.00000000000E+00 0. -1.
         25    1    1    2    0    0  0.11972001310E+02  0.35310818241E+02  0.12091512419E+03  0.17786413342E+03  0.12500000000E+03 0.  0.
         25    1    1    2    0    0 -0.49287019117E+02 -0.91197016901E+02  0.68268897564E+02  0.17615830528E+03  0.12500000000E+03 0.  0.
         25    1    1    2    0    0  0.37315017807E+02  0.55886198660E+02  0.22574386812E+03  0.26664765468E+03  0.12500000000E+03 0.  0.
</event>
<event>
 5    0  0.5803593E-005  0.6127145E+03  0.7546771E-02  0.9879373E-01
         21   -1    0    0  502  501  0.00000000000E+00  0.00000000000E+00  0.78252325774E+03  0.78252325774E+03  0.00000000000E+00 0. -1.
         21   -1    0    0  501  502 -0.00000000000E+00 -0.00000000000E+00 -0.47975450294E+03  0.47975450294E+03  0.00000000000E+00 0. -1.
         25    1    1    2    0    0 -0.11103032661E+03 -0.76415580981E+02  0.58148158397E+03  0.60984662575E+03  0.12500000000E+03 0.  0.
         25    1    1    2    0    0 -0.10803652449E+03  0.22231111308E+03 -0.48751512929E+02  0.28123981162E+03  0.12500000000E+03 0.  0.
         25    1    1    2    0    0  0.21906685110E+03 -0.14589553210E+03 -0.22996131623E+03  0.37119132331E+03  0.12500000000E+03 0.  0.
</event>
<event>
 5    0  0.6745869E-005  0.3498917E+03  0.7546771E-02  0.1062660E+00
         21   -1    0    0  502  501  0.00000000000E+00  0.00000000000E+00  0.74509739716E+03  0.74509739716E+03  0.00000000000E+00 0. -1.
         21   -1    0    0  501  502 -0.00000000000E+00 -0.00000000000E+00 -0.16430629321E+03  0.16430629321E+03  0.00000000000E+00 0. -1.
         25    1    1    2    0    0 -0.24554711908E+02  0.68629229094E+02 -0.27044989068E+02  0.14720508278E+03  0.12500000000E+03 0.  0.
         25    1    1    2    0    0 -0.98717991885E+02 -0.13986098663E+03  0.50260689288E+03  0.54547687969E+03  0.12500000000E+03 0.  0.
         25    1    1    2    0    0  0.12327270379E+03  0.71231757533E+02  0.10522920013E+03  0.21672172790E+03  0.12500000000E+03 0.  0.
</event>
<event>
 5    0  0.5619558E-005  0.6475896E+03  0.7546771E-02  0.9811313E-01
         21   -1    0    0  502  501  0.00000000000E+00  0.00000000000E+00  0.33499221080E+03  0.33499221080E+03  0.00000000000E+00 0.  1.
         21   -1    0    0  501  502 -0.00000000000E+00 -0.00000000000E+00 -0.12518865301E+04  0.12518865301E+04  0.00000000000E+00 0.  1.
         25    1    1    2    0    0  0.21715735935E+03 -0.41886604713E+03 -0.42270432388E+01  0.48810752100E+03  0.12500000000E+03 0.  0.
         25    1    1    2    0    0 -0.31990597586E+02 -0.76914308116E+01 -0.16772808166E+03  0.21175520258E+03  0.12500000000E+03 0.  0.
         25    1    1    2    0    0 -0.18516676176E+03  0.42655747795E+03 -0.74493919443E+03  0.88701601736E+03  0.12500000000E+03 0.  0.
</event>
<event>
 5    0  0.5684666E-005  0.2994980E+03  0.7546771E-02  0.1085492E+00
         21   -1    0    0  502  501  0.00000000000E+00  0.00000000000E+00  0.55471547909E+02  0.55471547909E+02  0.00000000000E+00 0.  1.
         21   -1    0    0  501  502 -0.00000000000E+00 -0.00000000000E+00 -0.16170286075E+04  0.16170286075E+04  0.00000000000E+00 0.  1.
         25    1    1    2    0    0 -0.14449538276E+03  0.17755181449E+01 -0.39378688112E+03  0.43769301553E+03  0.12500000000E+03 0.  0.
         25    1    1    2    0    0  0.10549402797E+03  0.69522694803E+00 -0.10366818081E+04  0.10495063814E+04  0.12500000000E+03 0.  0.
         25    1    1    2    0    0  0.39001354789E+02 -0.24707450930E+01 -0.13108837035E+03  0.18530075849E+03  0.12500000000E+03 0.  0.
</event>
<event>
 5    0  0.6196085E-005  0.3520233E+03  0.7546771E-02  0.1061788E+00
         21   -1    0    0  502  501  0.00000000000E+00  0.00000000000E+00  0.70424254394E+03  0.70424254394E+03  0.00000000000E+00 0.  1.
         21   -1    0    0  501  502 -0.00000000000E+00 -0.00000000000E+00 -0.17596266941E+03  0.17596266941E+03  0.00000000000E+00 0.  1.
         25    1    1    2    0    0  0.94800585360E+02 -0.18867749156E+03  0.26787571149E+03  0.36327502476E+03  0.12500000000E+03 0.  0.
         25    1    1    2    0    0 -0.13608492383E+03  0.20208258149E+03  0.65836061164E+02  0.28163072131E+03  0.12500000000E+03 0.  0.
         25    1    1    2    0    0  0.41284338468E+02 -0.13405089924E+02  0.19456810188E+03  0.23529946729E+03  0.12500000000E+03 0.  0.
</event>
<event>
 5    0  0.5619558E-005  0.3437712E+03  0.7546771E-02  0.1065201E+00
         21   -1    0    0  502  501  0.00000000000E+00  0.00000000000E+00  0.82579315666E+03  0.82579315666E+03  0.00000000000E+00 0. -1.
         21   -1    0    0  501  502 -0.00000000000E+00 -0.00000000000E+00 -0.14310926817E+03  0.14310926817E+03  0.00000000000E+00 0. -1.
         25    1    1    2    0    0 -0.16018167562E+02 -0.13074472592E+03  0.18048896845E+03  0.25603131211E+03  0.12500000000E+03 0.  0.
         25    1    1    2    0    0  0.28021333565E+02  0.27063598313E+03  0.21111456191E+03  0.36636510307E+03  0.12500000000E+03 0.  0.
         25    1    1    2    0    0 -0.12003166003E+02 -0.13989125721E+03  0.29108035812E+03  0.34650600965E+03  0.12500000000E+03 0.  0.
</event>
<event>
 5    0  0.5619558E-005  0.3729793E+03  0.7546771E-02  0.1053560E+00
         21   -1    0    0  502  501  0.00000000000E+00  0.00000000000E+00  0.56618366634E+02  0.56618366634E+02  0.00000000000E+00 0.  1.
         21   -1    0    0  501  502 -0.00000000000E+00 -0.00000000000E+00 -0.24570398347E+04  0.24570398347E+04  0.00000000000E+00 0.  1.
         25    1    1    2    0    0  0.31469749783E+03  0.13945648393E+02 -0.10770386636E+04  0.11290997649E+04  0.12500000000E+03 0.  0.
         25    1    1    2    0    0 -0.18225590533E+03 -0.51630294715E+01 -0.81586447248E+03  0.84528321251E+03  0.12500000000E+03 0.  0.
         25    1    1    2    0    0 -0.13244159249E+03 -0.87826189219E+01 -0.50751833203E+03  0.53927522395E+03  0.12500000000E+03 0.  0.
</event>
<event>
 5    0  0.5619558E-005  0.3605939E+03  0.7546771E-02  0.1058349E+00
         21   -1    0    0  502  501  0.00000000000E+00  0.00000000000E+00  0.20813366624E+03  0.20813366624E+03  0.00000000000E+00 0.  1.
         21   -1    0    0  501  502 -0.00000000000E+00 -0.00000000000E+00 -0.62473312560E+03  0.62473312560E+03  0.00000000000E+00 0.  1.
         25    1    1    2    0    0  0.12650821053E+03  0.19363780662E+02 -0.30831365179E+03  0.35645699771E+03  0.12500000000E+03 0.  0.
         25    1    1    2    0    0  0.50640388507E+02 -0.15373720453E+03 -0.80666607039E+02  0.21984466902E+03  0.12500000000E+03 0.  0.
         25    1    1    2    0    0 -0.17714859904E+03  0.13437342387E+03 -0.27619200527E+02  0.25656512511E+03  0.12500000000E+03 0.  0.
</event>
<event>
 5    0  0.5619558E-005  0.2925437E+03  0.7546771E-02  0.1089029E+00
         21   -1    0    0  502  501  0.00000000000E+00  0.00000000000E+00  0.17952869682E+03  0.17952869682E+03  0.00000000000E+00 0. -1.
         21   -1    0    0  501  502 -0.00000000000E+00 -0.00000000000E+00 -0.47670258972E+03  0.47670258972E+03  0.00000000000E+00 0. -1.
         25    1    1    2    0    0 -0.38102651249E+02 -0.65295962242E+02 -0.12742107293E+03  0.19384660055E+03  0.12500000000E+03 0.  0.
         25    1    1    2    0    0  0.10683371649E+03  0.13472773739E+03 -0.20988944721E+03  0.29873665033E+03  0.12500000000E+03 0.  0.
         25    1    1    2    0    0 -0.68731065239E+02 -0.69431775144E+02  0.40136627237E+02  0.16364803566E+03  0.12500000000E+03 0.  0.
</event>
<event>
 5    0  0.5619558E-005  0.6106865E+03  0.7546771E-02  0.9883480E-01
         21   -1    0    0  502  501  0.00000000000E+00  0.00000000000E+00  0.22122026988E+03  0.22122026988E+03  0.00000000000E+00 0. -1.
         21   -1    0    0  501  502 -0.00000000000E+00 -0.00000000000E+00 -0.16858222496E+04  0.16858222496E+04  0.00000000000E+00 0. -1.
         25    1    1    2    0    0  0.15073994170E+03 -0.39296027927E+03 -0.91341011688E+03  0.10134512089E+04  0.12500000000E+03 0.  0.
         25    1    1    2    0    0 -0.89058233418E+02  0.33968726210E+03 -0.56656765162E+02  0.37703288187E+03  0.12500000000E+03 0.  0.
         25    1    1    2    0    0 -0.61681708279E+02  0.53273017176E+02 -0.49453509770E+03  0.51655842879E+03  0.12500000000E+03 0.  0.
</event>
<event>
 5    0  0.5619558E-005  0.2490346E+03  0.7546771E-02  0.1113916E+00
         21   -1    0    0  502  501  0.00000000000E+00  0.00000000000E+00  0.30943796293E+02  0.30943796293E+02  0.00000000000E+00 0.  1.
         21   -1    0    0  501  502 -0.00000000000E+00 -0.00000000000E+00 -0.20042225136E+04  0.20042225136E+04  0.00000000000E+00 0.  1.
         25    1    1    2    0    0 -0.42631845903E+02  0.13657062012E+03 -0.60560844422E+03  0.63470906427E+03  0.12500000000E+03 0.  0.
         25    1    1    2    0    0  0.30181126780E+02 -0.20624542977E+02 -0.57573347998E+03  0.59027985918E+03  0.12500000000E+03 0.  0.
         25    1    1    2    0    0  0.12450719124E+02 -0.11594607714E+03 -0.79193679313E+03  0.81017738645E+03  0.12500000000E+03 0.  0.
</event>
<event>
 5    0  0.5619558E-005  0.3353144E+03  0.7546771E-02  0.1068809E+00
         21   -1    0    0  502  501  0.00000000000E+00  0.00000000000E+00  0.29394074814E+03  0.29394074814E+03  0.00000000000E+00 0.  1.
         21   -1    0    0  501  502 -0.00000000000E+00 -0.00000000000E+00 -0.38251157789E+03  0.38251157789E+03  0.00000000000E+00 0.  1.
         25    1    1    2    0    0  0.16608340040E+03  0.52014286883E+02  0.50553546148E+02  0.22015867677E+03  0.12500000000E+03 0.  0.
         25    1    1    2    0    0  0.70153029059E+02  0.26694775782E+02 -0.21360447571E+01  0.14582051031E+03  0.12500000000E+03 0.  0.
         25    1    1    2    0    0 -0.23623642946E+03 -0.78709062665E+02 -0.13698833114E+03  0.31047313896E+03  0.12500000000E+03 0.  0.
</event>
<event>
 5    0  0.5619558E-005  0.3279735E+03  0.7546771E-02  0.1072037E+00
         21   -1    0    0  502  501  0.00000000000E+00  0.00000000000E+00  0.19420402451E+03  0.19420402451E+03  0.00000000000E+00 0.  1.
         21   -1    0    0  501  502 -0.00000000000E+00 -0.00000000000E+00 -0.55388464311E+03  0.55388464311E+03  0.00000000000E+00 0.  1.
         25    1    1    2    0    0 -0.32947331728E+02  0.14698360397E+03 -0.24123519644E+02  0.19722233825E+03  0.12500000000E+03 0.  0.
         25    1    1    2    0    0 -0.11301950216E+03  0.29701754841E+02 -0.94178467280E+02  0.19532072549E+03  0.12500000000E+03 0.  0.
         25    1    1    2    0    0  0.14596683388E+03 -0.17668535881E+03 -0.24137863168E+03  0.35554560388E+03  0.12500000000E+03 0.  0.
</event>
<event>
 5    0  0.5619558E-005  0.4406931E+03  0.7546771E-02  0.1030534E+00
         21   -1    0    0  502  501  0.00000000000E+00  0.00000000000E+00  0.14258504864E+03  0.14258504864E+03  0.00000000000E+00 0. -1.
         21   -1    0    0  501  502 -0.00000000000E+00 -0.00000000000E+00 -0.13620671153E+04  0.13620671153E+04  0.00000000000E+00 0. -1.
         25    1    1    2    0    0 -0.25743792236E+03 -0.28580024473E+03 -0.63635675568E+03  0.75400993644E+03  0.12500000000E+03 0.  0.
         25    1    1    2    0    0  0.20124016696E+03  0.16684203397E+03 -0.38672035815E+03  0.48323028103E+03  0.12500000000E+03 0.  0.
         25    1    1    2    0    0  0.56197755405E+02  0.11895821076E+03 -0.19640495283E+03  0.26741194647E+03  0.12500000000E+03 0.  0.
</event>
<event>
 5    0  0.5619558E-005  0.4618408E+03  0.7546771E-02  0.1024249E+00
         21   -1    0    0  502  501  0.00000000000E+00  0.00000000000E+00  0.29653468959E+03  0.29653468959E+03  0.00000000000E+00 0.  1.
         21   -1    0    0  501  502 -0.00000000000E+00 -0.00000000000E+00 -0.71929835177E+03  0.71929835177E+03  0.00000000000E+00 0.  1.
         25    1    1    2    0    0  0.93076218374E+02 -0.29812793704E+03 -0.62501126368E+02  0.34216200851E+03  0.12500000000E+03 0.  0.
         25    1    1    2    0    0 -0.21709273087E+03  0.20278299369E+03 -0.34610618041E+03  0.47293200827E+03  0.12500000000E+03 0.  0.
         25    1    1    2    0    0  0.12401651250E+03  0.95344943346E+02 -0.14156355402E+02  0.20073902459E+03  0.12500000000E+03 0.  0.
</event>
<event>
 5    0  0.5619558E-005  0.2872657E+03  0.7546771E-02  0.1091785E+00
         21   -1    0    0  502  501  0.00000000000E+00  0.00000000000E+00  0.16642694773E+03  0.16642694773E+03  0.00000000000E+00 0. -1.
         21   -1    0    0  501  502 -0.00000000000E+00 -0.00000000000E+00 -0.49584253898E+03  0.49584253898E+03  0.00000000000E+00 0. -1.
         25    1    1    2    0    0  0.24375911722E+02 -0.11583427928E+03 -0.45466548348E+02  0.17805609326E+03  0.12500000000E+03 0.  0.
         25    1    1    2    0    0  0.61503327004E+02 -0.66335074854E+02 -0.96207025788E+02  0.18183452147E+03  0.12500000000E+03 0.  0.
         25    1    1    2    0    0 -0.85879238726E+02  0.18216935414E+03 -0.18774201711E+03  0.30237887198E+03  0.12500000000E+03 0.  0.
</event>
<event>
 5    0  0.5619558E-005  0.3833668E+03  0.7546771E-02  0.1049696E+00
         21   -1    0    0  502  501  0.00000000000E+00  0.00000000000E+00  0.15972840985E+03  0.15972840985E+03  0.00000000000E+00 0.  1.
         21   -1    0    0  501  502 -0.00000000000E+00 -0.00000000000E+00 -0.92012488986E+03  0.92012488986E+03  0.00000000000E+00 0.  1.
         25    1    1    2    0    0  0.21968170798E+03 -0.10077843037E+03 -0.15683169057E+03  0.31406611408E+03  0.12500000000E+03 0.  0.
         25    1    1    2    0    0 -0.17269584629E+03 -0.39054409550E+02 -0.50329945093E+03  0.54798215257E+03  0.12500000000E+03 0.  0.
         25    1    1    2    0    0 -0.46985861684E+02  0.13983283992E+03 -0.10026533851E+03  0.21780503306E+03  0.12500000000E+03 0.  0.
</event>
<event>
 5    0  0.5619558E-005  0.3105363E+03  0.7546771E-02  0.1080089E+00
         21   -1    0    0  502  501  0.00000000000E+00  0.00000000000E+00  0.38475169999E+03  0.38475169999E+03  0.00000000000E+00 0.  1.
         21   -1    0    0  501  502 -0.00000000000E+00 -0.00000000000E+00 -0.25063651279E+03  0.25063651279E+03  0.00000000000E+00 0.  1.
         25    1    1    2    0    0 -0.29480799235E+02  0.22457164351E+02  0.51171832312E+02  0.14006069462E+03  0.12500000000E+03 0.  0.
         25    1    1    2    0    0  0.14246994969E+03  0.11107291096E+03  0.15468936903E+03  0.26867950983E+03  0.12500000000E+03 0.  0.
         25    1    1    2    0    0 -0.11298915045E+03 -0.13353007531E+03 -0.71746014146E+02  0.22664800832E+03  0.12500000000E+03 0.  0.
</event>
<event>
 5    0  0.5619558E-005  0.3238575E+03  0.7546771E-02  0.1073888E+00
         21   -1    0    0  502  501  0.00000000000E+00  0.00000000000E+00  0.63179060889E+02  0.63179060889E+02  0.00000000000E+00 0. -1.
         21   -1    0    0  501  502 -0.00000000000E+00 -0.00000000000E+00 -0.16601022513E+04  0.16601022513E+04  0.00000000000E+00 0. -1.
         25    1    1    2    0    0  0.98927973774E+02  0.10109771330E+03 -0.25788369492E+03  0.31958800311E+03  0.12500000000E+03 0.  0.
         25    1    1    2    0    0 -0.13141939148E+03  0.78071869945E+02 -0.71285366478E+03  0.73969697899E+03  0.12500000000E+03 0.  0.
         25    1    1    2    0    0  0.32491417706E+02 -0.17916958324E+03 -0.62618583070E+03  0.66399633007E+03  0.12500000000E+03 0.  0.
</event>
<event>
 5    0  0.5619558E-005  0.2431678E+03  0.7546771E-02  0.1117700E+00
         21   -1    0    0  502  501  0.00000000000E+00  0.00000000000E+00  0.60584579881E+02  0.60584579881E+02  0.00000000000E+00 0. -1.
         21   -1    0    0  501  502 -0.00000000000E+00 -0.00000000000E+00 -0.97600040106E+03  0.97600040106E+03  0.00000000000E+00 0. -1.
         25    1    1    2    0    0  0.74180280500E+02  0.23597953285E+02 -0.31397863392E+03  0.34679555933E+03  0.12500000000E+03 0.  0.
         25    1    1    2    0    0 -0.10947689640E+02  0.92067823408E+02 -0.25953565732E+03  0.30262203065E+03  0.12500000000E+03 0.  0.
         25    1    1    2    0    0 -0.63232590860E+02 -0.11566577669E+03 -0.34190152994E+03  0.38716739095E+03  0.12500000000E+03 0.  0.
</event>
<event>
 5    0  0.5619558E-005  0.2470732E+03  0.7546771E-02  0.1115169E+00
         21   -1    0    0  502  501  0.00000000000E+00  0.00000000000E+00  0.16504714090E+04  0.16504714090E+04  0.00000000000E+00 0.  1.
         21   -1    0    0  501  502 -0.00000000000E+00 -0.00000000000E+00 -0.36986504941E+02  0.36986504941E+02  0.00000000000E+00 0.  1.
         25    1    1    2    0    0  0.36951372917E+02 -0.23573168619E+02  0.11056096454E+04  0.11135164059E+04  0.12500000000E+03 0.  0.
         25    1    1    2    0    0 -0.29818407973E+02 -0.25979098523E+02  0.21941829676E+03  0.25560406876E+03  0.12500000000E+03 0.  0.
         25    1    1    2    0    0 -0.71329649442E+01  0.49552267142E+02  0.28845696186E+03  0.31833743922E+03  0.12500000000E+03 0.  0.
</event>
<event>
 5    0  0.5619558E-005  0.3617861E+03  0.7546771E-02  0.1057879E+00
         21   -1    0    0  502  501  0.00000000000E+00  0.00000000000E+00  0.20185351129E+03  0.20185351129E+03  0.00000000000E+00 0.  1.
         21   -1    0    0  501  502 -0.00000000000E+00 -0.00000000000E+00 -0.64843645084E+03  0.64843645084E+03  0.00000000000E+00 0.  1.
         25    1    1    2    0    0 -0.26289543337E+03 -0.44257630403E+02 -0.21249970819E+03  0.36311688575E+03  0.12500000000E+03 0.  0.
         25    1    1    2    0    0  0.74161330857E+02 -0.82946752637E+02 -0.83848491201E+02  0.18717808698E+03  0.12500000000E+03 0.  0.
         25    1    1    2    0    0  0.18873410251E+03  0.12720438304E+03 -0.15023474016E+03  0.29999498940E+03  0.12500000000E+03 0.  0.
</event>
<event>
 5    0  0.5619558E-005  0.2945641E+03  0.7546771E-02  0.1087990E+00
         21   -1    0    0  502  501  0.00000000000E+00  0.00000000000E+00  0.15837734861E+04  0.15837734861E+04  0.00000000000E+00 0.  1.
         21   -1    0    0  501  502 -0.00000000000E+00 -0.00000000000E+00 -0.54785616330E+02  0.54785616330E+02  0.00000000000E+00 0.  1.
         25    1    1    2    0    0  0.14762901454E+03 -0.49587890487E+02  0.10366571258E+04  0.10557160040E+04  0.12500000000E+03 0.  0.
         25    1    1    2    0    0 -0.96919909924E+02  0.41035003312E+01  0.33610613661E+03  0.37148706939E+03  0.12500000000E+03 0.  0.
         25    1    1    2    0    0 -0.50709104617E+02  0.45484390156E+02  0.15622460744E+03  0.21135602903E+03  0.12500000000E+03 0.  0.
</event>
<event>
 5    0  0.5619558E-005  0.3597299E+03  0.7546771E-02  0.1058691E+00
         21   -1    0    0  502  501  0.00000000000E+00  0.00000000000E+00  0.11439187944E+04  0.11439187944E+04  0.00000000000E+00 0. -1.
         21   -1    0    0  501  502 -0.00000000000E+00 -0.00000000000E+00 -0.11312479603E+03  0.11312479603E+03  0.00000000000E+00 0. -1.
         25    1    1    2    0    0  0.17615586688E+03  0.23246255569E+02  0.75081195184E+02  0.22985531037E+03  0.12500000000E+03 0.  0.
         25    1    1    2    0    0  0.22984167596E+02  0.13372143240E+02  0.22566597367E+03  0.25933996578E+03  0.12500000000E+03 0.  0.
         25    1    1    2    0    0 -0.19914003448E+03 -0.36618398809E+02  0.73004682951E+03  0.76784831428E+03  0.12500000000E+03 0.  0.
</event>
<event>
 5    0  0.5619558E-005  0.4573061E+03  0.7546771E-02  0.1025565E+00
         21   -1    0    0  502  501  0.00000000000E+00  0.00000000000E+00  0.59120547666E+03  0.59120547666E+03  0.00000000000E+00 0.  1.
         21   -1    0    0  501  502 -0.00000000000E+00 -0.00000000000E+00 -0.35373289885E+03  0.35373289885E+03  0.00000000000E+00 0.  1.
         25    1    1    2    0    0  0.14317124888E+03  0.21786199172E+03  0.30444072422E+03  0.41984641061E+03  0.12500000000E+03 0.  0.
         25    1    1    2    0    0  0.11325729246E+02  0.68088990140E+02 -0.10145038653E+03  0.17516153587E+03  0.12500000000E+03 0.  0.
         25    1    1    2    0    0 -0.15449697813E+03 -0.28595098186E+03  0.34482240118E+02  0.34993042903E+03  0.12500000000E+03 0.  0.
</event>
<event>
 5    0  0.5619558E-005  0.2464632E+03  0.7546771E-02  0.1115561E+00
         21   -1    0    0  502  501  0.00000000000E+00  0.00000000000E+00  0.44977393031E+03  0.44977393031E+03  0.00000000000E+00 0.  1.
         21   -1    0    0  501  502 -0.00000000000E+00 -0.00000000000E+00 -0.13505480498E+03  0.13505480498E+03  0.00000000000E+00 0.  1.
         25    1    1    2    0    0 -0.44622087031E+02 -0.15096260675E+02 -0.80683740156E+00  0.13358397630E+03  0.12500000000E+03 0.  0.
         25    1    1    2    0    0 -0.56210286411E+02 -0.51931993855E+02  0.11942397148E+03  0.18905981394E+03  0.12500000000E+03 0.  0.
         25    1    1    2    0    0  0.10083237344E+03  0.67028254530E+02  0.19610199125E+03  0.26218494505E+03  0.12500000000E+03 0.  0.
</event>
<event>
 5    0  0.5619558E-005  0.2816437E+03  0.7546771E-02  0.1094795E+00
         21   -1    0    0  502  501  0.00000000000E+00  0.00000000000E+00  0.21234509433E+03  0.21234509433E+03  0.00000000000E+00 0. -1.
         21   -1    0    0  501  502 -0.00000000000E+00 -0.00000000000E+00 -0.37355779195E+03  0.37355779195E+03  0.00000000000E+00 0. -1.
         25    1    1    2    0    0  0.78547729239E+02  0.38949152948E+02  0.62692066072E+02  0.16505174168E+03  0.12500000000E+03 0.  0.
         25    1    1    2    0    0 -0.15157409845E+02 -0.24437373100E+02 -0.24676052063E+03  0.27810553180E+03  0.12500000000E+03 0.  0.
         25    1    1    2    0    0 -0.63390319394E+02 -0.14511779848E+02  0.22855756933E+02  0.14274561279E+03  0.12500000000E+03 0.  0.
</event>
<event>
 5    0  0.5619558E-005  0.3154846E+03  0.7546771E-02  0.1077746E+00
         21   -1    0    0  502  501  0.00000000000E+00  0.00000000000E+00  0.14458911333E+04  0.14458911333E+04  0.00000000000E+00 0.  1.
         21   -1    0    0  501  502 -0.00000000000E+00 -0.00000000000E+00 -0.68836799806E+02  0.68836799806E+02  0.00000000000E+00 0.  1.
         25    1    1    2    0    0 -0.24756317843E+01  0.15819477690E+03  0.47631403718E+03  0.51723474188E+03  0.12500000000E+03 0.  0.
         25    1    1    2    0    0 -0.93965580082E+02 -0.74514160184E+02  0.73027291720E+03  0.75053675720E+03  0.12500000000E+03 0.  0.
         25    1    1    2    0    0  0.96441211866E+02 -0.83680616719E+02  0.17046737908E+03  0.24695643399E+03  0.12500000000E+03 0.  0.
</event>
<event>
 5    0  0.5619558E-005  0.2583340E+03  0.7546771E-02  0.1108148E+00
         21   -1    0    0  502  501  0.00000000000E+00  0.00000000000E+00  0.15773122375E+04  0.15773122375E+04  0.00000000000E+00 0. -1.
         21   -1    0    0  501  502 -0.00000000000E+00 -0.00000000000E+00 -0.42310229159E+02  0.42310229159E+02  0.00000000000E+00 0. -1.
         25    1    1    2    0    0  0.18918870827E+02 -0.16822902424E+02  0.53206159463E+03  0.54713387229E+03  0.12500000000E+03 0.  0.
         25    1    1    2    0    0  0.46825599654E+02  0.46952499478E+02  0.85170023543E+03  0.86337446396E+03  0.12500000000E+03 0.  0.
         25    1    1    2    0    0 -0.65744470481E+02 -0.30129597053E+02  0.15124017832E+03  0.20911413046E+03  0.12500000000E+03 0.  0.
</event>
<event>
 5    0  0.7519429E-005  0.2834232E+03  0.7546771E-02  0.1093834E+00
         21   -1    0    0  502  501  0.00000000000E+00  0.00000000000E+00  0.42410290787E+03  0.42410290787E+03  0.00000000000E+00 0. -1.
         21   -1    0    0  501  502 -0.00000000000E+00 -0.00000000000E+00 -0.18940854935E+03  0.18940854935E+03  0.00000000000E+00 0. -1.
         25    1    1    2    0    0 -0.22433988340E+02 -0.40419017264E+02 -0.45927843256E+02  0.14096576739E+03  0.12500000000E+03 0.  0.
         25    1    1    2    0    0 -0.19562297933E+02  0.99454826716E+02  0.45994834072E+01  0.16099720900E+03  0.12500000000E+03 0.  0.
         25    1    1    2    0    0  0.41996286273E+02 -0.59035809452E+02  0.27602271837E+03  0.31154848084E+03  0.12500000000E+03 0.  0.
</event>
<event>
 5    0  0.5619558E-005  0.3154558E+03  0.7546771E-02  0.1077760E+00
         21   -1    0    0  502  501  0.00000000000E+00  0.00000000000E+00  0.23012511649E+03  0.23012511649E+03  0.00000000000E+00 0. -1.
         21   -1    0    0  501  502 -0.00000000000E+00 -0.00000000000E+00 -0.43242708999E+03  0.43242708999E+03  0.00000000000E+00 0. -1.
         25    1    1    2    0    0  0.14786094345E+03  0.16016528364E+03 -0.10111201640E+03  0.27085866525E+03  0.12500000000E+03 0.  0.
         25    1    1    2    0    0 -0.65452522569E+02 -0.16601319514E+03 -0.10490094824E+03  0.24181319776E+03  0.12500000000E+03 0.  0.
         25    1    1    2    0    0 -0.82408420885E+02  0.58479114991E+01  0.37109911245E+01  0.14988034346E+03  0.12500000000E+03 0.  0.
</event>
<event>
 5    0  0.5765279E-005  0.2988541E+03  0.7546771E-02  0.1085815E+00
         21   -1    0    0  502  501  0.00000000000E+00  0.00000000000E+00  0.50117913462E+03  0.50117913462E+03  0.00000000000E+00 0.  1.
         21   -1    0    0  501  502 -0.00000000000E+00 -0.00000000000E+00 -0.17820725089E+03  0.17820725089E+03  0.00000000000E+00 0.  1.
         25    1    1    2    0    0  0.97378908261E+02 -0.97255124381E+00  0.16797181838E+03  0.23091801446E+03  0.12500000000E+03 0.  0.
         25    1    1    2    0    0 -0.19815703061E+03  0.49762027428E+02  0.14580079876E+03  0.28040210604E+03  0.12500000000E+03 0.  0.
         25    1    1    2    0    0  0.10077812235E+03 -0.48789476184E+02  0.91992665921E+01  0.16806626502E+03  0.12500000000E+03 0.  0.
</event>
<event>
 5    0  0.5619558E-005  0.2627306E+03  0.7546771E-02  0.1105514E+00
         21   -1    0    0  502  501  0.00000000000E+00  0.00000000000E+00  0.38867495031E+03  0.38867495031E+03  0.00000000000E+00 0. -1.
         21   -1    0    0  501  502 -0.00000000000E+00 -0.00000000000E+00 -0.17759668820E+03  0.17759668820E+03  0.00000000000E+00 0. -1.
         25    1    1    2    0    0  0.76079198934E+02  0.70286862744E+02  0.11004454443E+02  0.16270951294E+03  0.12500000000E+03 0.  0.
         25    1    1    2    0    0 -0.10569695726E+03 -0.56910326895E+02  0.97878196272E+01  0.17358408192E+03  0.12500000000E+03 0.  0.
         25    1    1    2    0    0  0.29617758330E+02 -0.13376535849E+02  0.19028598804E+03  0.22997804365E+03  0.12500000000E+03 0.  0.
</event>
<event>
 5    0  0.5619558E-005  0.3684302E+03  0.7546771E-02  0.1055295E+00
         21   -1    0    0  502  501  0.00000000000E+00  0.00000000000E+00  0.38202391605E+03  0.38202391605E+03  0.00000000000E+00 0. -1.
         21   -1    0    0  501  502 -0.00000000000E+00 -0.00000000000E+00 -0.35532016254E+03  0.35532016254E+03  0.00000000000E+00 0. -1.
         25    1    1    2    0    0  0.12913353674E+03  0.16915556530E+03  0.12491962460E+00  0.24680780212E+03  0.12500000000E+03 0.  0.
         25    1    1    2    0    0 -0.17571309677E+03 -0.22871311620E+03  0.96165834770E+02  0.32872123399E+03  0.12500000000E+03 0.  0.
         25    1    1    2    0    0  0.46579560026E+02  0.59557550894E+02 -0.69587000881E+02  0.16181504248E+03  0.12500000000E+03 0.  0.
</event>
<event>
 5    0  0.5619558E-005  0.2723903E+03  0.7546771E-02  0.1099919E+00
         21   -1    0    0  502  501  0.00000000000E+00  0.00000000000E+00  0.83000082685E+02  0.83000082685E+02  0.00000000000E+00 0. -1.
         21   -1    0    0  501  502 -0.00000000000E+00 -0.00000000000E+00 -0.89393270579E+03  0.89393270579E+03  0.00000000000E+00 0. -1.
         25    1    1    2    0    0 -0.51511039322E+02 -0.47036425302E+02 -0.46425970155E+03  0.48582700930E+03  0.12500000000E+03 0.  0.
         25    1    1    2    0    0 -0.76631061973E+02  0.17194912743E+02 -0.23652115930E+03  0.27881040777E+03  0.12500000000E+03 0.  0.
         25    1    1    2    0    0  0.12814210129E+03  0.29841512558E+02 -0.11015176226E+03  0.21229537142E+03  0.12500000000E+03 0.  0.
</event>
<event>
 5    0  0.5619558E-005  0.4688092E+03  0.7546771E-02  0.1022257E+00
         21   -1    0    0  502  501  0.00000000000E+00  0.00000000000E+00  0.13927533272E+04  0.13927533272E+04  0.00000000000E+00 0. -1.
         21   -1    0    0  501  502 -0.00000000000E+00 -0.00000000000E+00 -0.15780400073E+03  0.15780400073E+03  0.00000000000E+00 0. -1.
         25    1    1    2    0    0 -0.23950895593E+03  0.19197467617E+02  0.91204823502E+03  0.95141477061E+03  0.12500000000E+03 0.  0.
         25    1    1    2    0    0  0.59780866176E+02 -0.19572661758E+02  0.35152709639E+03  0.37835583852E+03  0.12500000000E+03 0.  0.
         25    1    1    2    0    0  0.17972808976E+03  0.37519414075E+00 -0.28626004975E+02  0.22078671876E+03  0.12500000000E+03 0.  0.
</event>
<event>
 5    0  0.5619558E-005  0.2738492E+03  0.7546771E-02  0.1099097E+00
         21   -1    0    0  502  501  0.00000000000E+00  0.00000000000E+00  0.13569708059E+04  0.13569708059E+04  0.00000000000E+00 0.  1.
         21   -1    0    0  501  502 -0.00000000000E+00 -0.00000000000E+00 -0.55265274380E+02  0.55265274380E+02  0.00000000000E+00 0.  1.
         25    1    1    2    0    0 -0.39436011274E+02 -0.15529089779E+03  0.31689028515E+03  0.37645041472E+03  0.12500000000E+03 0.  0.
         25    1    1    2    0    0 -0.86646690481E+01  0.20991402552E+02  0.47953367000E+03  0.49607787306E+03  0.12500000000E+03 0.  0.
         25    1    1    2    0    0  0.48100680322E+02  0.13429949524E+03  0.50528157637E+03  0.53970779250E+03  0.12500000000E+03 0.  0.
</event>
<event>
 5    0  0.5619558E-005  0.3083893E+03  0.7546771E-02  0.1081120E+00
         21   -1    0    0  502  501  0.00000000000E+00  0.00000000000E+00  0.75598682322E+03  0.75598682322E+03  0.00000000000E+00 0.  1.
         21   -1    0    0  501  502 -0.00000000000E+00 -0.00000000000E+00 -0.12580111613E+03  0.12580111613E+03  0.00000000000E+00 0.  1.
         25    1    1    2    0    0 -0.64256771086E+02 -0.10507173934E+03  0.31490545188E+03  0.36049888580E+03  0.12500000000E+03 0.  0.
         25    1    1    2    0    0 -0.11207589329E+02  0.14929430223E+03  0.29390462282E+02  0.19723893634E+03  0.12500000000E+03 0.  0.
         25    1    1    2    0    0  0.75464360415E+02 -0.44222562885E+02  0.28588979293E+03  0.32405011721E+03  0.12500000000E+03 0.  0.
</event>
<event>
 5    0  0.5619558E-005  0.3229479E+03  0.7546771E-02  0.1074301E+00
         21   -1    0    0  502  501  0.00000000000E+00  0.00000000000E+00  0.11960056703E+03  0.11960056703E+03  0.00000000000E+00 0. -1.
         21   -1    0    0  501  502 -0.00000000000E+00 -0.00000000000E+00 -0.87203061575E+03  0.87203061575E+03  0.00000000000E+00 0. -1.
         25    1    1    2    0    0 -0.43749467207E+01  0.19465898476E+02  0.74361276831E+01  0.12680046276E+03  0.12500000000E+03 0.  0.
         25    1    1    2    0    0  0.15694740657E+03 -0.65910686317E+01 -0.49644409600E+03  0.53549759202E+03  0.12500000000E+03 0.  0.
         25    1    1    2    0    0 -0.15257245985E+03 -0.12874829845E+02 -0.26342208041E+03  0.32933312800E+03  0.12500000000E+03 0.  0.
</event>
<event>
 5    0  0.5619558E-005  0.2443310E+03  0.7546771E-02  0.1116941E+00
         21   -1    0    0  502  501  0.00000000000E+00  0.00000000000E+00  0.94149055263E+02  0.94149055263E+02  0.00000000000E+00 0.  1.
         21   -1    0    0  501  502 -0.00000000000E+00 -0.00000000000E+00 -0.63407560526E+03  0.63407560526E+03  0.00000000000E+00 0.  1.
         25    1    1    2    0    0 -0.64487856420E+02 -0.80770284817E+02 -0.86144111004E+02  0.18365274405E+03  0.12500000000E+03 0.  0.
         25    1    1    2    0    0  0.65347973999E+02  0.46935100819E+02 -0.13625751929E+03  0.20165409234E+03  0.12500000000E+03 0.  0.
         25    1    1    2    0    0 -0.86011757886E+00  0.33835183998E+02 -0.31752491970E+03  0.34291782414E+03  0.12500000000E+03 0.  0.
</event>
<event>
 5    0  0.5619558E-005  0.2875789E+03  0.7546771E-02  0.1091620E+00
         21   -1    0    0  502  501  0.00000000000E+00  0.00000000000E+00  0.20902418654E+03  0.20902418654E+03  0.00000000000E+00 0. -1.
         21   -1    0    0  501  502 -0.00000000000E+00 -0.00000000000E+00 -0.39565588647E+03  0.39565588647E+03  0.00000000000E+00 0. -1.
         25    1    1    2    0    0  0.29995707780E+02  0.93935819712E+02 -0.30697178687E+02  0.16214498910E+03  0.12500000000E+03 0.  0.
         25    1    1    2    0    0 -0.53823056834E+02 -0.17595373564E+03  0.37715523218E+01  0.22247665751E+03  0.12500000000E+03 0.  0.
         25    1    1    2    0    0  0.23827349054E+02  0.82017915927E+02 -0.15970607356E+03  0.22005842640E+03  0.12500000000E+03 0.  0.
</event>
<event>
 5    0  0.5619558E-005  0.3175630E+03  0.7546771E-02  0.1076776E+00
         21   -1    0    0  502  501  0.00000000000E+00  0.00000000000E+00  0.59744457737E+03  0.59744457737E+03  0.00000000000E+00 0.  1.
         21   -1    0    0  501  502 -0.00000000000E+00 -0.00000000000E+00 -0.16879599005E+03  0.16879599005E+03  0.00000000000E+00 0.  1.
         25    1    1    2    0    0 -0.80239804332E+02  0.55687893562E+01  0.11889609801E+03  0.19034368846E+03  0.12500000000E+03 0.  0.
         25    1    1    2    0    0  0.69535353859E+02  0.10121296580E+03 -0.48299405854E+02  0.18176100376E+03  0.12500000000E+03 0.  0.
         25    1    1    2    0    0  0.10704450473E+02 -0.10678175515E+03  0.35805189516E+03  0.39413587520E+03  0.12500000000E+03 0.  0.
</event>
<event>
 5    0  0.5619558E-005  0.3211220E+03  0.7546771E-02  0.1075134E+00
         21   -1    0    0  502  501  0.00000000000E+00  0.00000000000E+00  0.58918860619E+02  0.58918860619E+02  0.00000000000E+00 0. -1.
         21   -1    0    0  501  502 -0.00000000000E+00 -0.00000000000E+00 -0.17501925513E+04  0.17501925513E+04  0.00000000000E+00 0. -1.
         25    1    1    2    0    0 -0.51285865858E+02 -0.49616746148E+02 -0.10763768572E+03  0.17973016698E+03  0.12500000000E+03 0.  0.
         25    1    1    2    0    0  0.55462556849E+02  0.11109907849E+03 -0.39389978524E+03  0.43151030262E+03  0.12500000000E+03 0.  0.
         25    1    1    2    0    0 -0.41766909913E+01 -0.61482332346E+02 -0.11897362197E+04  0.11978709423E+04  0.12500000000E+03 0.  0.
</event>
<event>
 5    0  0.5619558E-005  0.2725315E+03  0.7546771E-02  0.1099839E+00
         21   -1    0    0  502  501  0.00000000000E+00  0.00000000000E+00  0.25218584200E+03  0.25218584200E+03  0.00000000000E+00 0.  1.
         21   -1    0    0  501  502 -0.00000000000E+00 -0.00000000000E+00 -0.29451861221E+03  0.29451861221E+03  0.00000000000E+00 0.  1.
         25    1    1    2    0    0  0.87120521250E+02 -0.56966566157E+02 -0.12437482702E+03  0.20476638513E+03  0.12500000000E+03 0.  0.
         25    1    1    2    0    0 -0.12978731060E+03 -0.14907014544E+02  0.33182384751E+02  0.18382882183E+03  0.12500000000E+03 0.  0.
         25    1    1    2    0    0  0.42666789352E+02  0.71873580701E+02  0.48859672053E+02  0.15810924726E+03  0.12500000000E+03 0.  0.
</event>
<event>
 5    0  0.5619558E-005  0.2573146E+03  0.7546771E-02  0.1108767E+00
         21   -1    0    0  502  501  0.00000000000E+00  0.00000000000E+00  0.49536523528E+03  0.49536523528E+03  0.00000000000E+00 0.  1.
         21   -1    0    0  501  502 -0.00000000000E+00 -0.00000000000E+00 -0.13366058192E+03  0.13366058192E+03  0.00000000000E+00 0.  1.
         25    1    1    2    0    0 -0.26275258331E+02 -0.12329729855E+03  0.69599408464E+02  0.19068741618E+03  0.12500000000E+03 0.  0.
         25    1    1    2    0    0 -0.66225320626E+02  0.75952699933E+02  0.17812131715E+03  0.23980577420E+03  0.12500000000E+03 0.  0.
         25    1    1    2    0    0  0.92500578957E+02  0.47344598621E+02  0.11398392775E+03  0.19853262682E+03  0.12500000000E+03 0.  0.
</event>
<event>
 5    0  0.6884442E-005  0.2856204E+03  0.7546771E-02  0.1092658E+00
         21   -1    0    0  502  501  0.00000000000E+00  0.00000000000E+00  0.70799456912E+03  0.70799456912E+03  0.00000000000E+00 0. -1.
         21   -1    0    0  501  502 -0.00000000000E+00 -0.00000000000E+00 -0.11522550519E+03  0.11522550519E+03  0.00000000000E+00 0. -1.
         25    1    1    2    0    0  0.79968097380E+02 -0.14204375373E+03  0.85386748137E+02  0.22245723483E+03  0.12500000000E+03 0.  0.
         25    1    1    2    0    0 -0.42284450355E+01  0.49847353969E+02  0.31267539538E+03  0.34043140472E+03  0.12500000000E+03 0.  0.
         25    1    1    2    0    0 -0.75739652344E+02  0.92196399757E+02  0.19470692041E+03  0.26033143476E+03  0.12500000000E+03 0.  0.
</event>
<event>
 5    0  0.5619558E-005  0.2242515E+03  0.7546771E-02  0.1130753E+00
         21   -1    0    0  502  501  0.00000000000E+00  0.00000000000E+00  0.70539411736E+02  0.70539411736E+02  0.00000000000E+00 0. -1.
         21   -1    0    0  501  502 -0.00000000000E+00 -0.00000000000E+00 -0.71291684767E+03  0.71291684767E+03  0.00000000000E+00 0. -1.
         25    1    1    2    0    0 -0.10967260525E+02  0.19494815430E+02 -0.28656413504E+03  0.31343951908E+03  0.12500000000E+03 0.  0.
         25    1    1    2    0    0 -0.55762143677E+02 -0.73620409111E+02 -0.17873798610E+03  0.23685786662E+03  0.12500000000E+03 0.  0.
         25    1    1    2    0    0  0.66729404202E+02  0.54125593681E+02 -0.17707531480E+03  0.23315887371E+03  0.12500000000E+03 0.  0.
</event>
<event>
 5    0  0.5619558E-005  0.3146218E+03  0.7546771E-02  0.1078151E+00
         21   -1    0    0  502  501  0.00000000000E+00  0.00000000000E+00  0.64977945163E+03  0.64977945163E+03  0.00000000000E+00 0. -1.
         21   -1    0    0  501  502 -0.00000000000E+00 -0.00000000000E+00 -0.15233920065E+03  0.15233920065E+03  0.00000000000E+00 0. -1.
         25    1    1    2    0    0  0.88526509321E+02  0.19914394570E+02  0.66109472118E+02  0.16801484538E+03  0.12500000000E+03 0.  0.
         25    1    1    2    0    0 -0.19627559843E+03 -0.75621550316E+02  0.38099693594E+03  0.45279840394E+03  0.12500000000E+03 0.  0.
         25    1    1    2    0    0  0.10774908911E+03  0.55707155746E+02  0.50333842919E+02  0.18130540297E+03  0.12500000000E+03 0.  0.
</event>
<event>
 5    0  0.5619558E-005  0.2735132E+03  0.7546771E-02  0.1099286E+00
         21   -1    0    0  502  501  0.00000000000E+00  0.00000000000E+00  0.78003143805E+02  0.78003143805E+02  0.00000000000E+00 0. -1.
         21   -1    0    0  501  502 -0.00000000000E+00 -0.00000000000E+00 -0.95905677347E+03  0.95905677347E+03  0.00000000000E+00 0. -1.
         25    1    1    2    0    0 -0.13976947689E+02  0.47706194035E+02 -0.13752609828E+03  0.19237895863E+03  0.12500000000E+03 0.  0.
         25    1    1    2    0    0 -0.11070036458E+03  0.76956570570E+02 -0.36907889014E+03  0.41233616337E+03  0.12500000000E+03 0.  0.
         25    1    1    2    0    0  0.12467731227E+03 -0.12466276461E+03 -0.37444864125E+03  0.43234479528E+03  0.12500000000E+03 0.  0.
</event>
<event>
 5    0  0.5619558E-005  0.3065619E+03  0.7546771E-02  0.1082006E+00
         21   -1    0    0  502  501  0.00000000000E+00  0.00000000000E+00  0.89086809137E+03  0.89086809137E+03  0.00000000000E+00 0.  1.
         21   -1    0    0  501  502 -0.00000000000E+00 -0.00000000000E+00 -0.10549279835E+03  0.10549279835E+03  0.00000000000E+00 0.  1.
         25    1    1    2    0    0  0.17519873553E+03 -0.51011807291E+02  0.27906483319E+03  0.35608844763E+03  0.12500000000E+03 0.  0.
         25    1    1    2    0    0 -0.10657384563E+03  0.13681912074E+03  0.35993386336E+03  0.41863449735E+03  0.12500000000E+03 0.  0.
         25    1    1    2    0    0 -0.68624889894E+02 -0.85807313451E+02  0.14637659647E+03  0.22163794474E+03  0.12500000000E+03 0.  0.
</event>
<event>
 5    0  0.5619558E-005  0.2708630E+03  0.7546771E-02  0.1100787E+00
         21   -1    0    0  502  501  0.00000000000E+00  0.00000000000E+00  0.31003122909E+03  0.31003122909E+03  0.00000000000E+00 0.  1.
         21   -1    0    0  501  502 -0.00000000000E+00 -0.00000000000E+00 -0.23664320850E+03  0.23664320850E+03  0.00000000000E+00 0.  1.
         25    1    1    2    0    0 -0.31435608090E+02  0.50080153841E+02  0.10740335559E+03  0.17509054816E+03  0.12500000000E+03 0.  0.
         25    1    1    2    0    0  0.78660488796E+02  0.43410653715E+02  0.79140079686E+02  0.17308988869E+03  0.12500000000E+03 0.  0.
         25    1    1    2    0    0 -0.47224880707E+02 -0.93490807556E+02 -0.11315541469E+03  0.19849400074E+03  0.12500000000E+03 0.  0.
</event>
<event>
 5    0  0.5619558E-005  0.5188365E+03  0.7546771E-02  0.1008976E+00
         21   -1    0    0  502  501  0.00000000000E+00  0.00000000000E+00  0.19555344695E+03  0.19555344695E+03  0.00000000000E+00 0. -1.
         21   -1    0    0  501  502 -0.00000000000E+00 -0.00000000000E+00 -0.13765612838E+04  0.13765612838E+04  0.00000000000E+00 0. -1.
         25    1    1    2    0    0  0.20124666092E+02  0.13772475250E+03  0.13863033212E+02  0.18759076024E+03  0.12500000000E+03 0.  0.
         25    1    1    2    0    0  0.48915521994E+02  0.10167793113E+03 -0.11522986721E+02  0.16878657883E+03  0.12500000000E+03 0.  0.
         25    1    1    2    0    0 -0.69040188087E+02 -0.23940268363E+03 -0.11833478834E+04  0.12157373917E+04  0.12500000000E+03 0.  0.
</event>
<event>
 5    0  0.5619558E-005  0.4046833E+03  0.7546771E-02  0.1042170E+00
         21   -1    0    0  502  501  0.00000000000E+00  0.00000000000E+00  0.33650157438E+03  0.33650157438E+03  0.00000000000E+00 0.  1.
         21   -1    0    0  501  502 -0.00000000000E+00 -0.00000000000E+00 -0.48667988033E+03  0.48667988033E+03  0.00000000000E+00 0.  1.
         25    1    1    2    0    0 -0.18805326174E+03 -0.22769778155E+02 -0.14776568142E+03  0.27081762988E+03  0.12500000000E+03 0.  0.
         25    1    1    2    0    0 -0.35676720183E+02 -0.12558291583E+03  0.13530891671E+03  0.22578175314E+03  0.12500000000E+03 0.  0.
         25    1    1    2    0    0  0.22372998192E+03  0.14835269399E+03 -0.13772154123E+03  0.32658207168E+03  0.12500000000E+03 0.  0.
</event>
<event>
 5    0  0.5619558E-005  0.3681277E+03  0.7546771E-02  0.1055411E+00
         21   -1    0    0  502  501  0.00000000000E+00  0.00000000000E+00  0.76094972910E+03  0.76094972910E+03  0.00000000000E+00 0. -1.
         21   -1    0    0  501  502 -0.00000000000E+00 -0.00000000000E+00 -0.17809063881E+03  0.17809063881E+03  0.00000000000E+00 0. -1.
         25    1    1    2    0    0  0.23027436605E+03 -0.17161188564E+03  0.13132562715E+03  0.33962971498E+03  0.12500000000E+03 0.  0.
         25    1    1    2    0    0 -0.10970200596E+03  0.29870873006E+02  0.17232503337E+03  0.24134563657E+03  0.12500000000E+03 0.  0.
         25    1    1    2    0    0 -0.12057236009E+03  0.14174101263E+03  0.27920842977E+03  0.35806501635E+03  0.12500000000E+03 0.  0.
</event>
<event>
 5    0  0.5619558E-005  0.3902558E+03  0.7546771E-02  0.1047207E+00
         21   -1    0    0  502  501  0.00000000000E+00  0.00000000000E+00  0.35646994017E+03  0.35646994017E+03  0.00000000000E+00 0.  1.
         21   -1    0    0  501  502 -0.00000000000E+00 -0.00000000000E+00 -0.42724376900E+03  0.42724376900E+03  0.00000000000E+00 0.  1.
         25    1    1    2    0    0 -0.98657770915E+02 -0.40078072269E+02  0.38307509703E+02  0.16861812755E+03  0.12500000000E+03 0.  0.
         25    1    1    2    0    0  0.21153877078E+03 -0.18187646710E+03 -0.13716096285E+03  0.33506093559E+03  0.12500000000E+03 0.  0.
         25    1    1    2    0    0 -0.11288099987E+03  0.22195453937E+03  0.28079624313E+02  0.28003464603E+03  0.12500000000E+03 0.  0.
</event>
<event>
 5    0  0.5619558E-005  0.3402806E+03  0.7546771E-02  0.1066676E+00
         21   -1    0    0  502  501  0.00000000000E+00  0.00000000000E+00  0.19423631124E+03  0.19423631124E+03  0.00000000000E+00 0. -1.
         21   -1    0    0  501  502 -0.00000000000E+00 -0.00000000000E+00 -0.59613401518E+03  0.59613401518E+03  0.00000000000E+00 0. -1.
         25    1    1    2    0    0  0.11417274810E+01 -0.12646379526E+03  0.56007315103E+02  0.18643018639E+03  0.12500000000E+03 0.  0.
         25    1    1    2    0    0 -0.37248810842E+02 -0.57398257658E+02 -0.78451500257E+02  0.16267043918E+03  0.12500000000E+03 0.  0.
         25    1    1    2    0    0  0.36107083361E+02  0.18386205292E+03 -0.37945351878E+03  0.44126970085E+03  0.12500000000E+03 0.  0.
</event>
<event>
 5    0  0.5619558E-005  0.3176336E+03  0.7546771E-02  0.1076744E+00
         21   -1    0    0  502  501  0.00000000000E+00  0.00000000000E+00  0.21746045892E+03  0.21746045892E+03  0.00000000000E+00 0. -1.
         21   -1    0    0  501  502 -0.00000000000E+00 -0.00000000000E+00 -0.46395155915E+03  0.46395155915E+03  0.00000000000E+00 0. -1.
         25    1    1    2    0    0 -0.41681107128E+01  0.18761815162E+03 -0.87575893314E+00  0.22548550046E+03  0.12500000000E+03 0.  0.
         25    1    1    2    0    0  0.85551810239E+02 -0.15652287990E+02 -0.13190686620E+03  0.20146594676E+03  0.12500000000E+03 0.  0.
         25    1    1    2    0    0 -0.81383699527E+02 -0.17196586363E+03 -0.11370847510E+03  0.25446057084E+03  0.12500000000E+03 0.  0.
</event>
<event>
 5    0  0.5619558E-005  0.2897775E+03  0.7546771E-02  0.1090465E+00
         21   -1    0    0  502  501  0.00000000000E+00  0.00000000000E+00  0.15119439209E+04  0.15119439209E+04  0.00000000000E+00 0.  1.
         21   -1    0    0  501  502 -0.00000000000E+00 -0.00000000000E+00 -0.55538439278E+02  0.55538439278E+02  0.00000000000E+00 0.  1.
         25    1    1    2    0    0 -0.32334335766E+02  0.12071417340E+03  0.87852943026E+03  0.89613413101E+03  0.12500000000E+03 0.  0.
         25    1    1    2    0    0  0.29075783985E+02  0.34698148083E+02  0.15793677837E+03  0.20644221627E+03  0.12500000000E+03 0.  0.
         25    1    1    2    0    0  0.32585517812E+01 -0.15541232148E+03  0.41993927296E+03  0.46490601287E+03  0.12500000000E+03 0.  0.
</event>
<event>
 5    0  0.5619558E-005  0.3126062E+03  0.7546771E-02  0.1079103E+00
         21   -1    0    0  502  501  0.00000000000E+00  0.00000000000E+00  0.23157182279E+03  0.23157182279E+03  0.00000000000E+00 0.  1.
         21   -1    0    0  501  502 -0.00000000000E+00 -0.00000000000E+00 -0.42199708116E+03  0.42199708116E+03  0.00000000000E+00 0.  1.
         25    1    1    2    0    0  0.69323229518E+02 -0.11647674038E+03 -0.19400257752E+03  0.26764629884E+03  0.12500000000E+03 0.  0.
         25    1    1    2    0    0  0.88833728547E+02  0.95934108955E+02 -0.19700486524E+02  0.18195574670E+03  0.12500000000E+03 0.  0.
         25    1    1    2    0    0 -0.15815695806E+03  0.20542631424E+02  0.23277805678E+02  0.20396685840E+03  0.12500000000E+03 0.  0.
</event>
<event>
 5    0  0.5619558E-005  0.6280654E+03  0.7546771E-02  0.9848831E-01
         21   -1    0    0  502  501  0.00000000000E+00  0.00000000000E+00  0.15678355614E+04  0.15678355614E+04  0.00000000000E+00 0.  1.
         21   -1    0    0  501  502 -0.00000000000E+00 -0.00000000000E+00 -0.25159918731E+03  0.25159918731E+03  0.00000000000E+00 0.  1.
         25    1    1    2    0    0 -0.17603389456E+03 -0.16771344049E+02  0.12996531583E+04  0.13175706971E+04  0.12500000000E+03 0.  0.
         25    1    1    2    0    0 -0.41599655587E+02  0.36918292374E+02  0.16125585596E+03  0.21147563154E+03  0.12500000000E+03 0.  0.
         25    1    1    2    0    0  0.21763355015E+03 -0.20146948325E+02 -0.14467264018E+03  0.29038842004E+03  0.12500000000E+03 0.  0.
</event>
<event>
 5    0  0.5619558E-005  0.4612216E+03  0.7546771E-02  0.1024428E+00
         21   -1    0    0  502  501  0.00000000000E+00  0.00000000000E+00  0.27480492332E+03  0.27480492332E+03  0.00000000000E+00 0.  1.
         21   -1    0    0  501  502 -0.00000000000E+00 -0.00000000000E+00 -0.77409604932E+03  0.77409604932E+03  0.00000000000E+00 0.  1.
         25    1    1    2    0    0 -0.14546247202E+03  0.13964403212E+03 -0.95192346139E+02  0.25562935910E+03  0.12500000000E+03 0.  0.
         25    1    1    2    0    0  0.20173145344E+03  0.14346435307E+03 -0.38982318170E+03  0.47839806949E+03  0.12500000000E+03 0.  0.
         25    1    1    2    0    0 -0.56268981424E+02 -0.28310838518E+03 -0.14275598163E+02  0.31487354404E+03  0.12500000000E+03 0.  0.
</event>
<event>
 5    0  0.5619558E-005  0.2494883E+03  0.7546771E-02  0.1113629E+00
         21   -1    0    0  502  501  0.00000000000E+00  0.00000000000E+00  0.45314786753E+02  0.45314786753E+02  0.00000000000E+00 0. -1.
         21   -1    0    0  501  502 -0.00000000000E+00 -0.00000000000E+00 -0.13736007868E+04  0.13736007868E+04  0.00000000000E+00 0. -1.
         25    1    1    2    0    0 -0.72061221634E+02  0.51623226633E+02 -0.19515613625E+03  0.24813039860E+03  0.12500000000E+03 0.  0.
         25    1    1    2    0    0 -0.44258909944E+01  0.18369708087E+02 -0.38475252430E+03  0.40498955498E+03  0.12500000000E+03 0.  0.
         25    1    1    2    0    0  0.76487112629E+02 -0.69992934720E+02 -0.74837733952E+03  0.76579562000E+03  0.12500000000E+03 0.  0.
</event>
<event>
 5    0  0.5619558E-005  0.2557252E+03  0.7546771E-02  0.1109739E+00
         21   -1    0    0  502  501  0.00000000000E+00  0.00000000000E+00  0.31359383949E+03  0.31359383949E+03  0.00000000000E+00 0. -1.
         21   -1    0    0  501  502 -0.00000000000E+00 -0.00000000000E+00 -0.20853533062E+03  0.20853533062E+03  0.00000000000E+00 0. -1.
         25    1    1    2    0    0  0.53835179723E+01 -0.57848065586E+02 -0.47224502282E+02  0.14570701621E+03  0.12500000000E+03 0.  0.
         25    1    1    2    0    0 -0.11260780250E+03  0.24293908932E+02  0.41041672785E+02  0.17487175330E+03  0.12500000000E+03 0.  0.
         25    1    1    2    0    0  0.10722428453E+03  0.33554156654E+02  0.11124133836E+03  0.20155040060E+03  0.12500000000E+03 0.  0.
</event>
<event>
 5    0  0.5619558E-005  0.4297215E+03  0.7546771E-02  0.1033948E+00
         21   -1    0    0  502  501  0.00000000000E+00  0.00000000000E+00  0.28960427371E+03  0.28960427371E+03  0.00000000000E+00 0. -1.
         21   -1    0    0  501  502 -0.00000000000E+00 -0.00000000000E+00 -0.63763076273E+03  0.63763076273E+03  0.00000000000E+00 0. -1.
         25    1    1    2    0    0  0.78543352352E+02  0.27346303325E+03 -0.24498257804E+02  0.31173105939E+03  0.12500000000E+03 0.  0.
         25    1    1    2    0    0 -0.20703747968E+02 -0.34230694428E+03 -0.26376442703E+03  0.45033250188E+03  0.12500000000E+03 0.  0.
         25    1    1    2    0    0 -0.57839604383E+02  0.68843911029E+02 -0.59763804180E+02  0.16517147517E+03  0.12500000000E+03 0.  0.
</event>
<event>
 5    0  0.5619558E-005  0.2636708E+03  0.7546771E-02  0.1104958E+00
         21   -1    0    0  502  501  0.00000000000E+00  0.00000000000E+00  0.36854716575E+03  0.36854716575E+03  0.00000000000E+00 0.  1.
         21   -1    0    0  501  502 -0.00000000000E+00 -0.00000000000E+00 -0.18863873175E+03  0.18863873175E+03  0.00000000000E+00 0.  1.
         25    1    1    2    0    0 -0.21510132673E+01  0.28777372064E+02 -0.66049376851E+02  0.14429235664E+03  0.12500000000E+03 0.  0.
         25    1    1    2    0    0 -0.91685272045E+02  0.32150550610E+02  0.81891442023E+02  0.17824436959E+03  0.12500000000E+03 0.  0.
         25    1    1    2    0    0  0.93836285312E+02 -0.60927922674E+02  0.16406636882E+03  0.23464917128E+03  0.12500000000E+03 0.  0.
</event>
<event>
 5    0  0.5874652E-005  0.3393992E+03  0.7546771E-02  0.1067052E+00
         21   -1    0    0  502  501  0.00000000000E+00  0.00000000000E+00  0.90665131590E+03  0.90665131590E+03  0.00000000000E+00 0. -1.
         21   -1    0    0  501  502 -0.00000000000E+00 -0.00000000000E+00 -0.12705197553E+03  0.12705197553E+03  0.00000000000E+00 0. -1.
         25    1    1    2    0    0  0.47825043251E+02  0.18427389743E+02 -0.81216601800E+01  0.13534313732E+03  0.12500000000E+03 0.  0.
         25    1    1    2    0    0  0.66287747881E+02  0.13178039958E+03  0.25870477994E+03  0.32297569939E+03  0.12500000000E+03 0.  0.
         25    1    1    2    0    0 -0.11411279113E+03 -0.15020778932E+03  0.52901622060E+03  0.57538445472E+03  0.12500000000E+03 0.  0.
</event>
<event>
 5    0  0.5619558E-005  0.2511345E+03  0.7546771E-02  0.1112590E+00
         21   -1    0    0  502  501  0.00000000000E+00  0.00000000000E+00  0.16662967880E+03  0.16662967880E+03  0.00000000000E+00 0.  1.
         21   -1    0    0  501  502 -0.00000000000E+00 -0.00000000000E+00 -0.37849529024E+03  0.37849529024E+03  0.00000000000E+00 0.  1.
         25    1    1    2    0    0  0.16321244271E+02 -0.40791904404E+02 -0.10704564525E+03  0.17033535348E+03  0.12500000000E+03 0.  0.
         25    1    1    2    0    0  0.10672548206E+03  0.38059747892E+02 -0.10621333221E+03  0.19936184406E+03  0.12500000000E+03 0.  0.
         25    1    1    2    0    0 -0.12304672633E+03  0.27321565118E+01  0.13933660234E+01  0.17542777149E+03  0.12500000000E+03 0.  0.
</event>
<event>
 5    0  0.5619558E-005  0.2435758E+03  0.7546771E-02  0.1117433E+00
         21   -1    0    0  502  501  0.00000000000E+00  0.00000000000E+00  0.65962001806E+03  0.65962001806E+03  0.00000000000E+00 0.  1.
         21   -1    0    0  501  502 -0.00000000000E+00 -0.00000000000E+00 -0.89944480712E+02  0.89944480712E+02  0.00000000000E+00 0.  1.
         25    1    1    2    0    0  0.73964706416E+02 -0.12838820365E+02  0.15970146226E+03  0.21625256103E+03  0.12500000000E+03 0.  0.
         25    1    1    2    0    0 -0.47447656211E+02 -0.82658461036E+01  0.37712993379E+02  0.13916491714E+03  0.12500000000E+03 0.  0.
         25    1    1    2    0    0 -0.26517050205E+02  0.21104666468E+02  0.37226108171E+03  0.39414702061E+03  0.12500000000E+03 0.  0.
</event>
<event>
 5    0  0.5619558E-005  0.3595591E+03  0.7546771E-02  0.1058759E+00
         21   -1    0    0  502  501  0.00000000000E+00  0.00000000000E+00  0.40483293320E+03  0.40483293320E+03  0.00000000000E+00 0.  1.
         21   -1    0    0  501  502 -0.00000000000E+00 -0.00000000000E+00 -0.31934830798E+03  0.31934830798E+03  0.00000000000E+00 0.  1.
         25    1    1    2    0    0  0.19664118812E+02  0.46392428076E+02 -0.11473878047E+03  0.17699978162E+03  0.12500000000E+03 0.  0.
         25    1    1    2    0    0  0.16684874494E+03  0.41288518288E+01  0.23528309657E+03  0.31438620618E+03  0.12500000000E+03 0.  0.
         25    1    1    2    0    0 -0.18651286375E+03 -0.50521279905E+02 -0.35059690885E+02  0.23279525337E+03  0.12500000000E+03 0.  0.
</event>
<event>
 5    0  0.5619558E-005  0.3374244E+03  0.7546771E-02  0.1067898E+00
         21   -1    0    0  502  501  0.00000000000E+00  0.00000000000E+00  0.20597945785E+03  0.20597945785E+03  0.00000000000E+00 0.  1.
         21   -1    0    0  501  502 -0.00000000000E+00 -0.00000000000E+00 -0.55275054249E+03  0.55275054249E+03  0.00000000000E+00 0.  1.
         25    1    1    2    0    0  0.79689008395E+02 -0.22296739477E+02 -0.56590654995E+02  0.16023415642E+03  0.12500000000E+03 0.  0.
         25    1    1    2    0    0  0.78266931026E+02  0.14531226051E+03 -0.29738674743E+03  0.36236065334E+03  0.12500000000E+03 0.  0.
         25    1    1    2    0    0 -0.15795593942E+03 -0.12301552103E+03  0.72063177747E+01  0.23613519058E+03  0.12500000000E+03 0.  0.
</event>
<event>
 5    0  0.5619558E-005  0.2539467E+03  0.7546771E-02  0.1110836E+00
         21   -1    0    0  502  501  0.00000000000E+00  0.00000000000E+00  0.96627004742E+02  0.96627004742E+02  0.00000000000E+00 0. -1.
         21   -1    0    0  501  502 -0.00000000000E+00 -0.00000000000E+00 -0.66740048521E+03  0.66740048521E+03  0.00000000000E+00 0. -1.
         25    1    1    2    0    0 -0.11873045977E+03 -0.73154303571E+02 -0.20515952967E+03  0.27778392111E+03  0.12500000000E+03 0.  0.
         25    1    1    2    0    0  0.11124347354E+03  0.27885243654E+01 -0.25471469806E+03  0.30477444722E+03  0.12500000000E+03 0.  0.
         25    1    1    2    0    0  0.74869862357E+01  0.70365779206E+02 -0.11089925274E+03  0.18146912163E+03  0.12500000000E+03 0.  0.
</event>
<event>
 5    0  0.5619558E-005  0.4552194E+03  0.7546771E-02  0.1026177E+00
         21   -1    0    0  502  501  0.00000000000E+00  0.00000000000E+00  0.49515504399E+03  0.49515504399E+03  0.00000000000E+00 0.  1.
         21   -1    0    0  501  502 -0.00000000000E+00 -0.00000000000E+00 -0.41850471904E+03  0.41850471904E+03  0.00000000000E+00 0.  1.
         25    1    1    2    0    0 -0.60309286398E+02 -0.18147379833E+03  0.12142312470E+03  0.25872480499E+03  0.12500000000E+03 0.  0.
         25    1    1    2    0    0  0.87778083596E+02  0.42518131235E+02 -0.29886141537E+03  0.33831335924E+03  0.12500000000E+03 0.  0.
         25    1    1    2    0    0 -0.27468797199E+02  0.13895566710E+03  0.25408861561E+03  0.31662159879E+03  0.12500000000E+03 0.  0.
</event>
<event>
 5    0  0.5619558E-005  0.3802767E+03  0.7546771E-02  0.1050832E+00
         21   -1    0    0  502  501  0.00000000000E+00  0.00000000000E+00  0.10616108880E+03  0.10616108880E+03  0.00000000000E+00 0.  1.
         21   -1    0    0  501  502 -0.00000000000E+00 -0.00000000000E+00 -0.13621789647E+04  0.13621789647E+04  0.00000000000E+00 0.  1.
         25    1    1    2    0    0  0.18762599742E+03 -0.95605267319E+02 -0.75050764521E+03  0.78944955986E+03  0.12500000000E+03 0.  0.
         25    1    1    2    0    0 -0.67930333732E+01  0.15098521445E+03 -0.11503446585E+03  0.22737767836E+03  0.12500000000E+03 0.  0.
         25    1    1    2    0    0 -0.18083296405E+03 -0.55379947128E+02 -0.39047576480E+03  0.45151281524E+03  0.12500000000E+03 0.  0.
</event>
<event>
 5    0  0.5619558E-005  0.2923546E+03  0.7546771E-02  0.1089126E+00
         21   -1    0    0  502  501  0.00000000000E+00  0.00000000000E+00  0.45261973560E+03  0.45261973560E+03  0.00000000000E+00 0.  1.
         21   -1    0    0  501  502 -0.00000000000E+00 -0.00000000000E+00 -0.18883672799E+03  0.18883672799E+03  0.00000000000E+00 0.  1.
         25    1    1    2    0    0 -0.10560417543E+03  0.78176487463E+02  0.27621390048E+03  0.33042839449E+03  0.12500000000E+03 0.  0.
         25    1    1    2    0    0  0.39212561135E+02  0.34064492847E+01 -0.55128810926E+02  0.14217388875E+03  0.12500000000E+03 0.  0.
         25    1    1    2    0    0  0.66391614299E+02 -0.81582936748E+02  0.42697918050E+02  0.16885418036E+03  0.12500000000E+03 0.  0.
</event>
<event>
 5    0  0.5619558E-005  0.4265506E+03  0.7546771E-02  0.1034955E+00
         21   -1    0    0  502  501  0.00000000000E+00  0.00000000000E+00  0.17355842956E+04  0.17355842956E+04  0.00000000000E+00 0. -1.
         21   -1    0    0  501  502 -0.00000000000E+00 -0.00000000000E+00 -0.10483236998E+03  0.10483236998E+03  0.00000000000E+00 0. -1.
         25    1    1    2    0    0 -0.10580084180E+03  0.11381252628E+03  0.33618508830E+03  0.39088684151E+03  0.12500000000E+03 0.  0.
         25    1    1    2    0    0 -0.76478589265E+01  0.20481729575E+03  0.81439343319E+03  0.84904079902E+03  0.12500000000E+03 0.  0.
         25    1    1    2    0    0  0.11344870073E+03 -0.31862982203E+03  0.48017340414E+03  0.60048902507E+03  0.12500000000E+03 0.  0.
</event>
<event>
 5    0  0.5619558E-005  0.3546501E+03  0.7546771E-02  0.1060722E+00
         21   -1    0    0  502  501  0.00000000000E+00  0.00000000000E+00  0.77556683255E+02  0.77556683255E+02  0.00000000000E+00 0.  1.
         21   -1    0    0  501  502 -0.00000000000E+00 -0.00000000000E+00 -0.16217385854E+04  0.16217385854E+04  0.00000000000E+00 0.  1.
         25    1    1    2    0    0  0.19596882033E+03 -0.12243449717E+03 -0.41452012548E+03  0.49076055166E+03  0.12500000000E+03 0.  0.
         25    1    1    2    0    0 -0.10760365552E+03 -0.34918783843E+02 -0.76107827620E+03  0.77952742778E+03  0.12500000000E+03 0.  0.
         25    1    1    2    0    0 -0.88365164813E+02  0.15735328101E+03 -0.36858350050E+03  0.42900728926E+03  0.12500000000E+03 0.  0.
</event>
<event>
 5    0  0.5619558E-005  0.3299956E+03  0.7546771E-02  0.1071139E+00
         21   -1    0    0  502  501  0.00000000000E+00  0.00000000000E+00  0.26798255590E+03  0.26798255590E+03  0.00000000000E+00 0.  1.
         21   -1    0    0  501  502 -0.00000000000E+00 -0.00000000000E+00 -0.40635882274E+03  0.40635882274E+03  0.00000000000E+00 0.  1.
         25    1    1    2    0    0  0.95668720395E+02 -0.58659749723E+02  0.73586799240E+02  0.18339434921E+03  0.12500000000E+03 0.  0.
         25    1    1    2    0    0 -0.90660901914E+02  0.34122874793E+02  0.76423187204E+02  0.17563961188E+03  0.12500000000E+03 0.  0.
         25    1    1    2    0    0 -0.50078184806E+01  0.24536874930E+02 -0.28838625329E+03  0.31530741755E+03  0.12500000000E+03 0.  0.
</event>
<event>
 5    0  0.5619558E-005  0.5156585E+03  0.7546771E-02  0.1009771E+00
         21   -1    0    0  502  501  0.00000000000E+00  0.00000000000E+00  0.58853767922E+03  0.58853767922E+03  0.00000000000E+00 0.  1.
         21   -1    0    0  501  502 -0.00000000000E+00 -0.00000000000E+00 -0.45180402852E+03  0.45180402852E+03  0.00000000000E+00 0.  1.
         25    1    1    2    0    0 -0.34040370592E+03  0.19853718741E+03  0.12875682164E+03  0.43300694788E+03  0.12500000000E+03 0.  0.
         25    1    1    2    0    0  0.11535796578E+03  0.40619161764E+02  0.14798623182E+03  0.22909015994E+03  0.12500000000E+03 0.  0.
         25    1    1    2    0    0  0.22504574014E+03 -0.23915634918E+03 -0.14000940276E+03  0.37824459992E+03  0.12500000000E+03 0.  0.
</event>
<event>
 5    0  0.5619558E-005  0.5058549E+03  0.7546771E-02  0.1012262E+00
         21   -1    0    0  502  501  0.00000000000E+00  0.00000000000E+00  0.24180291483E+04  0.24180291483E+04  0.00000000000E+00 0. -1.
         21   -1    0    0  501  502 -0.00000000000E+00 -0.00000000000E+00 -0.10582550788E+03  0.10582550788E+03  0.00000000000E+00 0. -1.
         25    1    1    2    0    0 -0.16567625658E+02  0.24855183733E+03  0.17704287632E+04  0.17922319904E+04  0.12500000000E+03 0.  0.
         25    1    1    2    0    0 -0.15878684102E+02 -0.21293308725E+03  0.94729468550E+02  0.26493641589E+03  0.12500000000E+03 0.  0.
         25    1    1    2    0    0  0.32446309760E+02 -0.35618750087E+02  0.44704540871E+03  0.46668624987E+03  0.12500000000E+03 0.  0.
</event>
<event>
 5    0  0.5619558E-005  0.2857503E+03  0.7546771E-02  0.1092589E+00
         21   -1    0    0  502  501  0.00000000000E+00  0.00000000000E+00  0.32472133025E+03  0.32472133025E+03  0.00000000000E+00 0.  1.
         21   -1    0    0  501  502 -0.00000000000E+00 -0.00000000000E+00 -0.25145629033E+03  0.25145629033E+03  0.00000000000E+00 0.  1.
         25    1    1    2    0    0  0.40570982109E+02  0.67154576302E+02 -0.38192897336E+02  0.15244487238E+03  0.12500000000E+03 0.  0.
         25    1    1    2    0    0 -0.17517111081E+03 -0.70006672860E+01  0.51936365054E+02  0.22148659874E+03  0.12500000000E+03 0.  0.
         25    1    1    2    0    0  0.13460012870E+03 -0.60153909016E+02  0.59521572193E+02  0.20224614946E+03  0.12500000000E+03 0.  0.
</event>
<event>
 5    0  0.5619558E-005  0.3853718E+03  0.7546771E-02  0.1048966E+00
         21   -1    0    0  502  501  0.00000000000E+00  0.00000000000E+00  0.75723982974E+03  0.75723982974E+03  0.00000000000E+00 0. -1.
         21   -1    0    0  501  502 -0.00000000000E+00 -0.00000000000E+00 -0.19612202047E+03  0.19612202047E+03  0.00000000000E+00 0. -1.
         25    1    1    2    0    0 -0.99564537110E+02 -0.53534351089E+02  0.20956124923E+03  0.26892367128E+03  0.12500000000E+03 0.  0.
         25    1    1    2    0    0 -0.18262008574E+02 -0.28527869832E+02  0.45130172303E+03  0.46951633148E+03  0.12500000000E+03 0.  0.
         25    1    1    2    0    0  0.11782654568E+03  0.82062220921E+02 -0.99745162996E+02  0.21492184745E+03  0.12500000000E+03 0.  0.
</event>
<event>
 5    0  0.5619558E-005  0.3211603E+03  0.7546771E-02  0.1075117E+00
         21   -1    0    0  502  501  0.00000000000E+00  0.00000000000E+00  0.46871754146E+02  0.46871754146E+02  0.00000000000E+00 0.  1.
         21   -1    0    0  501  502 -0.00000000000E+00 -0.00000000000E+00 -0.22005567375E+04  0.22005567375E+04  0.00000000000E+00 0.  1.
         25    1    1    2    0    0  0.30029224944E+02 -0.14352380131E+03 -0.29639704787E+03  0.35352092708E+03  0.12500000000E+03 0.  0.
         25    1    1    2    0    0  0.20418917108E+02  0.16046952890E+03 -0.71762698167E+03  0.74617751688E+03  0.12500000000E+03 0.  0.
         25    1    1    2    0    0 -0.50448142053E+02 -0.16945727588E+02 -0.11396609538E+04  0.11477300477E+04  0.12500000000E+03 0.  0.
</event>
<event>
 5    0  0.5619558E-005  0.4385499E+03  0.7546771E-02  0.1031193E+00
         21   -1    0    0  502  501  0.00000000000E+00  0.00000000000E+00  0.72999466231E+02  0.72999466231E+02  0.00000000000E+00 0.  1.
         21   -1    0    0  501  502 -0.00000000000E+00 -0.00000000000E+00 -0.26346221338E+04  0.26346221338E+04  0.00000000000E+00 0.  1.
         25    1    1    2    0    0 -0.10542627560E+03  0.12989731095E+02 -0.15568239857E+04  0.15654422235E+04  0.12500000000E+03 0.  0.
         25    1    1    2    0    0 -0.17466544539E+03  0.68371565821E+02 -0.43802953949E+03  0.49262314835E+03  0.12500000000E+03 0.  0.
         25    1    1    2    0    0  0.28009172099E+03 -0.81361296915E+02 -0.56676914238E+03  0.64955622818E+03  0.12500000000E+03 0.  0.
</event>
<event>
 5    0  0.5619558E-005  0.4280993E+03  0.7546771E-02  0.1034462E+00
         21   -1    0    0  502  501  0.00000000000E+00  0.00000000000E+00  0.62964934928E+03  0.62964934928E+03  0.00000000000E+00 0. -1.
         21   -1    0    0  501  502 -0.00000000000E+00 -0.00000000000E+00 -0.29106521184E+03  0.29106521184E+03  0.00000000000E+00 0. -1.
         25    1    1    2    0    0 -0.15249625404E+02 -0.11636036230E+03 -0.16043793623E+03  0.23481400378E+03  0.12500000000E+03 0.  0.
         25    1    1    2    0    0 -0.55584216440E+02  0.16767638571E+03  0.48693784830E+03  0.53285874634E+03  0.12500000000E+03 0.  0.
         25    1    1    2    0    0  0.70833841844E+02 -0.51316023417E+02  0.12084225373E+02  0.15304181099E+03  0.12500000000E+03 0.  0.
</event>
<event>
 5    0  0.5619558E-005  0.2707434E+03  0.7546771E-02  0.1100855E+00
         21   -1    0    0  502  501  0.00000000000E+00  0.00000000000E+00  0.14278306825E+03  0.14278306825E+03  0.00000000000E+00 0.  1.
         21   -1    0    0  501  502 -0.00000000000E+00 -0.00000000000E+00 -0.51338014162E+03  0.51338014162E+03  0.00000000000E+00 0.  1.
         25    1    1    2    0    0  0.72942864298E+02 -0.80733926188E+02 -0.13002007592E+03  0.21063914269E+03  0.12500000000E+03 0.  0.
         25    1    1    2    0    0  0.76230681477E+02  0.77152328460E+02 -0.17315593357E+03  0.23952364375E+03  0.12500000000E+03 0.  0.
         25    1    1    2    0    0 -0.14917354577E+03  0.35815977287E+01 -0.67421063877E+02  0.20600042344E+03  0.12500000000E+03 0.  0.
</event>
<event>
 5    0  0.5619558E-005  0.2633574E+03  0.7546771E-02  0.1105143E+00
         21   -1    0    0  502  501  0.00000000000E+00  0.00000000000E+00  0.11223703047E+03  0.11223703047E+03  0.00000000000E+00 0.  1.
         21   -1    0    0  501  502 -0.00000000000E+00 -0.00000000000E+00 -0.61795214445E+03  0.61795214445E+03  0.00000000000E+00 0. -1.
         25    1    1    2    0    0  0.54694296906E+02 -0.13313987394E+03 -0.92679206690E+02  0.21197199697E+03  0.12500000000E+03 0.  0.
         25    1    1    2    0    0 -0.22557585923E+02  0.12175551984E+03 -0.18080108330E+03  0.25228413151E+03  0.12500000000E+03 0.  0.
         25    1    1    2    0    0 -0.32136710983E+02  0.11384354107E+02 -0.23223482399E+03  0.26593304644E+03  0.12500000000E+03 0.  0.
</event>
<event>
 5    0  0.5619558E-005  0.2935874E+03  0.7546771E-02  0.1088491E+00
         21   -1    0    0  502  501  0.00000000000E+00  0.00000000000E+00  0.75511123775E+02  0.75511123775E+02  0.00000000000E+00 0.  1.
         21   -1    0    0  501  502 -0.00000000000E+00 -0.00000000000E+00 -0.11414682938E+04  0.11414682938E+04  0.00000000000E+00 0.  1.
         25    1    1    2    0    0 -0.54521103761E+02  0.13220417927E+03 -0.63905416478E+03  0.66668262411E+03  0.12500000000E+03 0.  0.
         25    1    1    2    0    0  0.96308896573E+02 -0.96991315395E+02 -0.34389753421E+03  0.39060623761E+03  0.12500000000E+03 0.  0.
         25    1    1    2    0    0 -0.41787792812E+02 -0.35212863871E+02 -0.83005471050E+02  0.15969055587E+03  0.12500000000E+03 0.  0.
</event>
<event>
 5    0  0.6005077E-005  0.3516636E+03  0.7546771E-02  0.1061934E+00
         21   -1    0    0  502  501  0.00000000000E+00  0.00000000000E+00  0.21011066335E+03  0.21011066335E+03  0.00000000000E+00 0.  1.
         21   -1    0    0  501  502 -0.00000000000E+00 -0.00000000000E+00 -0.58858159541E+03  0.58858159541E+03  0.00000000000E+00 0.  1.
         25    1    1    2    0    0 -0.51437526805E+02 -0.12337315834E+02  0.51944717218E+02  0.14533162826E+03  0.12500000000E+03 0.  0.
         25    1    1    2    0    0 -0.54469093085E+02 -0.12894225351E+03 -0.39066701765E+03  0.43340362887E+03  0.12500000000E+03 0.  0.
         25    1    1    2    0    0  0.10590661989E+03  0.14127956934E+03 -0.39748631627E+02  0.21995700163E+03  0.12500000000E+03 0.  0.
</event>
<event>
 5    0  0.5619558E-005  0.3804021E+03  0.7546771E-02  0.1050785E+00
         21   -1    0    0  502  501  0.00000000000E+00  0.00000000000E+00  0.31313140905E+03  0.31313140905E+03  0.00000000000E+00 0. -1.
         21   -1    0    0  501  502 -0.00000000000E+00 -0.00000000000E+00 -0.46212463886E+03  0.46212463886E+03  0.00000000000E+00 0. -1.
         25    1    1    2    0    0 -0.65245671509E+02 -0.10549311664E+03  0.75488776342E+02  0.19159684409E+03  0.12500000000E+03 0.  0.
         25    1    1    2    0    0  0.16869795735E+03  0.10326554527E+03 -0.31919455908E+03  0.39576879639E+03  0.12500000000E+03 0.  0.
         25    1    1    2    0    0 -0.10345228584E+03  0.22275713738E+01  0.94712552928E+02  0.18789040743E+03  0.12500000000E+03 0.  0.
</event>
<event>
 5    0  0.5619558E-005  0.4671876E+03  0.7546771E-02  0.1022717E+00
         21   -1    0    0  502  501  0.00000000000E+00  0.00000000000E+00  0.23522320940E+03  0.23522320940E+03  0.00000000000E+00 0.  1.
         21   -1    0    0  501  502 -0.00000000000E+00 -0.00000000000E+00 -0.92790269778E+03  0.92790269778E+03  0.00000000000E+00 0.  1.
         25    1    1    2    0    0  0.12395897971E+03 -0.77412234314E+02 -0.77701219279E+02  0.20741495160E+03  0.12500000000E+03 0.  0.
         25    1    1    2    0    0  0.26041459602E+03  0.12529041415E+03 -0.19238027467E+03  0.36898322425E+03  0.12500000000E+03 0.  0.
         25    1    1    2    0    0 -0.38437357572E+03 -0.47878179833E+02 -0.42259799443E+03  0.58672773133E+03  0.12500000000E+03 0.  0.
</event>
<event>
 5    0  0.5619558E-005  0.6166083E+03  0.7546771E-02  0.9871536E-01
         21   -1    0    0  502  501  0.00000000000E+00  0.00000000000E+00  0.44483273441E+03  0.44483273441E+03  0.00000000000E+00 0.  1.
         21   -1    0    0  501  502 -0.00000000000E+00 -0.00000000000E+00 -0.85471639476E+03  0.85471639476E+03  0.00000000000E+00 0.  1.
         25    1    1    2    0    0  0.24801919259E+03 -0.22370115383E+03  0.10266423098E+03  0.37110735703E+03  0.12500000000E+03 0.  0.
         25    1    1    2    0    0 -0.14190607345E+03  0.42081352178E+03 -0.48691298331E+03  0.67076866885E+03  0.12500000000E+03 0.  0.
         25    1    1    2    0    0 -0.10611311914E+03 -0.19711236795E+03 -0.25634908012E+02  0.25767310329E+03  0.12500000000E+03 0.  0.
</event>
<event>
 5    0  0.5619558E-005  0.4799391E+03  0.7546771E-02  0.1019152E+00
         21   -1    0    0  502  501  0.00000000000E+00  0.00000000000E+00  0.48416181341E+03  0.48416181341E+03  0.00000000000E+00 0. -1.
         21   -1    0    0  501  502 -0.00000000000E+00 -0.00000000000E+00 -0.47575315257E+03  0.47575315257E+03  0.00000000000E+00 0. -1.
         25    1    1    2    0    0 -0.11979400547E+03  0.17716596589E+03  0.19585350524E+01  0.24772407852E+03  0.12500000000E+03 0.  0.
         25    1    1    2    0    0  0.13993684143E+03 -0.20412901438E+02  0.30101873174E+03  0.35529745706E+03  0.12500000000E+03 0.  0.
         25    1    1    2    0    0 -0.20142835960E+02 -0.15675306445E+03 -0.29456860595E+03  0.35689343041E+03  0.12500000000E+03 0.  0.
</event>
<event>
 5    0  0.5619558E-005  0.2457912E+03  0.7546771E-02  0.1115994E+00
         21   -1    0    0  502  501  0.00000000000E+00  0.00000000000E+00  0.44677231577E+02  0.44677231577E+02  0.00000000000E+00 0. -1.
         21   -1    0    0  501  502 -0.00000000000E+00 -0.00000000000E+00 -0.13522173351E+04  0.13522173351E+04  0.00000000000E+00 0.  1.
         25    1    1    2    0    0 -0.72122185966E+02 -0.84843074196E+02 -0.55171223844E+03  0.57655125617E+03  0.12500000000E+03 0.  0.
         25    1    1    2    0    0  0.98907933256E+02  0.92291124795E+02 -0.52503016112E+03  0.55640102540E+03  0.12500000000E+03 0.  0.
         25    1    1    2    0    0 -0.26785747290E+02 -0.74480505984E+01 -0.23079770398E+03  0.26394228513E+03  0.12500000000E+03 0.  0.
</event>
<event>
 5    0  0.5619558E-005  0.2709662E+03  0.7546771E-02  0.1100728E+00
         21   -1    0    0  502  501  0.00000000000E+00  0.00000000000E+00  0.62632846527E+03  0.62632846527E+03  0.00000000000E+00 0.  1.
         21   -1    0    0  501  502 -0.00000000000E+00 -0.00000000000E+00 -0.11722713398E+03  0.11722713398E+03  0.00000000000E+00 0.  1.
         25    1    1    2    0    0 -0.32371719188E+02 -0.30206847067E+01  0.81270731172E+02  0.15260073553E+03  0.12500000000E+03 0.  0.
         25    1    1    2    0    0  0.16386164165E+03  0.57239973140E+02  0.18337677745E+03  0.28174295845E+03  0.12500000000E+03 0.  0.
         25    1    1    2    0    0 -0.13148992246E+03 -0.54219288434E+02  0.24445382267E+03  0.30921190528E+03  0.12500000000E+03 0.  0.
</event>
<event>
 5    0  0.5619558E-005  0.3730001E+03  0.7546771E-02  0.1053552E+00
         21   -1    0    0  502  501  0.00000000000E+00  0.00000000000E+00  0.61065583876E+02  0.61065583876E+02  0.00000000000E+00 0.  1.
         21   -1    0    0  501  502 -0.00000000000E+00 -0.00000000000E+00 -0.22783554623E+04  0.22783554623E+04  0.00000000000E+00 0.  1.
         25    1    1    2    0    0  0.19900124804E+03  0.12245445305E+03 -0.11820609927E+04  0.12113999258E+04  0.12500000000E+03 0.  0.
         25    1    1    2    0    0 -0.16178433262E+03 -0.10015677308E+03 -0.27802875840E+03  0.35934738064E+03  0.12500000000E+03 0.  0.
         25    1    1    2    0    0 -0.37216915425E+02 -0.22297679968E+02 -0.75720012727E+03  0.76867373967E+03  0.12500000000E+03 0.  0.
</event>
<event>
 5    0  0.5619558E-005  0.2595656E+03  0.7546771E-02  0.1107404E+00
         21   -1    0    0  502  501  0.00000000000E+00  0.00000000000E+00  0.60072380725E+03  0.60072380725E+03  0.00000000000E+00 0.  1.
         21   -1    0    0  501  502 -0.00000000000E+00 -0.00000000000E+00 -0.11215524508E+03  0.11215524508E+03  0.00000000000E+00 0.  1.
         25    1    1    2    0    0 -0.38970740621E+02  0.30250537277E+02  0.13331879144E+03  0.18929530839E+03  0.12500000000E+03 0.  0.
         25    1    1    2    0    0 -0.12283162300E+02 -0.14972006271E+03  0.24022836996E+03  0.30967990407E+03  0.12500000000E+03 0.  0.
         25    1    1    2    0    0  0.51253902921E+02  0.11946952543E+03  0.11502140078E+03  0.21390383986E+03  0.12500000000E+03 0.  0.
</event>
<event>
 5    0  0.5619558E-005  0.2722608E+03  0.7546771E-02  0.1099993E+00
         21   -1    0    0  502  501  0.00000000000E+00  0.00000000000E+00  0.27086062882E+03  0.27086062882E+03  0.00000000000E+00 0. -1.
         21   -1    0    0  501  502 -0.00000000000E+00 -0.00000000000E+00 -0.27366813822E+03  0.27366813822E+03  0.00000000000E+00 0. -1.
         25    1    1    2    0    0 -0.68078130785E+02  0.17383812814E+02  0.51968071609E+02  0.15252052093E+03  0.12500000000E+03 0.  0.
         25    1    1    2    0    0  0.17630462377E+03 -0.11340537018E+01  0.28992062014E+01  0.21614349826E+03  0.12500000000E+03 0.  0.
         25    1    1    2    0    0 -0.10822649299E+03 -0.16249759112E+02 -0.57674787217E+02  0.17586474785E+03  0.12500000000E+03 0.  0.
</event>
<event>
 5    0  0.5619558E-005  0.3617559E+03  0.7546771E-02  0.1057891E+00
         21   -1    0    0  502  501  0.00000000000E+00  0.00000000000E+00  0.84693003128E+03  0.84693003128E+03  0.00000000000E+00 0.  1.
         21   -1    0    0  501  502 -0.00000000000E+00 -0.00000000000E+00 -0.15451965110E+03  0.15451965110E+03  0.00000000000E+00 0.  1.
         25    1    1    2    0    0 -0.62668306879E+02 -0.47298209482E+02  0.61903603574E+02  0.16006715292E+03  0.12500000000E+03 0.  0.
         25    1    1    2    0    0  0.68682213238E+02  0.26387717804E+03  0.27672681900E+03  0.40810677997E+03  0.12500000000E+03 0.  0.
         25    1    1    2    0    0 -0.60139063588E+01 -0.21657896855E+03  0.35377995761E+03  0.43327574949E+03  0.12500000000E+03 0.  0.
</event>
<event>
 5    0  0.5619558E-005  0.2417073E+03  0.7546771E-02  0.1118661E+00
         21   -1    0    0  502  501  0.00000000000E+00  0.00000000000E+00  0.13200886964E+04  0.13200886964E+04  0.00000000000E+00 0.  1.
         21   -1    0    0  501  502 -0.00000000000E+00 -0.00000000000E+00 -0.44256436800E+02  0.44256436800E+02  0.00000000000E+00 0.  1.
         25    1    1    2    0    0 -0.28676667742E+02 -0.55120766120E+01  0.89923499006E+03  0.90835086922E+03  0.12500000000E+03 0.  0.
         25    1    1    2    0    0  0.14859903182E+02 -0.29457645263E+01  0.14280233110E+03  0.19038644915E+03  0.12500000000E+03 0.  0.
         25    1    1    2    0    0  0.13816764561E+02  0.84578411383E+01  0.23379493841E+03  0.26560781480E+03  0.12500000000E+03 0.  0.
</event>
<event>
 5    0  0.5619558E-005  0.2204478E+03  0.7546771E-02  0.1133550E+00
         21   -1    0    0  502  501  0.00000000000E+00  0.00000000000E+00  0.13088215976E+03  0.13088215976E+03  0.00000000000E+00 0.  1.
         21   -1    0    0  501  502 -0.00000000000E+00 -0.00000000000E+00 -0.37130518514E+03  0.37130518514E+03  0.00000000000E+00 0.  1.
         25    1    1    2    0    0  0.63469780774E+02  0.22750851582E+01 -0.15712434123E+03  0.21058643758E+03  0.12500000000E+03 0.  0.
         25    1    1    2    0    0 -0.52030804552E+02  0.27521442465E+02 -0.23993463224E+00  0.13816545149E+03  0.12500000000E+03 0.  0.
         25    1    1    2    0    0 -0.11438976222E+02 -0.29796527623E+02 -0.83058749515E+02  0.15343545583E+03  0.12500000000E+03 0.  0.
</event>
<event>
 5    0  0.5619558E-005  0.2494491E+03  0.7546771E-02  0.1113653E+00
         21   -1    0    0  502  501  0.00000000000E+00  0.00000000000E+00  0.26421045918E+03  0.26421045918E+03  0.00000000000E+00 0.  1.
         21   -1    0    0  501  502 -0.00000000000E+00 -0.00000000000E+00 -0.23551251649E+03  0.23551251649E+03  0.00000000000E+00 0.  1.
         25    1    1    2    0    0  0.24395539414E+02 -0.13346432271E+03 -0.90983983450E+01  0.18470421931E+03  0.12500000000E+03 0.  0.
         25    1    1    2    0    0 -0.26892566795E+02  0.13228731111E+03  0.46249603314E+02  0.18970284298E+03  0.12500000000E+03 0.  0.
         25    1    1    2    0    0  0.24970273815E+01  0.11770115949E+01 -0.84532622709E+01  0.12531591338E+03  0.12500000000E+03 0.  0.
</event>
<event>
 5    0  0.6538884E-005  0.2906879E+03  0.7546771E-02  0.1089991E+00
         21   -1    0    0  502  501  0.00000000000E+00  0.00000000000E+00  0.14748919499E+04  0.14748919499E+04  0.00000000000E+00 0.  1.
         21   -1    0    0  501  502 -0.00000000000E+00 -0.00000000000E+00 -0.57291949755E+02  0.57291949755E+02  0.00000000000E+00 0.  1.
         25    1    1    2    0    0 -0.39350094515E+02 -0.88480394641E+02  0.75027910697E+03  0.76676003322E+03  0.12500000000E+03 0.  0.
         25    1    1    2    0    0 -0.45276493771E+02 -0.69101115259E+02  0.34556221060E+03  0.37664727055E+03  0.12500000000E+03 0.  0.
         25    1    1    2    0    0  0.84626588286E+02  0.15758150990E+03  0.32175868262E+03  0.38877659594E+03  0.12500000000E+03 0.  0.
</event>
<event>
 5    0  0.5619558E-005  0.2554541E+03  0.7546771E-02  0.1109906E+00
         21   -1    0    0  502  501  0.00000000000E+00  0.00000000000E+00  0.85002971225E+02  0.85002971225E+02  0.00000000000E+00 0. -1.
         21   -1    0    0  501  502 -0.00000000000E+00 -0.00000000000E+00 -0.76770009639E+03  0.76770009639E+03  0.00000000000E+00 0. -1.
         25    1    1    2    0    0 -0.75116071009E+02  0.10103825911E+03 -0.32671318985E+03  0.37177636067E+03  0.12500000000E+03 0.  0.
         25    1    1    2    0    0  0.10995920131E+03 -0.87863525310E+02 -0.16920576281E+03  0.25311383842E+03  0.12500000000E+03 0.  0.
         25    1    1    2    0    0 -0.34843130306E+02 -0.13174733804E+02 -0.18677817250E+03  0.22781286852E+03  0.12500000000E+03 0.  0.
</event>
<event>
 5    0  0.5619558E-005  0.2823194E+03  0.7546771E-02  0.1094429E+00
         21   -1    0    0  502  501  0.00000000000E+00  0.00000000000E+00  0.13464406768E+03  0.13464406768E+03  0.00000000000E+00 0. -1.
         21   -1    0    0  501  502 -0.00000000000E+00 -0.00000000000E+00 -0.59196250519E+03  0.59196250519E+03  0.00000000000E+00 0. -1.
         25    1    1    2    0    0 -0.83661489717E+02  0.11774101925E+03 -0.85529800348E+02  0.20929056172E+03  0.12500000000E+03 0.  0.
         25    1    1    2    0    0 -0.68302948941E+02 -0.41904525884E+02 -0.14245377235E+03  0.20576530170E+03  0.12500000000E+03 0.  0.
         25    1    1    2    0    0  0.15196443866E+03 -0.75836493367E+02 -0.22933486482E+03  0.31155070946E+03  0.12500000000E+03 0.  0.
</event>
<event>
 5    0  0.5619558E-005  0.6628375E+03  0.7546771E-02  0.9782984E-01
         21   -1    0    0  502  501  0.00000000000E+00  0.00000000000E+00  0.76363190660E+03  0.76363190660E+03  0.00000000000E+00 0.  1.
         21   -1    0    0  501  502 -0.00000000000E+00 -0.00000000000E+00 -0.57534722681E+03  0.57534722681E+03  0.00000000000E+00 0.  1.
         25    1    1    2    0    0  0.55892143305E+02 -0.26312707587E+03 -0.12145855151E+03  0.32052608236E+03  0.12500000000E+03 0.  0.
         25    1    1    2    0    0  0.15887470046E+00  0.59281264574E+03  0.25474743310E+03  0.65722759594E+03  0.12500000000E+03 0.  0.
         25    1    1    2    0    0 -0.56051018006E+02 -0.32968556987E+03  0.54995798207E+02  0.36122545511E+03  0.12500000000E+03 0.  0.
</event>
<event>
 5    0  0.5644930E-005  0.3025084E+03  0.7546771E-02  0.1083993E+00
         21   -1    0    0  502  501  0.00000000000E+00  0.00000000000E+00  0.64088089407E+03  0.64088089407E+03  0.00000000000E+00 0.  1.
         21   -1    0    0  501  502 -0.00000000000E+00 -0.00000000000E+00 -0.14278993426E+03  0.14278993426E+03  0.00000000000E+00 0.  1.
         25    1    1    2    0    0  0.92646627203E+02  0.32987647305E+02  0.26730082527E+03  0.31104069444E+03  0.12500000000E+03 0.  0.
         25    1    1    2    0    0  0.47905666464E+02  0.48433857654E+02  0.22662254200E+03  0.26762579844E+03  0.12500000000E+03 0.  0.
         25    1    1    2    0    0 -0.14055229367E+03 -0.81421504959E+02  0.41675925392E+01  0.20500433545E+03  0.12500000000E+03 0.  0.
</event>
<event>
 5    0  0.5619558E-005  0.3879709E+03  0.7546771E-02  0.1048026E+00
         21   -1    0    0  502  501  0.00000000000E+00  0.00000000000E+00  0.68366737617E+03  0.68366737617E+03  0.00000000000E+00 0. -1.
         21   -1    0    0  501  502 -0.00000000000E+00 -0.00000000000E+00 -0.22016762133E+03  0.22016762133E+03  0.00000000000E+00 0. -1.
         25    1    1    2    0    0  0.99440927694E+02 -0.55934808528E+02  0.27151834190E+03  0.31994438719E+03  0.12500000000E+03 0.  0.
         25    1    1    2    0    0  0.77774713490E+01  0.20931995026E+03 -0.54689923809E+02  0.24998263620E+03  0.12500000000E+03 0.  0.
         25    1    1    2    0    0 -0.10721839904E+03 -0.15338514173E+03  0.24667133675E+03  0.33390797410E+03  0.12500000000E+03 0.  0.
</event>
<event>
 5    0  0.5619558E-005  0.3661396E+03  0.7546771E-02  0.1056179E+00
         21   -1    0    0  502  501  0.00000000000E+00  0.00000000000E+00  0.29050996900E+03  0.29050996900E+03  0.00000000000E+00 0.  1.
         21   -1    0    0  501  502 -0.00000000000E+00 -0.00000000000E+00 -0.46145819598E+03  0.46145819598E+03  0.00000000000E+00 0.  1.
         25    1    1    2    0    0 -0.12016825378E+03 -0.12916594004E+03 -0.17360925336E+03  0.27728941944E+03  0.12500000000E+03 0.  0.
         25    1    1    2    0    0  0.41036382706E+02 -0.11201457727E+03 -0.63531945854E+02  0.18409931659E+03  0.12500000000E+03 0.  0.
         25    1    1    2    0    0  0.79131871076E+02  0.24118051731E+03  0.66192972240E+02  0.29057942894E+03  0.12500000000E+03 0.  0.
</event>
<event>
 5    0  0.5619558E-005  0.2291252E+03  0.7546771E-02  0.1127257E+00
         21   -1    0    0  502  501  0.00000000000E+00  0.00000000000E+00  0.31795805629E+02  0.31795805629E+02  0.00000000000E+00 0.  1.
         21   -1    0    0  501  502 -0.00000000000E+00 -0.00000000000E+00 -0.16511094278E+04  0.16511094278E+04  0.00000000000E+00 0.  1.
         25    1    1    2    0    0 -0.73443546565E+02 -0.32829481879E+02 -0.68209515263E+03  0.69810495390E+03  0.12500000000E+03 0.  0.
         25    1    1    2    0    0  0.91145785092E+02 -0.22694908059E+02 -0.60965807418E+03  0.62938905329E+03  0.12500000000E+03 0.  0.
         25    1    1    2    0    0 -0.17702238528E+02  0.55524389938E+02 -0.32756039532E+03  0.35541122620E+03  0.12500000000E+03 0.  0.
</event>
<event>
 5    0  0.5619558E-005  0.3243877E+03  0.7546771E-02  0.1073647E+00
         21   -1    0    0  502  501  0.00000000000E+00  0.00000000000E+00  0.51219343158E+03  0.51219343158E+03  0.00000000000E+00 0.  1.
         21   -1    0    0  501  502 -0.00000000000E+00 -0.00000000000E+00 -0.20544457815E+03  0.20544457815E+03  0.00000000000E+00 0.  1.
         25    1    1    2    0    0  0.26902210050E+01 -0.59516582871E+02  0.10773765900E+00  0.13847191966E+03  0.12500000000E+03 0.  0.
         25    1    1    2    0    0  0.95116793679E+02 -0.15658263397E+03  0.11702249079E+03  0.25076799846E+03  0.12500000000E+03 0.  0.
         25    1    1    2    0    0 -0.97807014684E+02  0.21609921684E+03  0.18961862498E+03  0.32839809162E+03  0.12500000000E+03 0.  0.
</event>
<event>
 5    0  0.5619558E-005  0.2845744E+03  0.7546771E-02  0.1093216E+00
         21   -1    0    0  502  501  0.00000000000E+00  0.00000000000E+00  0.14783354555E+03  0.14783354555E+03  0.00000000000E+00 0. -1.
         21   -1    0    0  501  502 -0.00000000000E+00 -0.00000000000E+00 -0.54779593843E+03  0.54779593843E+03  0.00000000000E+00 0. -1.
         25    1    1    2    0    0  0.10284385048E+03 -0.73374331528E+02 -0.15227636801E+03  0.23403790796E+03  0.12500000000E+03 0.  0.
         25    1    1    2    0    0 -0.76427779913E+02 -0.87464939310E+02 -0.53243640870E+02  0.17874900404E+03  0.12500000000E+03 0.  0.
         25    1    1    2    0    0 -0.26416070566E+02  0.16083927084E+03 -0.19444238401E+03  0.28284257198E+03  0.12500000000E+03 0.  0.
</event>
<event>
 5    0  0.5619558E-005  0.2987360E+03  0.7546771E-02  0.1085874E+00
         21   -1    0    0  502  501  0.00000000000E+00  0.00000000000E+00  0.26852454241E+03  0.26852454241E+03  0.00000000000E+00 0.  1.
         21   -1    0    0  501  502 -0.00000000000E+00 -0.00000000000E+00 -0.33234663069E+03  0.33234663069E+03  0.00000000000E+00 0.  1.
         25    1    1    2    0    0 -0.16949376385E+03  0.30911751054E+02 -0.48080361985E+02  0.21822097412E+03  0.12500000000E+03 0.  0.
         25    1    1    2    0    0  0.12257107514E+03  0.83276482887E+02 -0.57221635280E+02  0.20213351184E+03  0.12500000000E+03 0.  0.
         25    1    1    2    0    0  0.46922688710E+02 -0.11418823394E+03  0.41479908983E+02  0.18051668714E+03  0.12500000000E+03 0.  0.
</event>
<event>
 5    0  0.5619558E-005  0.2358828E+03  0.7546771E-02  0.1122566E+00
         21   -1    0    0  502  501  0.00000000000E+00  0.00000000000E+00  0.56650169964E+02  0.56650169964E+02  0.00000000000E+00 0. -1.
         21   -1    0    0  501  502 -0.00000000000E+00 -0.00000000000E+00 -0.98218016803E+03  0.98218016803E+03  0.00000000000E+00 0. -1.
         25    1    1    2    0    0  0.23987702000E+02 -0.12778419979E+02 -0.97547448933E+02  0.16087014222E+03  0.12500000000E+03 0.  0.
         25    1    1    2    0    0 -0.22594308627E+02 -0.52460057858E+02 -0.27698236189E+03  0.30920347549E+03  0.12500000000E+03 0.  0.
         25    1    1    2    0    0 -0.13933933728E+01  0.65238477837E+02 -0.55100018723E+03  0.56875672028E+03  0.12500000000E+03 0.  0.
</event>
<event>
 5    0  0.5619558E-005  0.4281660E+03  0.7546771E-02  0.1034441E+00
         21   -1    0    0  502  501  0.00000000000E+00  0.00000000000E+00  0.80467563207E+03  0.80467563207E+03  0.00000000000E+00 0. -1.
         21   -1    0    0  501  502 -0.00000000000E+00 -0.00000000000E+00 -0.22782615903E+03  0.22782615903E+03  0.00000000000E+00 0. -1.
         25    1    1    2    0    0  0.49674403848E+01 -0.12804140379E+03  0.17286584268E+03  0.24885111234E+03  0.12500000000E+03 0.  0.
         25    1    1    2    0    0  0.10567094519E+03  0.12689750878E+03  0.53354810103E+03  0.57233548073E+03  0.12500000000E+03 0.  0.
         25    1    1    2    0    0 -0.11063838558E+03  0.11438950065E+01 -0.12956447067E+03  0.21131519803E+03  0.12500000000E+03 0.  0.
</event>
<event>
 5    0  0.5619558E-005  0.2476378E+03  0.7546771E-02  0.1114807E+00
         21   -1    0    0  502  501  0.00000000000E+00  0.00000000000E+00  0.53623703614E+03  0.53623703614E+03  0.00000000000E+00 0.  1.
         21   -1    0    0  501  502 -0.00000000000E+00 -0.00000000000E+00 -0.11436075419E+03  0.11436075419E+03  0.00000000000E+00 0.  1.
         25    1    1    2    0    0  0.77410065912E+02 -0.65408159016E+02  0.12791532070E+03  0.20556720274E+03  0.12500000000E+03 0.  0.
         25    1    1    2    0    0  0.24614185333E+02  0.66749488203E+02  0.23039941505E+03  0.27160677964E+03  0.12500000000E+03 0.  0.
         25    1    1    2    0    0 -0.10202425125E+03 -0.13413291868E+01  0.63561546200E+02  0.17342380794E+03  0.12500000000E+03 0.  0.
</event>
<event>
 5    0  0.5619558E-005  0.3406175E+03  0.7546771E-02  0.1066533E+00
         21   -1    0    0  502  501  0.00000000000E+00  0.00000000000E+00  0.14827170650E+03  0.14827170650E+03  0.00000000000E+00 0.  1.
         21   -1    0    0  501  502 -0.00000000000E+00 -0.00000000000E+00 -0.78248429008E+03  0.78248429008E+03  0.00000000000E+00 0.  1.
         25    1    1    2    0    0 -0.23755918011E+03  0.76024921806E+02 -0.30969182998E+03  0.41683111970E+03  0.12500000000E+03 0.  0.
         25    1    1    2    0    0  0.13027280696E+03 -0.52427596926E+02 -0.28739395740E+03  0.34342385459E+03  0.12500000000E+03 0.  0.
         25    1    1    2    0    0  0.10728637315E+03 -0.23597324880E+02 -0.37126796193E+02  0.17050102229E+03  0.12500000000E+03 0.  0.
</event>
<event>
 5    0  0.5619558E-005  0.2986460E+03  0.7546771E-02  0.1085919E+00
         21   -1    0    0  502  501  0.00000000000E+00  0.00000000000E+00  0.12497230789E+03  0.12497230789E+03  0.00000000000E+00 0. -1.
         21   -1    0    0  501  502 -0.00000000000E+00 -0.00000000000E+00 -0.71367340196E+03  0.71367340196E+03  0.00000000000E+00 0. -1.
         25    1    1    2    0    0 -0.19639248394E+03  0.55866877764E+02 -0.27264321276E+03  0.36283665367E+03  0.12500000000E+03 0.  0.
         25    1    1    2    0    0  0.87508120556E+02 -0.54986840800E+02 -0.24860774119E+03  0.29683671068E+03  0.12500000000E+03 0.  0.
         25    1    1    2    0    0  0.10888436339E+03 -0.88003696375E+00 -0.67450140114E+02  0.17897234551E+03  0.12500000000E+03 0.  0.
</event>
<event>
 5    0  0.5619558E-005  0.4063301E+03  0.7546771E-02  0.1041610E+00
         21   -1    0    0  502  501  0.00000000000E+00  0.00000000000E+00  0.12242085989E+04  0.12242085989E+04  0.00000000000E+00 0. -1.
         21   -1    0    0  501  502 -0.00000000000E+00 -0.00000000000E+00 -0.13486602404E+03  0.13486602404E+03  0.00000000000E+00 0. -1.
         25    1    1    2    0    0  0.24117669098E+03 -0.27493868049E+02  0.18065590443E+03  0.32738916423E+03  0.12500000000E+03 0.  0.
         25    1    1    2    0    0 -0.28811679074E+03 -0.62839758581E+02  0.68262211990E+03  0.75402790329E+03  0.12500000000E+03 0.  0.
         25    1    1    2    0    0  0.46940099762E+02  0.90333626630E+02  0.22606455050E+03  0.27765755538E+03  0.12500000000E+03 0.  0.
</event>
<event>
 5    0  0.5619558E-005  0.3313716E+03  0.7546771E-02  0.1070532E+00
         21   -1    0    0  502  501  0.00000000000E+00  0.00000000000E+00  0.27464208693E+04  0.27464208693E+04  0.00000000000E+00 0. -1.
         21   -1    0    0  501  502 -0.00000000000E+00 -0.00000000000E+00 -0.39981893272E+02  0.39981893272E+02  0.00000000000E+00 0. -1.
         25    1    1    2    0    0  0.25793408449E+02  0.10926743332E+03  0.80811143749E+03  0.82539309865E+03  0.12500000000E+03 0.  0.
         25    1    1    2    0    0 -0.19034823403E+03  0.26273780411E+02  0.67181970410E+03  0.70985172857E+03  0.12500000000E+03 0.  0.
         25    1    1    2    0    0  0.16455482558E+03 -0.13554121373E+03  0.12265078345E+04  0.12511579354E+04  0.12500000000E+03 0.  0.
</event>
<event>
 5    0  0.5924694E-005  0.2974689E+03  0.7546771E-02  0.1086513E+00
         21   -1    0    0  502  501  0.00000000000E+00  0.00000000000E+00  0.36079537416E+03  0.36079537416E+03  0.00000000000E+00 0. -1.
         21   -1    0    0  501  502 -0.00000000000E+00 -0.00000000000E+00 -0.24525735122E+03  0.24525735122E+03  0.00000000000E+00 0. -1.
         25    1    1    2    0    0  0.51345981176E+01 -0.65275286067E+02  0.18574749715E+03  0.23326885726E+03  0.12500000000E+03 0.  0.
         25    1    1    2    0    0  0.27624520133E+01  0.10749067084E+03  0.70863983147E+02  0.17946748888E+03  0.12500000000E+03 0.  0.
         25    1    1    2    0    0 -0.78970501309E+01 -0.42215384770E+02 -0.14107345736E+03  0.19331637924E+03  0.12500000000E+03 0.  0.
</event>
<event>
 5    0  0.6888089E-005  0.3690447E+03  0.7546771E-02  0.1055059E+00
         21   -1    0    0  502  501  0.00000000000E+00  0.00000000000E+00  0.94008855473E+02  0.94008855473E+02  0.00000000000E+00 0.  1.
         21   -1    0    0  501  502 -0.00000000000E+00 -0.00000000000E+00 -0.14487355700E+04  0.14487355700E+04  0.00000000000E+00 0.  1.
         25    1    1    2    0    0 -0.95291118767E+02 -0.21410404126E+03 -0.35781220949E+03  0.44561812694E+03  0.12500000000E+03 0.  0.
         25    1    1    2    0    0  0.51902274424E+02  0.13615942085E+03 -0.17113050487E+03  0.25718453234E+03  0.12500000000E+03 0.  0.
         25    1    1    2    0    0  0.43388844343E+02  0.77944620401E+02 -0.82578400020E+03  0.83994176622E+03  0.12500000000E+03 0.  0.
</event>
<event>
 5    0  0.5619558E-005  0.2729001E+03  0.7546771E-02  0.1099631E+00
         21   -1    0    0  502  501  0.00000000000E+00  0.00000000000E+00  0.10396160340E+03  0.10396160340E+03  0.00000000000E+00 0.  1.
         21   -1    0    0  501  502 -0.00000000000E+00 -0.00000000000E+00 -0.71636497327E+03  0.71636497327E+03  0.00000000000E+00 0.  1.
         25    1    1    2    0    0 -0.12512657385E+03  0.13026092417E+02 -0.25189411396E+03  0.30806165489E+03  0.12500000000E+03 0.  0.
         25    1    1    2    0    0  0.17599471463E+03 -0.16593044285E+02 -0.15456555401E+03  0.26601687763E+03  0.12500000000E+03 0.  0.
         25    1    1    2    0    0 -0.50868140778E+02  0.35669518680E+01 -0.20594370190E+03  0.24624804415E+03  0.12500000000E+03 0.  0.
</event>
<event>
 5    0  0.5619558E-005  0.2331376E+03  0.7546771E-02  0.1124451E+00
         21   -1    0    0  502  501  0.00000000000E+00  0.00000000000E+00  0.12189928516E+03  0.12189928516E+03  0.00000000000E+00 0. -1.
         21   -1    0    0  501  502 -0.00000000000E+00 -0.00000000000E+00 -0.44588561046E+03  0.44588561046E+03  0.00000000000E+00 0. -1.
         25    1    1    2    0    0  0.38645641210E+02  0.35739490369E+02 -0.20304386069E+03  0.24417740707E+03  0.12500000000E+03 0.  0.
         25    1    1    2    0    0  0.23285566696E+02  0.48538746122E+02 -0.41446219569E+02  0.14227092678E+03  0.12500000000E+03 0.  0.
         25    1    1    2    0    0 -0.61931207906E+02 -0.84278236491E+02 -0.79496245034E+02  0.18133656177E+03  0.12500000000E+03 0.  0.
</event>
<event>
 5    0  0.5619558E-005  0.3801715E+03  0.7546771E-02  0.1050870E+00
         21   -1    0    0  502  501  0.00000000000E+00  0.00000000000E+00  0.49392212895E+03  0.49392212895E+03  0.00000000000E+00 0. -1.
         21   -1    0    0  501  502 -0.00000000000E+00 -0.00000000000E+00 -0.29261779306E+03  0.29261779306E+03  0.00000000000E+00 0. -1.
         25    1    1    2    0    0 -0.12128162616E+03 -0.51241993641E+02  0.13635403910E+03  0.22705153321E+03  0.12500000000E+03 0.  0.
         25    1    1    2    0    0 -0.66094258913E+02  0.20402397644E+03  0.12919144824E+03  0.27983863980E+03  0.12500000000E+03 0.  0.
         25    1    1    2    0    0  0.18737588508E+03 -0.15278198280E+03 -0.64241151452E+02  0.27964974900E+03  0.12500000000E+03 0.  0.
</event>
<event>
 5    0  0.5800957E-005  0.2437707E+03  0.7546771E-02  0.1117306E+00
         21   -1    0    0  502  501  0.00000000000E+00  0.00000000000E+00  0.14308229474E+03  0.14308229474E+03  0.00000000000E+00 0.  1.
         21   -1    0    0  501  502 -0.00000000000E+00 -0.00000000000E+00 -0.41531447566E+03  0.41531447566E+03  0.00000000000E+00 0.  1.
         25    1    1    2    0    0  0.22049641548E+02  0.52878040427E+02 -0.39926554809E+02  0.14318311224E+03  0.12500000000E+03 0.  0.
         25    1    1    2    0    0 -0.39018503932E+02  0.53365122140E+02 -0.14695030442E+02  0.14216618385E+03  0.12500000000E+03 0.  0.
         25    1    1    2    0    0  0.16968862384E+02 -0.10624316257E+03 -0.21761059567E+03  0.27304747431E+03  0.12500000000E+03 0.  0.
</event>
<event>
 5    0  0.5619558E-005  0.2292120E+03  0.7546771E-02  0.1127196E+00
         21   -1    0    0  502  501  0.00000000000E+00  0.00000000000E+00  0.61660982390E+03  0.61660982390E+03  0.00000000000E+00 0. -1.
         21   -1    0    0  501  502 -0.00000000000E+00 -0.00000000000E+00 -0.85204815619E+02  0.85204815619E+02  0.00000000000E+00 0. -1.
         25    1    1    2    0    0 -0.13773247736E+02 -0.16298231784E+02  0.10808286418E+03  0.16662004754E+03  0.12500000000E+03 0.  0.
         25    1    1    2    0    0  0.80229577208E+02  0.42222742049E+02  0.32810644470E+03  0.36262705920E+03  0.12500000000E+03 0.  0.
         25    1    1    2    0    0 -0.66456329473E+02 -0.25924510265E+02  0.95215699397E+02  0.17256753278E+03  0.12500000000E+03 0.  0.
</event>
<event>
 5    0  0.5619558E-005  0.4184517E+03  0.7546771E-02  0.1037571E+00
         21   -1    0    0  502  501  0.00000000000E+00  0.00000000000E+00  0.83593441008E+03  0.83593441008E+03  0.00000000000E+00 0. -1.
         21   -1    0    0  501  502 -0.00000000000E+00 -0.00000000000E+00 -0.20946832903E+03  0.20946832903E+03  0.00000000000E+00 0. -1.
         25    1    1    2    0    0 -0.54742348571E+01  0.24917215213E+03  0.32642555997E+02  0.28072631709E+03  0.12500000000E+03 0.  0.
         25    1    1    2    0    0  0.33489478282E+00  0.39828091169E+01  0.40775746849E+03  0.42650571864E+03  0.12500000000E+03 0.  0.
         25    1    1    2    0    0  0.51393400743E+01 -0.25315496125E+03  0.18606605656E+03  0.33817070338E+03  0.12500000000E+03 0.  0.
</event>
<event>
 5    0  0.5619558E-005  0.2819626E+03  0.7546771E-02  0.1094622E+00
         21   -1    0    0  502  501  0.00000000000E+00  0.00000000000E+00  0.16080633015E+03  0.16080633015E+03  0.00000000000E+00 0.  1.
         21   -1    0    0  501  502 -0.00000000000E+00 -0.00000000000E+00 -0.49440176966E+03  0.49440176966E+03  0.00000000000E+00 0.  1.
         25    1    1    2    0    0  0.31678735216E+02 -0.46770848508E+02 -0.25355207918E+03  0.28827887781E+03  0.12500000000E+03 0.  0.
         25    1    1    2    0    0 -0.34644119364E+01  0.55832959368E+02  0.82402001407E+02  0.15982619103E+03  0.12500000000E+03 0.  0.
         25    1    1    2    0    0 -0.28214323279E+02 -0.90621108597E+01 -0.16244536173E+03  0.20710303098E+03  0.12500000000E+03 0.  0.
</event>
<event>
 5    0  0.5619558E-005  0.2188238E+03  0.7546771E-02  0.1134763E+00
         21   -1    0    0  502  501  0.00000000000E+00  0.00000000000E+00  0.47772469994E+02  0.47772469994E+02  0.00000000000E+00 0. -1.
         21   -1    0    0  501  502 -0.00000000000E+00 -0.00000000000E+00 -0.10023315479E+04  0.10023315479E+04  0.00000000000E+00 0. -1.
         25    1    1    2    0    0  0.81941051386E+02  0.45217746674E+02 -0.31024798893E+03  0.34732951956E+03  0.12500000000E+03 0.  0.
         25    1    1    2    0    0 -0.74098449567E+02 -0.39894285782E+02 -0.28775185536E+03  0.32482035732E+03  0.12500000000E+03 0.  0.
         25    1    1    2    0    0 -0.78426018193E+01 -0.53234608925E+01 -0.35655923360E+03  0.37795414100E+03  0.12500000000E+03 0.  0.
</event>
<event>
 5    0  0.5619558E-005  0.4283708E+03  0.7546771E-02  0.1034376E+00
         21   -1    0    0  502  501  0.00000000000E+00  0.00000000000E+00  0.74802892480E+03  0.74802892480E+03  0.00000000000E+00 0. -1.
         21   -1    0    0  501  502 -0.00000000000E+00 -0.00000000000E+00 -0.24531337543E+03  0.24531337543E+03  0.00000000000E+00 0. -1.
         25    1    1    2    0    0  0.29401422144E+02 -0.21618403787E+03  0.58584102739E+02  0.25818032254E+03  0.12500000000E+03 0.  0.
         25    1    1    2    0    0 -0.36633684055E+02  0.42989692461E+02 -0.87146443663E+02  0.16251044000E+03  0.12500000000E+03 0.  0.
         25    1    1    2    0    0  0.72322619111E+01  0.17319434541E+03  0.53127789029E+03  0.57265153768E+03  0.12500000000E+03 0.  0.
</event>
<event>
 5    0  0.5619558E-005  0.3749758E+03  0.7546771E-02  0.1052807E+00
         21   -1    0    0  502  501  0.00000000000E+00  0.00000000000E+00  0.60200095394E+03  0.60200095394E+03  0.00000000000E+00 0. -1.
         21   -1    0    0  501  502 -0.00000000000E+00 -0.00000000000E+00 -0.23356579909E+03  0.23356579909E+03  0.00000000000E+00 0. -1.
         25    1    1    2    0    0 -0.60981176245E+02 -0.27185408046E+03  0.13283725027E+03  0.33300762751E+03  0.12500000000E+03 0.  0.
         25    1    1    2    0    0 -0.51938139716E+02  0.23485027388E+03  0.15406669903E+03  0.31179122702E+03  0.12500000000E+03 0.  0.
         25    1    1    2    0    0  0.11291931596E+03  0.37003806586E+02  0.81531205548E+02  0.19076789850E+03  0.12500000000E+03 0.  0.
</event>
<event>
 5    0  0.5619558E-005  0.3304080E+03  0.7546771E-02  0.1070956E+00
         21   -1    0    0  502  501  0.00000000000E+00  0.00000000000E+00  0.86137341072E+03  0.86137341072E+03  0.00000000000E+00 0. -1.
         21   -1    0    0  501  502 -0.00000000000E+00 -0.00000000000E+00 -0.12673882942E+03  0.12673882942E+03  0.00000000000E+00 0. -1.
         25    1    1    2    0    0 -0.50253299321E+02 -0.64792332485E+02  0.27353978563E+03  0.31172496654E+03  0.12500000000E+03 0.  0.
         25    1    1    2    0    0  0.15276982477E+03  0.16701470981E+03  0.39868771257E+03  0.47519409172E+03  0.12500000000E+03 0.  0.
         25    1    1    2    0    0 -0.10251652545E+03 -0.10222237733E+03  0.62407083103E+02  0.20119318189E+03  0.12500000000E+03 0.  0.
</event>
<event>
 5    0  0.5619558E-005  0.3395307E+03  0.7546771E-02  0.1066996E+00
         21   -1    0    0  502  501  0.00000000000E+00  0.00000000000E+00  0.48164746704E+03  0.48164746704E+03  0.00000000000E+00 0. -1.
         21   -1    0    0  501  502 -0.00000000000E+00 -0.00000000000E+00 -0.23934744746E+03  0.23934744746E+03  0.00000000000E+00 0. -1.
         25    1    1    2    0    0 -0.18551148707E+03  0.30946924434E+02 -0.47167692345E+02  0.23069897088E+03  0.12500000000E+03 0.  0.
         25    1    1    2    0    0  0.96969055259E+02 -0.10599934279E+03  0.25163712489E+03  0.31557107119E+03  0.12500000000E+03 0.  0.
         25    1    1    2    0    0  0.88542431808E+02  0.75052418355E+02  0.37830587039E+02  0.17472487243E+03  0.12500000000E+03 0.  0.
</event>
<event>
 5    0  0.5682182E-005  0.3124733E+03  0.7546771E-02  0.1079166E+00
         21   -1    0    0  502  501  0.00000000000E+00  0.00000000000E+00  0.13272824681E+03  0.13272824681E+03  0.00000000000E+00 0. -1.
         21   -1    0    0  501  502 -0.00000000000E+00 -0.00000000000E+00 -0.73563506275E+03  0.73563506275E+03  0.00000000000E+00 0. -1.
         25    1    1    2    0    0  0.64087802083E+02  0.16269819661E+02 -0.22903484784E+02  0.14325335257E+03  0.12500000000E+03 0.  0.
         25    1    1    2    0    0 -0.16616567818E+03 -0.12283761973E+03 -0.33491908293E+03  0.41291149844E+03  0.12500000000E+03 0.  0.
         25    1    1    2    0    0  0.10207787610E+03  0.10656780007E+03 -0.24508424822E+03  0.31219845856E+03  0.12500000000E+03 0.  0.
</event>
<event>
 5    0  0.5619558E-005  0.3647128E+03  0.7546771E-02  0.1056733E+00
         21   -1    0    0  502  501  0.00000000000E+00  0.00000000000E+00  0.33127934236E+03  0.33127934236E+03  0.00000000000E+00 0.  1.
         21   -1    0    0  501  502 -0.00000000000E+00 -0.00000000000E+00 -0.40152054280E+03  0.40152054280E+03  0.00000000000E+00 0.  1.
         25    1    1    2    0    0  0.40568294012E+01  0.17117660824E+02  0.89800227521E+02  0.15491466373E+03  0.12500000000E+03 0.  0.
         25    1    1    2    0    0  0.19976419529E+02  0.18184521142E+03  0.85212864806E+02  0.23738780630E+03  0.12500000000E+03 0.  0.
         25    1    1    2    0    0 -0.24033248931E+02 -0.19896287224E+03 -0.24525429277E+03  0.34049741513E+03  0.12500000000E+03 0.  0.
</event>
<event>
 5    0  0.5619558E-005  0.3806792E+03  0.7546771E-02  0.1050683E+00
         21   -1    0    0  502  501  0.00000000000E+00  0.00000000000E+00  0.20078042008E+03  0.20078042008E+03  0.00000000000E+00 0.  1.
         21   -1    0    0  501  502 -0.00000000000E+00 -0.00000000000E+00 -0.72176684463E+03  0.72176684463E+03  0.00000000000E+00 0.  1.
         25    1    1    2    0    0 -0.69871445292E+02  0.90685809173E+02 -0.12119905972E+03  0.20837501513E+03  0.12500000000E+03 0.  0.
         25    1    1    2    0    0  0.10814773003E+03 -0.23889652617E+03 -0.26388978917E+02  0.29169994846E+03  0.12500000000E+03 0.  0.
         25    1    1    2    0    0 -0.38276284739E+02  0.14821071700E+03 -0.37339838591E+03  0.42247230111E+03  0.12500000000E+03 0.  0.
</event>
<event>
 5    0  0.5619558E-005  0.3873305E+03  0.7546771E-02  0.1048257E+00
         21   -1    0    0  502  501  0.00000000000E+00  0.00000000000E+00  0.19667649244E+04  0.19667649244E+04  0.00000000000E+00 0. -1.
         21   -1    0    0  501  502 -0.00000000000E+00 -0.00000000000E+00 -0.76280034382E+02  0.76280034382E+02  0.00000000000E+00 0. -1.
         25    1    1    2    0    0  0.23962266590E+03 -0.12918740731E+03  0.85931305548E+03  0.91002875533E+03  0.12500000000E+03 0.  0.
         25    1    1    2    0    0 -0.38514851855E+02  0.88633940687E+02  0.14360169297E+03  0.21350834990E+03  0.12500000000E+03 0.  0.
         25    1    1    2    0    0 -0.20110781404E+03  0.40553466620E+02  0.88757014157E+03  0.91950785355E+03  0.12500000000E+03 0.  0.
</event>
<event>
 5    0  0.5619558E-005  0.3052109E+03  0.7546771E-02  0.1082664E+00
         21   -1    0    0  502  501  0.00000000000E+00  0.00000000000E+00  0.30590290723E+03  0.30590290723E+03  0.00000000000E+00 0.  1.
         21   -1    0    0  501  502 -0.00000000000E+00 -0.00000000000E+00 -0.30452055157E+03  0.30452055157E+03  0.00000000000E+00 0.  1.
         25    1    1    2    0    0 -0.73002861685E+02 -0.14162518999E+03 -0.19835951174E+02  0.20348360428E+03  0.12500000000E+03 0.  0.
         25    1    1    2    0    0  0.81303257763E+01  0.21073865893E+03 -0.16103871064E+02  0.24568520352E+03  0.12500000000E+03 0.  0.
         25    1    1    2    0    0  0.64872535909E+02 -0.69113468944E+02  0.37322177901E+02  0.16125465100E+03  0.12500000000E+03 0.  0.
</event>
<event>
 5    0  0.5619558E-005  0.3906481E+03  0.7546771E-02  0.1047067E+00
         21   -1    0    0  502  501  0.00000000000E+00  0.00000000000E+00  0.16474327025E+03  0.16474327025E+03  0.00000000000E+00 0.  1.
         21   -1    0    0  501  502 -0.00000000000E+00 -0.00000000000E+00 -0.92632557499E+03  0.92632557499E+03  0.00000000000E+00 0.  1.
         25    1    1    2    0    0  0.36925396913E+02 -0.11325351874E+02 -0.69339148489E+02  0.14806980126E+03  0.12500000000E+03 0.  0.
         25    1    1    2    0    0  0.36842887935E+02 -0.25672728918E+03 -0.15930541203E+03  0.32904333105E+03  0.12500000000E+03 0.  0.
         25    1    1    2    0    0 -0.73768284848E+02  0.26805264106E+03 -0.53293774422E+03  0.61395571293E+03  0.12500000000E+03 0.  0.
</event>
<event>
 5    0  0.5619558E-005  0.3236936E+03  0.7546771E-02  0.1073962E+00
         21   -1    0    0  502  501  0.00000000000E+00  0.00000000000E+00  0.27783334156E+03  0.27783334156E+03  0.00000000000E+00 0.  1.
         21   -1    0    0  501  502 -0.00000000000E+00 -0.00000000000E+00 -0.37712381186E+03  0.37712381186E+03  0.00000000000E+00 0.  1.
         25    1    1    2    0    0 -0.17639776482E+03 -0.46454662106E+02 -0.79349480701E+00  0.22113307464E+03  0.12500000000E+03 0.  0.
         25    1    1    2    0    0  0.94178211987E+02  0.81650280004E+02 -0.18643317234E+03  0.25674623967E+03  0.12500000000E+03 0.  0.
         25    1    1    2    0    0  0.82219552831E+02 -0.35195617899E+02  0.87936196847E+02  0.17707783911E+03  0.12500000000E+03 0.  0.
</event>
<event>
 5    0  0.5619558E-005  0.3132778E+03  0.7546771E-02  0.1078785E+00
         21   -1    0    0  502  501  0.00000000000E+00  0.00000000000E+00  0.20024997637E+03  0.20024997637E+03  0.00000000000E+00 0. -1.
         21   -1    0    0  501  502 -0.00000000000E+00 -0.00000000000E+00 -0.49010232795E+03  0.49010232795E+03  0.00000000000E+00 0. -1.
         25    1    1    2    0    0  0.91096062226E+02 -0.13601367887E+03 -0.32187698761E+03  0.38213611259E+03  0.12500000000E+03 0.  0.
         25    1    1    2    0    0 -0.75104171450E+02  0.84221266067E+02  0.64340643994E+00  0.16840211459E+03  0.12500000000E+03 0.  0.
         25    1    1    2    0    0 -0.15991890776E+02  0.51792412802E+02  0.31381229585E+02  0.13981407713E+03  0.12500000000E+03 0.  0.
</event>
<event>
 5    0  0.5619558E-005  0.4369437E+03  0.7546771E-02  0.1031689E+00
         21   -1    0    0  502  501  0.00000000000E+00  0.00000000000E+00  0.15852398319E+03  0.15852398319E+03  0.00000000000E+00 0.  1.
         21   -1    0    0  501  502 -0.00000000000E+00 -0.00000000000E+00 -0.12043588748E+04  0.12043588748E+04  0.00000000000E+00 0.  1.
         25    1    1    2    0    0  0.63931790693E+02  0.30258009868E+03 -0.62847998658E+03  0.71151534313E+03  0.12500000000E+03 0.  0.
         25    1    1    2    0    0 -0.86182345881E+02 -0.31688393651E+03 -0.21464977142E+03  0.41175520680E+03  0.12500000000E+03 0.  0.
         25    1    1    2    0    0  0.22250555188E+02  0.14303837825E+02 -0.20270513362E+03  0.23961230807E+03  0.12500000000E+03 0.  0.
</event>
<event>
 5    0  0.5619558E-005  0.4158495E+03  0.7546771E-02  0.1038426E+00
         21   -1    0    0  502  501  0.00000000000E+00  0.00000000000E+00  0.45867239659E+03  0.45867239659E+03  0.00000000000E+00 0. -1.
         21   -1    0    0  501  502 -0.00000000000E+00 -0.00000000000E+00 -0.37702466947E+03  0.37702466947E+03  0.00000000000E+00 0. -1.
         25    1    1    2    0    0  0.10536208272E+02  0.23510036317E+03 -0.10630884395E+03  0.28689678066E+03  0.12500000000E+03 0.  0.
         25    1    1    2    0    0 -0.73199609097E+02 -0.32043888481E+03  0.12227146458E+03  0.37230978059E+03  0.12500000000E+03 0.  0.
         25    1    1    2    0    0  0.62663400825E+02  0.85338521636E+02  0.65685106484E+02  0.17649050482E+03  0.12500000000E+03 0.  0.
</event>
<event>
 5    0  0.5619558E-005  0.3137729E+03  0.7546771E-02  0.1078551E+00
         21   -1    0    0  502  501  0.00000000000E+00  0.00000000000E+00  0.47307318005E+03  0.47307318005E+03  0.00000000000E+00 0. -1.
         21   -1    0    0  501  502 -0.00000000000E+00 -0.00000000000E+00 -0.20811455073E+03  0.20811455073E+03  0.00000000000E+00 0. -1.
         25    1    1    2    0    0 -0.22721245389E+02  0.10636933139E+03  0.22937024539E+03  0.28296006631E+03  0.12500000000E+03 0.  0.
         25    1    1    2    0    0  0.55356958916E+02  0.47753458058E+02  0.11202678948E+03  0.18308409876E+03  0.12500000000E+03 0.  0.
         25    1    1    2    0    0 -0.32635713527E+02 -0.15412278944E+03 -0.76438405555E+02  0.21514356571E+03  0.12500000000E+03 0.  0.
</event>
<event>
 5    0  0.5619558E-005  0.2683431E+03  0.7546771E-02  0.1102232E+00
         21   -1    0    0  502  501  0.00000000000E+00  0.00000000000E+00  0.19572332256E+04  0.19572332256E+04  0.00000000000E+00 0.  1.
         21   -1    0    0  501  502 -0.00000000000E+00 -0.00000000000E+00 -0.36790715767E+02  0.36790715767E+02  0.00000000000E+00 0.  1.
         25    1    1    2    0    0 -0.87506846476E+02  0.74355461205E+02  0.10305767580E+04  0.10444614099E+04  0.12500000000E+03 0.  0.
         25    1    1    2    0    0  0.20927883635E+01 -0.47938565233E+02  0.18639712548E+03  0.22950244920E+03  0.12500000000E+03 0.  0.
         25    1    1    2    0    0  0.85414058112E+02 -0.26416895972E+02  0.70346862640E+03  0.72006008225E+03  0.12500000000E+03 0.  0.
</event>
<event>
 5    0  0.5619558E-005  0.3378982E+03  0.7546771E-02  0.1067695E+00
         21   -1    0    0  502  501  0.00000000000E+00  0.00000000000E+00  0.98983520817E+02  0.98983520817E+02  0.00000000000E+00 0.  1.
         21   -1    0    0  501  502 -0.00000000000E+00 -0.00000000000E+00 -0.11534769958E+04  0.11534769958E+04  0.00000000000E+00 0.  1.
         25    1    1    2    0    0 -0.94373320415E+01 -0.86433770198E+02 -0.61119463335E+02  0.16407452168E+03  0.12500000000E+03 0.  0.
         25    1    1    2    0    0  0.53151342757E+02  0.56970095786E+02 -0.85251914101E+02  0.17018679710E+03  0.12500000000E+03 0.  0.
         25    1    1    2    0    0 -0.43714010715E+02  0.29463674412E+02 -0.90812209752E+03  0.91819919780E+03  0.12500000000E+03 0.  0.
</event>
<event>
 5    0  0.5619558E-005  0.3252981E+03  0.7546771E-02  0.1073236E+00
         21   -1    0    0  502  501  0.00000000000E+00  0.00000000000E+00  0.44313847319E+03  0.44313847319E+03  0.00000000000E+00 0.  1.
         21   -1    0    0  501  502 -0.00000000000E+00 -0.00000000000E+00 -0.23879407129E+03  0.23879407129E+03  0.00000000000E+00 0.  1.
         25    1    1    2    0    0  0.37724442495E+02  0.89828300276E+02 -0.41462976412E+02  0.16381830027E+03  0.12500000000E+03 0.  0.
         25    1    1    2    0    0 -0.28509368915E+02 -0.90099466411E+00 -0.84672453180E+02  0.15364901638E+03  0.12500000000E+03 0.  0.
         25    1    1    2    0    0 -0.92150735798E+01 -0.88927305611E+02  0.33047983150E+03  0.36446522782E+03  0.12500000000E+03 0.  0.
</event>
<event>
 5    0  0.5619558E-005  0.4505126E+03  0.7546771E-02  0.1027569E+00
         21   -1    0    0  502  501  0.00000000000E+00  0.00000000000E+00  0.54282068035E+03  0.54282068035E+03  0.00000000000E+00 0. -1.
         21   -1    0    0  501  502 -0.00000000000E+00 -0.00000000000E+00 -0.37390176444E+03  0.37390176444E+03  0.00000000000E+00 0. -1.
         25    1    1    2    0    0  0.36957299199E+02  0.18451126663E+03  0.11745231759E+03  0.25461794199E+03  0.12500000000E+03 0.  0.
         25    1    1    2    0    0 -0.19327960861E+03 -0.10982078366E+03 -0.20579014627E+03  0.32770748531E+03  0.12500000000E+03 0.  0.
         25    1    1    2    0    0  0.15632230941E+03 -0.74690482970E+02  0.25725674459E+03  0.33439701749E+03  0.12500000000E+03 0.  0.
</event>
<event>
 5    0  0.5619558E-005  0.3653432E+03  0.7546771E-02  0.1056488E+00
         21   -1    0    0  502  501  0.00000000000E+00  0.00000000000E+00  0.23674483280E+03  0.23674483280E+03  0.00000000000E+00 0. -1.
         21   -1    0    0  501  502 -0.00000000000E+00 -0.00000000000E+00 -0.56379529952E+03  0.56379529952E+03  0.00000000000E+00 0. -1.
         25    1    1    2    0    0 -0.17057911653E+03 -0.10155535163E+03  0.93887857712E+02  0.25268686999E+03  0.12500000000E+03 0.  0.
         25    1    1    2    0    0  0.14783906140E+03  0.12034811842E+02 -0.21054695432E+03  0.28628001108E+03  0.12500000000E+03 0.  0.
         25    1    1    2    0    0  0.22740055128E+02  0.89520539791E+02 -0.21039137011E+03  0.26157325125E+03  0.12500000000E+03 0.  0.
</event>
<event>
 5    0  0.5619558E-005  0.3605054E+03  0.7546771E-02  0.1058384E+00
         21   -1    0    0  502  501  0.00000000000E+00  0.00000000000E+00  0.88723614224E+03  0.88723614224E+03  0.00000000000E+00 0. -1.
         21   -1    0    0  501  502 -0.00000000000E+00 -0.00000000000E+00 -0.14648201431E+03  0.14648201431E+03  0.00000000000E+00 0. -1.
         25    1    1    2    0    0  0.85080383442E+02 -0.34440648115E+02  0.12506861660E+03  0.19922848377E+03  0.12500000000E+03 0.  0.
         25    1    1    2    0    0  0.19922509105E+03 -0.52081008040E+02  0.26568436023E+03  0.35863107447E+03  0.12500000000E+03 0.  0.
         25    1    1    2    0    0 -0.28430547450E+03  0.86521656155E+02  0.35000115110E+03  0.47585859831E+03  0.12500000000E+03 0.  0.
</event>
<event>
 5    0  0.5619558E-005  0.3333827E+03  0.7546771E-02  0.1069650E+00
         21   -1    0    0  502  501  0.00000000000E+00  0.00000000000E+00  0.10146826631E+03  0.10146826631E+03  0.00000000000E+00 0.  1.
         21   -1    0    0  501  502 -0.00000000000E+00 -0.00000000000E+00 -0.10953575635E+04  0.10953575635E+04  0.00000000000E+00 0.  1.
         25    1    1    2    0    0 -0.84993390156E+02 -0.57168474694E+02 -0.50957376757E+03  0.53458632181E+03  0.12500000000E+03 0.  0.
         25    1    1    2    0    0 -0.65514729526E+02 -0.84730438652E+02 -0.62472235853E+02  0.17606591740E+03  0.12500000000E+03 0.  0.
         25    1    1    2    0    0  0.15050811968E+03  0.14189891335E+03 -0.42184329372E+03  0.48617359056E+03  0.12500000000E+03 0.  0.
</event>
<event>
 5    0  0.5619558E-005  0.3211569E+03  0.7546771E-02  0.1075118E+00
         21   -1    0    0  502  501  0.00000000000E+00  0.00000000000E+00  0.91099875141E+03  0.91099875141E+03  0.00000000000E+00 0. -1.
         21   -1    0    0  501  502 -0.00000000000E+00 -0.00000000000E+00 -0.11321832139E+03  0.11321832139E+03  0.00000000000E+00 0. -1.
         25    1    1    2    0    0  0.14853322534E+03 -0.98068413380E+02  0.19509123478E+03  0.29217310386E+03  0.12500000000E+03 0.  0.
         25    1    1    2    0    0 -0.59326218603E+02  0.58502364499E+01  0.51367813019E+03  0.53201884075E+03  0.12500000000E+03 0.  0.
         25    1    1    2    0    0 -0.89207006736E+02  0.92218176930E+02  0.89011065050E+02  0.20002512819E+03  0.12500000000E+03 0.  0.
</event>
<event>
 5    0  0.5619558E-005  0.2661199E+03  0.7546771E-02  0.1103521E+00
         21   -1    0    0  502  501  0.00000000000E+00  0.00000000000E+00  0.11644533609E+03  0.11644533609E+03  0.00000000000E+00 0. -1.
         21   -1    0    0  501  502 -0.00000000000E+00 -0.00000000000E+00 -0.60818059941E+03  0.60818059941E+03  0.00000000000E+00 0. -1.
         25    1    1    2    0    0 -0.64715175760E+02  0.11520596510E+03 -0.37628691792E+02  0.18574548935E+03  0.12500000000E+03 0.  0.
         25    1    1    2    0    0  0.32755858883E+02 -0.30089576172E+02 -0.24792983816E+03  0.28119838822E+03  0.12500000000E+03 0.  0.
         25    1    1    2    0    0  0.31959316877E+02 -0.85116388923E+02 -0.20617673337E+03  0.25768205793E+03  0.12500000000E+03 0.  0.
</event>
<event>
 5    0  0.5619558E-005  0.3927626E+03  0.7546771E-02  0.1046315E+00
         21   -1    0    0  502  501  0.00000000000E+00  0.00000000000E+00  0.89803260324E+03  0.89803260324E+03  0.00000000000E+00 0.  1.
         21   -1    0    0  501  502 -0.00000000000E+00 -0.00000000000E+00 -0.17177825389E+03  0.17177825389E+03  0.00000000000E+00 0.  1.
         25    1    1    2    0    0  0.17701988242E+03 -0.10430093105E+03  0.21838745609E+03  0.32485812898E+03  0.12500000000E+03 0.  0.
         25    1    1    2    0    0 -0.29412471836E+03 -0.19797066060E+02  0.38344359327E+03  0.49955506503E+03  0.12500000000E+03 0.  0.
         25    1    1    2    0    0  0.11710483594E+03  0.12409799711E+03  0.12442329999E+03  0.24539766312E+03  0.12500000000E+03 0.  0.
</event>
<event>
 5    0  0.5619558E-005  0.4099629E+03  0.7546771E-02  0.1040383E+00
         21   -1    0    0  502  501  0.00000000000E+00  0.00000000000E+00  0.65292362344E+03  0.65292362344E+03  0.00000000000E+00 0. -1.
         21   -1    0    0  501  502 -0.00000000000E+00 -0.00000000000E+00 -0.25741081410E+03  0.25741081410E+03  0.00000000000E+00 0. -1.
         25    1    1    2    0    0  0.31094174161E+03  0.17549424097E+02  0.34066062402E+03  0.47819181269E+03  0.12500000000E+03 0.  0.
         25    1    1    2    0    0 -0.19518955572E+03  0.27101705970E+02  0.94241622287E+02  0.25167429051E+03  0.12500000000E+03 0.  0.
         25    1    1    2    0    0 -0.11575218589E+03 -0.44651130067E+02 -0.39389436976E+02  0.18046833434E+03  0.12500000000E+03 0.  0.
</event>
<event>
 5    0  0.5619558E-005  0.4857189E+03  0.7546771E-02  0.1017575E+00
         21   -1    0    0  502  501  0.00000000000E+00  0.00000000000E+00  0.22292666192E+03  0.22292666192E+03  0.00000000000E+00 0. -1.
         21   -1    0    0  501  502 -0.00000000000E+00 -0.00000000000E+00 -0.10582979519E+04  0.10582979519E+04  0.00000000000E+00 0. -1.
         25    1    1    2    0    0 -0.13825950911E+03  0.53962419752E+02 -0.24317184347E+02  0.19556063014E+03  0.12500000000E+03 0.  0.
         25    1    1    2    0    0 -0.26717424329E+03 -0.34469446762E+02 -0.33038281133E+03  0.44423869829E+03  0.12500000000E+03 0.  0.
         25    1    1    2    0    0  0.40543375240E+03 -0.19492972990E+02 -0.48067129429E+03  0.64142528539E+03  0.12500000000E+03 0.  0.
</event>
<event>
 5    0  0.5619558E-005  0.2573268E+03  0.7546771E-02  0.1108760E+00
         21   -1    0    0  502  501  0.00000000000E+00  0.00000000000E+00  0.12450458870E+03  0.12450458870E+03  0.00000000000E+00 0.  1.
         21   -1    0    0  501  502 -0.00000000000E+00 -0.00000000000E+00 -0.53184441755E+03  0.53184441755E+03  0.00000000000E+00 0.  1.
         25    1    1    2    0    0 -0.11888413325E+02  0.11301296937E+03 -0.19576105888E+03  0.25857427906E+03  0.12500000000E+03 0.  0.
         25    1    1    2    0    0 -0.38861635462E+02 -0.39281728655E+01 -0.17812301952E+03  0.22108475148E+03  0.12500000000E+03 0.  0.
         25    1    1    2    0    0  0.50750048787E+02 -0.10908479650E+03 -0.33455750453E+02  0.17668997572E+03  0.12500000000E+03 0.  0.
</event>
<event>
 5    0  0.5619558E-005  0.3911476E+03  0.7546771E-02  0.1046889E+00
         21   -1    0    0  502  501  0.00000000000E+00  0.00000000000E+00  0.53709399368E+03  0.53709399368E+03  0.00000000000E+00 0.  1.
         21   -1    0    0  501  502 -0.00000000000E+00 -0.00000000000E+00 -0.28485977567E+03  0.28485977567E+03  0.00000000000E+00 0.  1.
         25    1    1    2    0    0 -0.29905490775E+02 -0.18648660237E+03 -0.74303326809E+02  0.23836437573E+03  0.12500000000E+03 0.  0.
         25    1    1    2    0    0 -0.99276855087E+02  0.95230545526E+02  0.33358004676E+03  0.38187091844E+03  0.12500000000E+03 0.  0.
         25    1    1    2    0    0  0.12918234586E+03  0.91256056848E+02 -0.70425019404E+01  0.20171847518E+03  0.12500000000E+03 0.  0.
</event>
<event>
 5    0  0.5619558E-005  0.3304039E+03  0.7546771E-02  0.1070958E+00
         21   -1    0    0  502  501  0.00000000000E+00  0.00000000000E+00  0.20089100841E+03  0.20089100841E+03  0.00000000000E+00 0.  1.
         21   -1    0    0  501  502 -0.00000000000E+00 -0.00000000000E+00 -0.54341273798E+03  0.54341273798E+03  0.00000000000E+00 0.  1.
         25    1    1    2    0    0 -0.99441475495E+02 -0.41970719741E+02 -0.86813056529E+01  0.16537990637E+03  0.12500000000E+03 0.  0.
         25    1    1    2    0    0  0.70667341452E+02 -0.17010301927E+03 -0.12826962254E+03  0.25691828736E+03  0.12500000000E+03 0.  0.
         25    1    1    2    0    0  0.28774134043E+02  0.21207373901E+03 -0.20557080137E+03  0.32200555266E+03  0.12500000000E+03 0.  0.
</event>
<event>
 5    0  0.5619558E-005  0.2751939E+03  0.7546771E-02  0.1098343E+00
         21   -1    0    0  502  501  0.00000000000E+00  0.00000000000E+00  0.18844028704E+03  0.18844028704E+03  0.00000000000E+00 0. -1.
         21   -1    0    0  501  502 -0.00000000000E+00 -0.00000000000E+00 -0.40188698881E+03  0.40188698881E+03  0.00000000000E+00 0. -1.
         25    1    1    2    0    0  0.96826857353E+02  0.20093180360E+02 -0.69884014017E+02  0.17403434034E+03  0.12500000000E+03 0.  0.
         25    1    1    2    0    0 -0.18703343118E+03 -0.15710791109E+02 -0.36213731587E+02  0.22839607635E+03  0.12500000000E+03 0.  0.
         25    1    1    2    0    0  0.90206573824E+02 -0.43823892509E+01 -0.10734895617E+03  0.18789685917E+03  0.12500000000E+03 0.  0.
</event>
<event>
 5    0  0.5619558E-005  0.2787591E+03  0.7546771E-02  0.1096369E+00
         21   -1    0    0  502  501  0.00000000000E+00  0.00000000000E+00  0.18678896183E+04  0.18678896183E+04  0.00000000000E+00 0. -1.
         21   -1    0    0  501  502 -0.00000000000E+00 -0.00000000000E+00 -0.41601300866E+02  0.41601300866E+02  0.00000000000E+00 0. -1.
         25    1    1    2    0    0  0.46309233491E+02  0.45426925421E+02  0.26588889658E+03  0.30088212972E+03  0.12500000000E+03 0.  0.
         25    1    1    2    0    0 -0.49188325369E+01  0.30635343619E+02  0.18844345805E+03  0.22825130027E+03  0.12500000000E+03 0.  0.
         25    1    1    2    0    0 -0.41390400954E+02 -0.76062269040E+02  0.13719559628E+04  0.13803574892E+04  0.12500000000E+03 0.  0.
</event>
<event>
 5    0  0.5619558E-005  0.3241316E+03  0.7546771E-02  0.1073763E+00
         21   -1    0    0  502  501  0.00000000000E+00  0.00000000000E+00  0.11153000691E+03  0.11153000691E+03  0.00000000000E+00 0. -1.
         21   -1    0    0  501  502 -0.00000000000E+00 -0.00000000000E+00 -0.94200032721E+03  0.94200032721E+03  0.00000000000E+00 0. -1.
         25    1    1    2    0    0 -0.40617394662E+02  0.79038506591E+02  0.10473230270E+02  0.15372555684E+03  0.12500000000E+03 0.  0.
         25    1    1    2    0    0  0.23204200167E+02 -0.25586545996E+02 -0.66103411603E+03  0.67363507094E+03  0.12500000000E+03 0.  0.
         25    1    1    2    0    0  0.17413194495E+02 -0.53451960595E+02 -0.17990943454E+03  0.22616970635E+03  0.12500000000E+03 0.  0.
</event>
<event>
 5    0  0.5619558E-005  0.2580864E+03  0.7546771E-02  0.1108298E+00
         21   -1    0    0  502  501  0.00000000000E+00  0.00000000000E+00  0.99619404910E+02  0.99619404910E+02  0.00000000000E+00 0.  1.
         21   -1    0    0  501  502 -0.00000000000E+00 -0.00000000000E+00 -0.66863065986E+03  0.66863065986E+03  0.00000000000E+00 0.  1.
         25    1    1    2    0    0 -0.24003709547E+02 -0.67597489253E+02 -0.18244562748E+03  0.23250162497E+03  0.12500000000E+03 0.  0.
         25    1    1    2    0    0 -0.71875843932E+02  0.97550797327E+02 -0.83958674163E+02  0.19327791898E+03  0.12500000000E+03 0.  0.
         25    1    1    2    0    0  0.95879553479E+02 -0.29953308073E+02 -0.30260695331E+03  0.34247052082E+03  0.12500000000E+03 0.  0.
</event>
<event>
 5    0  0.5619558E-005  0.2865172E+03  0.7546771E-02  0.1092182E+00
         21   -1    0    0  502  501  0.00000000000E+00  0.00000000000E+00  0.16728838258E+03  0.16728838258E+03  0.00000000000E+00 0. -1.
         21   -1    0    0  501  502 -0.00000000000E+00 -0.00000000000E+00 -0.49072196617E+03  0.49072196617E+03  0.00000000000E+00 0.  1.
         25    1    1    2    0    0  0.19292165364E+02 -0.90802770617E+02 -0.20731298582E+03  0.25927013883E+03  0.12500000000E+03 0.  0.
         25    1    1    2    0    0 -0.22276346709E+02  0.16261312496E+03  0.10876109795E+02  0.20659756483E+03  0.12500000000E+03 0.  0.
         25    1    1    2    0    0  0.29841813448E+01 -0.71810354338E+02 -0.12699670757E+03  0.19214264509E+03  0.12500000000E+03 0.  0.
</event>
<event>
 5    0  0.5619558E-005  0.4042790E+03  0.7546771E-02  0.1042308E+00
         21   -1    0    0  502  501  0.00000000000E+00  0.00000000000E+00  0.22054934644E+03  0.22054934644E+03  0.00000000000E+00 0. -1.
         21   -1    0    0  501  502 -0.00000000000E+00 -0.00000000000E+00 -0.74106548812E+03  0.74106548812E+03  0.00000000000E+00 0. -1.
         25    1    1    2    0    0  0.77351433806E+02 -0.54342399187E+02 -0.63930638025E+02  0.16925858070E+03  0.12500000000E+03 0.  0.
         25    1    1    2    0    0 -0.25170766023E+03 -0.23064853825E+02 -0.57078964456E-02  0.28198179681E+03  0.12500000000E+03 0.  0.
         25    1    1    2    0    0  0.17435622643E+03  0.77407253012E+02 -0.45657979576E+03  0.51037445705E+03  0.12500000000E+03 0.  0.
</event>
<event>
 5    0  0.5619558E-005  0.3214474E+03  0.7546771E-02  0.1074985E+00
         21   -1    0    0  502  501  0.00000000000E+00  0.00000000000E+00  0.57369431393E+03  0.57369431393E+03  0.00000000000E+00 0.  1.
         21   -1    0    0  501  502 -0.00000000000E+00 -0.00000000000E+00 -0.18011064059E+03  0.18011064059E+03  0.00000000000E+00 0.  1.
         25    1    1    2    0    0  0.16915517494E+03  0.65833155538E+02  0.24438131793E+03  0.32908161014E+03  0.12500000000E+03 0.  0.
         25    1    1    2    0    0 -0.65211400216E+02  0.91196466310E+02  0.35145661961E+02  0.17155040000E+03  0.12500000000E+03 0.  0.
         25    1    1    2    0    0 -0.10394377473E+03 -0.15702962185E+03  0.11405669345E+03  0.25317294438E+03  0.12500000000E+03 0.  0.
</event>
<event>
 5    0  0.5619558E-005  0.4384047E+03  0.7546771E-02  0.1031237E+00
         21   -1    0    0  502  501  0.00000000000E+00  0.00000000000E+00  0.52108086086E+03  0.52108086086E+03  0.00000000000E+00 0. -1.
         21   -1    0    0  501  502 -0.00000000000E+00 -0.00000000000E+00 -0.36884612492E+03  0.36884612492E+03  0.00000000000E+00 0. -1.
         25    1    1    2    0    0  0.36695500342E+03 -0.13129374171E+02 -0.17264988158E+02  0.38826722089E+03  0.12500000000E+03 0.  0.
         25    1    1    2    0    0 -0.10190080038E+03 -0.53880340462E+02  0.42137651127E+02  0.17517832586E+03  0.12500000000E+03 0.  0.
         25    1    1    2    0    0 -0.26505420304E+03  0.67009714633E+02  0.12736207298E+03  0.32648143904E+03  0.12500000000E+03 0.  0.
</event>
<event>
 5    0  0.5619558E-005  0.3859254E+03  0.7546771E-02  0.1048765E+00
         21   -1    0    0  502  501  0.00000000000E+00  0.00000000000E+00  0.37097957464E+03  0.37097957464E+03  0.00000000000E+00 0.  1.
         21   -1    0    0  501  502 -0.00000000000E+00 -0.00000000000E+00 -0.40147326504E+03  0.40147326504E+03  0.00000000000E+00 0.  1.
         25    1    1    2    0    0  0.20270783840E+02  0.54083295758E+02  0.30933320026E+03  0.33859701172E+03  0.12500000000E+03 0.  0.
         25    1    1    2    0    0  0.26754805524E+02 -0.16593341152E+02 -0.13677804610E+03  0.18794784512E+03  0.12500000000E+03 0.  0.
         25    1    1    2    0    0 -0.47025589363E+02 -0.37489954606E+02 -0.20304884456E+03  0.24590798285E+03  0.12500000000E+03 0.  0.
</event>
<event>
 5    0  0.5619558E-005  0.4291044E+03  0.7546771E-02  0.1034143E+00
         21   -1    0    0  502  501  0.00000000000E+00  0.00000000000E+00  0.18714206505E+03  0.18714206505E+03  0.00000000000E+00 0. -1.
         21   -1    0    0  501  502 -0.00000000000E+00 -0.00000000000E+00 -0.98390794085E+03  0.98390794085E+03  0.00000000000E+00 0. -1.
         25    1    1    2    0    0  0.82376357740E+02 -0.70714510547E+02 -0.38789435054E+02  0.17004713049E+03  0.12500000000E+03 0.  0.
         25    1    1    2    0    0  0.48884125644E+02 -0.15001481674E+03 -0.67382530340E+03  0.70324934589E+03  0.12500000000E+03 0.  0.
         25    1    1    2    0    0 -0.13126048338E+03  0.22072932729E+03 -0.84151137347E+02  0.29775352952E+03  0.12500000000E+03 0.  0.
</event>
<event>
 5    0  0.5619558E-005  0.2755759E+03  0.7546771E-02  0.1098130E+00
         21   -1    0    0  502  501  0.00000000000E+00  0.00000000000E+00  0.29180146178E+03  0.29180146178E+03  0.00000000000E+00 0.  1.
         21   -1    0    0  501  502 -0.00000000000E+00 -0.00000000000E+00 -0.26025262131E+03  0.26025262131E+03  0.00000000000E+00 0.  1.
         25    1    1    2    0    0 -0.74131348507E+02 -0.14521556751E+02 -0.11522251204E+03  0.18603107193E+03  0.12500000000E+03 0.  0.
         25    1    1    2    0    0  0.11347768057E+03 -0.62670574531E+02  0.10432834914E+03  0.20812061247E+03  0.12500000000E+03 0.  0.
         25    1    1    2    0    0 -0.39346332061E+02  0.77192131282E+02  0.42443003363E+02  0.15790239869E+03  0.12500000000E+03 0.  0.
</event>
<event>
 5    0  0.5781345E-005  0.3040671E+03  0.7546771E-02  0.1083225E+00
         21   -1    0    0  502  501  0.00000000000E+00  0.00000000000E+00  0.47809348939E+03  0.47809348939E+03  0.00000000000E+00 0.  1.
         21   -1    0    0  501  502 -0.00000000000E+00 -0.00000000000E+00 -0.19338650991E+03  0.19338650991E+03  0.00000000000E+00 0. -1.
         25    1    1    2    0    0  0.62389853864E+02 -0.43609068495E+02  0.42877068315E+02  0.15250471372E+03  0.12500000000E+03 0.  0.
         25    1    1    2    0    0  0.15564468048E+03  0.51830276250E+02  0.12979696727E+03  0.24368811381E+03  0.12500000000E+03 0.  0.
         25    1    1    2    0    0 -0.21803453434E+03 -0.82212077553E+01  0.11203294389E+03  0.27528717177E+03  0.12500000000E+03 0.  0.
</event>
<event>
 5    0  0.5619558E-005  0.4396481E+03  0.7546771E-02  0.1030855E+00
         21   -1    0    0  502  501  0.00000000000E+00  0.00000000000E+00  0.66835996497E+03  0.66835996497E+03  0.00000000000E+00 0. -1.
         21   -1    0    0  501  502 -0.00000000000E+00 -0.00000000000E+00 -0.28920115630E+03  0.28920115630E+03  0.00000000000E+00 0. -1.
         25    1    1    2    0    0 -0.74172340721E+02  0.19052374673E+02 -0.41264662785E+02  0.15229018847E+03  0.12500000000E+03 0.  0.
         25    1    1    2    0    0  0.31054750346E+03  0.12311746613E+03  0.33805810453E+03  0.49143254309E+03  0.12500000000E+03 0.  0.
         25    1    1    2    0    0 -0.23637516274E+03 -0.14216984080E+03  0.82365366926E+02  0.31383838972E+03  0.12500000000E+03 0.  0.
</event>
<event>
 5    0  0.5619558E-005  0.2975587E+03  0.7546771E-02  0.1086467E+00
         21   -1    0    0  502  501  0.00000000000E+00  0.00000000000E+00  0.45866169588E+02  0.45866169588E+02  0.00000000000E+00 0. -1.
         21   -1    0    0  501  502 -0.00000000000E+00 -0.00000000000E+00 -0.19304246489E+04  0.19304246489E+04  0.00000000000E+00 0. -1.
         25    1    1    2    0    0 -0.12333118699E+03  0.47851886282E+02 -0.27550490087E+03  0.33019438989E+03  0.12500000000E+03 0.  0.
         25    1    1    2    0    0 -0.13913812517E+02  0.15062643986E+02 -0.95319265239E+03  0.96157251936E+03  0.12500000000E+03 0.  0.
         25    1    1    2    0    0  0.13724499951E+03 -0.62914530268E+02 -0.65586092610E+03  0.68452390929E+03  0.12500000000E+03 0.  0.
</event>
<event>
 5    0  0.5619558E-005  0.2537576E+03  0.7546771E-02  0.1110953E+00
         21   -1    0    0  502  501  0.00000000000E+00  0.00000000000E+00  0.61250772079E+03  0.61250772079E+03  0.00000000000E+00 0.  1.
         21   -1    0    0  501  502 -0.00000000000E+00 -0.00000000000E+00 -0.10512997816E+03  0.10512997816E+03  0.00000000000E+00 0.  1.
         25    1    1    2    0    0  0.10976750137E+03 -0.21915451950E+02  0.12164716721E+03  0.20724918500E+03  0.12500000000E+03 0.  0.
         25    1    1    2    0    0 -0.31128367667E+02 -0.66680071851E+02  0.25797968952E+03  0.29596237507E+03  0.12500000000E+03 0.  0.
         25    1    1    2    0    0 -0.78639133702E+02  0.88595523801E+02  0.12775088590E+03  0.21442613888E+03  0.12500000000E+03 0.  0.
</event>
<event>
 5    0  0.5619558E-005  0.2841808E+03  0.7546771E-02  0.1093427E+00
         21   -1    0    0  502  501  0.00000000000E+00  0.00000000000E+00  0.64412563379E+03  0.64412563379E+03  0.00000000000E+00 0.  1.
         21   -1    0    0  501  502 -0.00000000000E+00 -0.00000000000E+00 -0.12537733380E+03  0.12537733380E+03  0.00000000000E+00 0.  1.
         25    1    1    2    0    0 -0.32127978028E+01  0.57607990839E+00  0.56247135938E+02  0.13711088301E+03  0.12500000000E+03 0.  0.
         25    1    1    2    0    0  0.56859294156E+02  0.49423751025E+02  0.46508294979E+03  0.48744521403E+03  0.12500000000E+03 0.  0.
         25    1    1    2    0    0 -0.53646496353E+02 -0.49999830933E+02 -0.25817857491E+01  0.14494687055E+03  0.12500000000E+03 0.  0.
</event>
<event>
 5    0  0.5619558E-005  0.3501685E+03  0.7546771E-02  0.1062546E+00
         21   -1    0    0  502  501  0.00000000000E+00  0.00000000000E+00  0.46680582133E+03  0.46680582133E+03  0.00000000000E+00 0.  1.
         21   -1    0    0  501  502 -0.00000000000E+00 -0.00000000000E+00 -0.26267444519E+03  0.26267444519E+03  0.00000000000E+00 0.  1.
         25    1    1    2    0    0  0.70871680102E+02  0.18672625110E+03 -0.12626058651E+03  0.26731296938E+03  0.12500000000E+03 0.  0.
         25    1    1    2    0    0 -0.28226366851E+02 -0.10702168481E+03  0.19698360796E+03  0.25822066263E+03  0.12500000000E+03 0.  0.
         25    1    1    2    0    0 -0.42645313252E+02 -0.79704566293E+02  0.13340835469E+03  0.20394663452E+03  0.12500000000E+03 0.  0.
</event>
<event>
 5    0  0.5619558E-005  0.2550343E+03  0.7546771E-02  0.1110164E+00
         21   -1    0    0  502  501  0.00000000000E+00  0.00000000000E+00  0.41465806642E+03  0.41465806642E+03  0.00000000000E+00 0.  1.
         21   -1    0    0  501  502 -0.00000000000E+00 -0.00000000000E+00 -0.15685820086E+03  0.15685820086E+03  0.00000000000E+00 0.  1.
         25    1    1    2    0    0  0.53415770677E+01 -0.94768953165E+02  0.14165116977E+03  0.21142313219E+03  0.12500000000E+03 0.  0.
         25    1    1    2    0    0  0.70815339454E+02  0.18675099036E+02  0.12985702718E+03  0.19455441176E+03  0.12500000000E+03 0.  0.
         25    1    1    2    0    0 -0.76156916521E+02  0.76093854128E+02 -0.13708331389E+02  0.16553872332E+03  0.12500000000E+03 0.  0.
</event>
<event>
 5    0  0.5619558E-005  0.2527800E+03  0.7546771E-02  0.1111560E+00
         21   -1    0    0  502  501  0.00000000000E+00  0.00000000000E+00  0.37832378858E+03  0.37832378858E+03  0.00000000000E+00 0. -1.
         21   -1    0    0  501  502 -0.00000000000E+00 -0.00000000000E+00 -0.16889695738E+03  0.16889695738E+03  0.00000000000E+00 0. -1.
         25    1    1    2    0    0 -0.11240757378E+03  0.58816938604E+02  0.10116071635E+03  0.20482525587E+03  0.12500000000E+03 0.  0.
         25    1    1    2    0    0  0.38506948124E+02 -0.10981644697E+03  0.61899206751E+02  0.18165612810E+03  0.12500000000E+03 0.  0.
         25    1    1    2    0    0  0.73900625659E+02  0.50999508370E+02  0.46366908090E+02  0.16073936199E+03  0.12500000000E+03 0.  0.
</event>
<event>
 5    0  0.5619558E-005  0.5015675E+03  0.7546771E-02  0.1013371E+00
         21   -1    0    0  502  501  0.00000000000E+00  0.00000000000E+00  0.14540820751E+03  0.14540820751E+03  0.00000000000E+00 0.  1.
         21   -1    0    0  501  502 -0.00000000000E+00 -0.00000000000E+00 -0.17300947508E+04  0.17300947508E+04  0.00000000000E+00 0.  1.
         25    1    1    2    0    0 -0.36096169936E+03  0.77337442152E+02 -0.43274651233E+03  0.58238215314E+03  0.12500000000E+03 0.  0.
         25    1    1    2    0    0  0.10970458421E+02  0.38712572630E+02 -0.82667131108E+02  0.15517045081E+03  0.12500000000E+03 0.  0.
         25    1    1    2    0    0  0.34999124094E+03 -0.11605001478E+03 -0.10692728999E+04  0.11379503544E+04  0.12500000000E+03 0.  0.
</event>
<event>
 5    0  0.5619558E-005  0.4725905E+03  0.7546771E-02  0.1021192E+00
         21   -1    0    0  502  501  0.00000000000E+00  0.00000000000E+00  0.11455179097E+04  0.11455179097E+04  0.00000000000E+00 0.  1.
         21   -1    0    0  501  502 -0.00000000000E+00 -0.00000000000E+00 -0.19497013918E+03  0.19497013918E+03  0.00000000000E+00 0.  1.
         25    1    1    2    0    0 -0.45891041363E+02  0.96948132538E+02  0.12034028583E+03  0.20398949109E+03  0.12500000000E+03 0.  0.
         25    1    1    2    0    0  0.25952528091E+03 -0.17010301625E+03  0.81171418424E+02  0.34424149479E+03  0.12500000000E+03 0.  0.
         25    1    1    2    0    0 -0.21363423955E+03  0.73154883710E+02  0.74903606622E+03  0.79225706296E+03  0.12500000000E+03 0.  0.
</event>
<event>
 5    0  0.7814591E-005  0.2953043E+03  0.7546771E-02  0.1087612E+00
         21   -1    0    0  502  501  0.00000000000E+00  0.00000000000E+00  0.39844369290E+03  0.39844369290E+03  0.00000000000E+00 0.  1.
         21   -1    0    0  501  502 -0.00000000000E+00 -0.00000000000E+00 -0.21886306713E+03  0.21886306713E+03  0.00000000000E+00 0.  1.
         25    1    1    2    0    0  0.11065025721E+03  0.12370627418E+03  0.17794306476E+03  0.27356069892E+03  0.12500000000E+03 0.  0.
         25    1    1    2    0    0  0.17360753425E+02 -0.63587723592E+02 -0.46833527282E+02  0.14887301175E+03  0.12500000000E+03 0.  0.
         25    1    1    2    0    0 -0.12801101064E+03 -0.60118550591E+02  0.48471088290E+02  0.19487304937E+03  0.12500000000E+03 0.  0.
</event>
<event>
 5    0  0.5619558E-005  0.3264993E+03  0.7546771E-02  0.1072696E+00
         21   -1    0    0  502  501  0.00000000000E+00  0.00000000000E+00  0.68855150582E+03  0.68855150582E+03  0.00000000000E+00 0. -1.
         21   -1    0    0  501  502 -0.00000000000E+00 -0.00000000000E+00 -0.15482040079E+03  0.15482040079E+03  0.00000000000E+00 0. -1.
         25    1    1    2    0    0 -0.86073992653E+02  0.10798926568E+03  0.35578689290E+03  0.40159647268E+03  0.12500000000E+03 0.  0.
         25    1    1    2    0    0  0.89305334596E+02 -0.14564785280E+03 -0.11132487220E+02  0.21198507515E+03  0.12500000000E+03 0.  0.
         25    1    1    2    0    0 -0.32313419431E+01  0.37658587125E+02  0.18907669935E+03  0.22979035879E+03  0.12500000000E+03 0.  0.
</event>
<event>
 5    0  0.5619558E-005  0.2745243E+03  0.7546771E-02  0.1098718E+00
         21   -1    0    0  502  501  0.00000000000E+00  0.00000000000E+00  0.22234960563E+03  0.22234960563E+03  0.00000000000E+00 0.  1.
         21   -1    0    0  501  502 -0.00000000000E+00 -0.00000000000E+00 -0.33894182964E+03  0.33894182964E+03  0.00000000000E+00 0.  1.
         25    1    1    2    0    0 -0.77223301401E+02 -0.24347924197E+02  0.15587203473E+02  0.14974718897E+03  0.12500000000E+03 0.  0.
         25    1    1    2    0    0 -0.34501916607E+02  0.81687321631E+00  0.70386520359E+02  0.14754765935E+03  0.12500000000E+03 0.  0.
         25    1    1    2    0    0  0.11172521801E+03  0.23531050981E+02 -0.20256594784E+03  0.26399658696E+03  0.12500000000E+03 0.  0.
</event>
<event>
 5    0  0.5619558E-005  0.2467923E+03  0.7546771E-02  0.1115349E+00
         21   -1    0    0  502  501  0.00000000000E+00  0.00000000000E+00  0.29741403469E+03  0.29741403469E+03  0.00000000000E+00 0.  1.
         21   -1    0    0  501  502 -0.00000000000E+00 -0.00000000000E+00 -0.20478669506E+03  0.20478669506E+03  0.00000000000E+00 0.  1.
         25    1    1    2    0    0 -0.44816370503E+02  0.92883325726E+01  0.26665075750E+02  0.13576010626E+03  0.12500000000E+03 0.  0.
         25    1    1    2    0    0  0.93849023384E+02  0.90648982968E+02 -0.13416887560E+02  0.18119020441E+03  0.12500000000E+03 0.  0.
         25    1    1    2    0    0 -0.49032652881E+02 -0.99937315541E+02  0.79379151437E+02  0.18525041908E+03  0.12500000000E+03 0.  0.
</event>
<event>
 5    0  0.5619558E-005  0.2948991E+03  0.7546771E-02  0.1087819E+00
         21   -1    0    0  502  501  0.00000000000E+00  0.00000000000E+00  0.37084161410E+03  0.37084161410E+03  0.00000000000E+00 0. -1.
         21   -1    0    0  501  502 -0.00000000000E+00 -0.00000000000E+00 -0.23450834913E+03  0.23450834913E+03  0.00000000000E+00 0. -1.
         25    1    1    2    0    0  0.76036782789E+02 -0.12015483773E+03  0.10147443458E+03  0.21480418581E+03  0.12500000000E+03 0.  0.
         25    1    1    2    0    0 -0.10606850072E+03  0.33013191927E+02 -0.91233123167E+02  0.19049640535E+03  0.12500000000E+03 0.  0.
         25    1    1    2    0    0  0.30031717935E+02  0.87141645805E+02  0.12609195355E+03  0.20004937207E+03  0.12500000000E+03 0.  0.
</event>
<event>
 5    0  0.5619558E-005  0.2941140E+03  0.7546771E-02  0.1088221E+00
         21   -1    0    0  502  501  0.00000000000E+00  0.00000000000E+00  0.25709456760E+04  0.25709456760E+04  0.00000000000E+00 0. -1.
         21   -1    0    0  501  502 -0.00000000000E+00 -0.00000000000E+00 -0.33646395807E+02  0.33646395807E+02  0.00000000000E+00 0. -1.
         25    1    1    2    0    0 -0.92904026062E+01  0.74530088400E+01  0.17416158416E+04  0.17461364777E+04  0.12500000000E+03 0.  0.
         25    1    1    2    0    0 -0.41217926227E+02  0.85195999987E+02  0.43554762225E+03  0.46290820592E+03  0.12500000000E+03 0.  0.
         25    1    1    2    0    0  0.50508328833E+02 -0.92649008827E+02  0.36013581631E+03  0.39554738820E+03  0.12500000000E+03 0.  0.
</event>
<event>
 5    0  0.5619558E-005  0.2872122E+03  0.7546771E-02  0.1091814E+00
         21   -1    0    0  502  501  0.00000000000E+00  0.00000000000E+00  0.44326032346E+03  0.44326032346E+03  0.00000000000E+00 0. -1.
         21   -1    0    0  501  502 -0.00000000000E+00 -0.00000000000E+00 -0.18610028861E+03  0.18610028861E+03  0.00000000000E+00 0. -1.
         25    1    1    2    0    0 -0.21882327334E+02 -0.73709057670E+02  0.19164014601E+03  0.24137689822E+03  0.12500000000E+03 0.  0.
         25    1    1    2    0    0  0.14888168517E+03  0.23617198429E+02  0.16626103111E+02  0.19653232697E+03  0.12500000000E+03 0.  0.
         25    1    1    2    0    0 -0.12699935784E+03  0.50091859241E+02  0.48893785735E+02  0.19145138688E+03  0.12500000000E+03 0.  0.
</event>
<event>
 5    0  0.5619558E-005  0.2069527E+03  0.7546771E-02  0.1144002E+00
         21   -1    0    0  502  501  0.00000000000E+00  0.00000000000E+00  0.52149563874E+02  0.52149563874E+02  0.00000000000E+00 0. -1.
         21   -1    0    0  501  502 -0.00000000000E+00 -0.00000000000E+00 -0.82128080669E+03  0.82128080669E+03  0.00000000000E+00 0. -1.
         25    1    1    2    0    0  0.32111653699E+02  0.25172352194E+01 -0.33196037347E+03  0.35617437349E+03  0.12500000000E+03 0.  0.
         25    1    1    2    0    0 -0.38353465278E+02  0.82272019374E+01 -0.31873949414E+03  0.34461361012E+03  0.12500000000E+03 0.  0.
         25    1    1    2    0    0  0.62418115791E+01 -0.10744437157E+02 -0.11843137520E+03  0.17264238695E+03  0.12500000000E+03 0.  0.
</event>
<event>
 5    0  0.5619558E-005  0.3351505E+03  0.7546771E-02  0.1068880E+00
         21   -1    0    0  502  501  0.00000000000E+00  0.00000000000E+00  0.95067841254E+03  0.95067841254E+03  0.00000000000E+00 0. -1.
         21   -1    0    0  501  502 -0.00000000000E+00 -0.00000000000E+00 -0.11815336683E+03  0.11815336683E+03  0.00000000000E+00 0. -1.
         25    1    1    2    0    0  0.66902956459E+02 -0.83181159356E+01  0.32571195316E+03  0.35532868315E+03  0.12500000000E+03 0.  0.
         25    1    1    2    0    0 -0.15482956994E+03  0.18273827113E+03  0.28148396810E+03  0.39015855209E+03  0.12500000000E+03 0.  0.
         25    1    1    2    0    0  0.87926613485E+02 -0.17442015520E+03  0.22532912444E+03  0.32334454413E+03  0.12500000000E+03 0.  0.
</event>
<event>
 5    0  0.5619558E-005  0.2504498E+03  0.7546771E-02  0.1113021E+00
         21   -1    0    0  502  501  0.00000000000E+00  0.00000000000E+00  0.13602506239E+04  0.13602506239E+04  0.00000000000E+00 0.  1.
         21   -1    0    0  501  502 -0.00000000000E+00 -0.00000000000E+00 -0.46112907850E+02  0.46112907850E+02  0.00000000000E+00 0.  1.
         25    1    1    2    0    0 -0.10424031623E+03 -0.10940393427E+03  0.51833030761E+03  0.55419001448E+03  0.12500000000E+03 0.  0.
         25    1    1    2    0    0  0.80373127508E+02  0.55878876618E+02  0.52072574651E+03  0.54439194663E+03  0.12500000000E+03 0.  0.
         25    1    1    2    0    0  0.23867188720E+02  0.53525057656E+02  0.27508166191E+03  0.30778157062E+03  0.12500000000E+03 0.  0.
</event>
<event>
 5    0  0.5619558E-005  0.3214594E+03  0.7546771E-02  0.1074980E+00
         21   -1    0    0  502  501  0.00000000000E+00  0.00000000000E+00  0.10372182921E+03  0.10372182921E+03  0.00000000000E+00 0. -1.
         21   -1    0    0  501  502 -0.00000000000E+00 -0.00000000000E+00 -0.99628157359E+03  0.99628157359E+03  0.00000000000E+00 0. -1.
         25    1    1    2    0    0 -0.19419688645E+03 -0.25427600802E+02 -0.41366374345E+03  0.47444882362E+03  0.12500000000E+03 0.  0.
         25    1    1    2    0    0  0.32105883373E+01 -0.76077941923E+02 -0.12563883273E+03  0.19289447222E+03  0.12500000000E+03 0.  0.
         25    1    1    2    0    0  0.19098629812E+03  0.10150554272E+03 -0.35325716820E+03  0.43266010696E+03  0.12500000000E+03 0.  0.
</event>
<event>
 5    0  0.5739862E-005  0.4344231E+03  0.7546771E-02  0.1032472E+00
         21   -1    0    0  502  501  0.00000000000E+00  0.00000000000E+00  0.92351775326E+03  0.92351775326E+03  0.00000000000E+00 0.  1.
         21   -1    0    0  501  502 -0.00000000000E+00 -0.00000000000E+00 -0.20435282527E+03  0.20435282527E+03  0.00000000000E+00 0.  1.
         25    1    1    2    0    0 -0.41482081333E+02 -0.14311482457E+02  0.49773209254E+03  0.51506098429E+03  0.12500000000E+03 0.  0.
         25    1    1    2    0    0  0.19367823585E+03  0.12249365602E+03  0.27774109899E+03  0.38115754338E+03  0.12500000000E+03 0.  0.
         25    1    1    2    0    0 -0.15219615452E+03 -0.10818217357E+03 -0.56308263537E+02  0.23165205086E+03  0.12500000000E+03 0.  0.
</event>
<event>
 5    0  0.5619558E-005  0.6192998E+03  0.7546771E-02  0.9866155E-01
         21   -1    0    0  502  501  0.00000000000E+00  0.00000000000E+00  0.54579627953E+03  0.54579627953E+03  0.00000000000E+00 0.  1.
         21   -1    0    0  501  502 -0.00000000000E+00 -0.00000000000E+00 -0.70270210754E+03  0.70270210754E+03  0.00000000000E+00 0.  1.
         25    1    1    2    0    0 -0.18480737364E+03 -0.28521418737E+02 -0.71797675508E+02  0.23610832871E+03  0.12500000000E+03 0.  0.
         25    1    1    2    0    0 -0.35849004751E+03  0.19477632930E+03 -0.22909883978E+02  0.42732048324E+03  0.12500000000E+03 0.  0.
         25    1    1    2    0    0  0.54329742115E+03 -0.16625491056E+03 -0.62198268530E+02  0.58506957511E+03  0.12500000000E+03 0.  0.
</event>
<event>
 5    0  0.5619558E-005  0.3223206E+03  0.7546771E-02  0.1074586E+00
         21   -1    0    0  502  501  0.00000000000E+00  0.00000000000E+00  0.81436253855E+03  0.81436253855E+03  0.00000000000E+00 0.  1.
         21   -1    0    0  501  502 -0.00000000000E+00 -0.00000000000E+00 -0.12757286779E+03  0.12757286779E+03  0.00000000000E+00 0.  1.
         25    1    1    2    0    0  0.75866610706E+02  0.22089575705E+03  0.25383381612E+03  0.36688865383E+03  0.12500000000E+03 0.  0.
         25    1    1    2    0    0 -0.16828292108E+02 -0.19756247407E+03  0.23009678723E+03  0.32845647211E+03  0.12500000000E+03 0.  0.
         25    1    1    2    0    0 -0.59038318598E+02 -0.23333282975E+02  0.20285906742E+03  0.24659028041E+03  0.12500000000E+03 0.  0.
</event>
<event>
 5    0  0.5619558E-005  0.3071399E+03  0.7546771E-02  0.1081725E+00
         21   -1    0    0  502  501  0.00000000000E+00  0.00000000000E+00  0.51613605987E+03  0.51613605987E+03  0.00000000000E+00 0.  1.
         21   -1    0    0  501  502 -0.00000000000E+00 -0.00000000000E+00 -0.18277145058E+03  0.18277145058E+03  0.00000000000E+00 0.  1.
         25    1    1    2    0    0 -0.13281844960E+03 -0.21817065032E+02  0.48367909128E+02  0.18995046595E+03  0.12500000000E+03 0.  0.
         25    1    1    2    0    0  0.73135365133E+02  0.15538097053E+03  0.77843665581E+02  0.22622259814E+03  0.12500000000E+03 0.  0.
         25    1    1    2    0    0  0.59683084468E+02 -0.13356390550E+03  0.20715303458E+03  0.28273444636E+03  0.12500000000E+03 0.  0.
</event>
<event>
 5    0  0.5619558E-005  0.2329198E+03  0.7546771E-02  0.1124601E+00
         21   -1    0    0  502  501  0.00000000000E+00  0.00000000000E+00  0.37337808857E+02  0.37337808857E+02  0.00000000000E+00 0. -1.
         21   -1    0    0  501  502 -0.00000000000E+00 -0.00000000000E+00 -0.14529943410E+04  0.14529943410E+04  0.00000000000E+00 0. -1.
         25    1    1    2    0    0 -0.19953677966E+02  0.43107962954E+02 -0.83384967851E+03  0.84450383782E+03  0.12500000000E+03 0.  0.
         25    1    1    2    0    0 -0.10800128546E+01 -0.33164999744E+02 -0.16258781469E+03  0.20775197019E+03  0.12500000000E+03 0.  0.
         25    1    1    2    0    0  0.21033690821E+02 -0.99429632109E+01 -0.41921903890E+03  0.43807634180E+03  0.12500000000E+03 0.  0.
</event>
<event>
 5    0  0.5619558E-005  0.5378406E+03  0.7546771E-02  0.1004348E+00
         21   -1    0    0  502  501  0.00000000000E+00  0.00000000000E+00  0.40538011084E+03  0.40538011084E+03  0.00000000000E+00 0.  1.
         21   -1    0    0  501  502 -0.00000000000E+00 -0.00000000000E+00 -0.71358349707E+03  0.71358349707E+03  0.00000000000E+00 0.  1.
         25    1    1    2    0    0 -0.84899771268E+02  0.28389218434E+03 -0.50122919116E+02  0.32548433221E+03  0.12500000000E+03 0.  0.
         25    1    1    2    0    0  0.31123339409E+03 -0.16796553790E+03  0.45912500642E+02  0.37790422759E+03  0.12500000000E+03 0.  0.
         25    1    1    2    0    0 -0.22633362282E+03 -0.11592664644E+03 -0.30399296775E+03  0.41557504811E+03  0.12500000000E+03 0.  0.
</event>
<event>
 5    0  0.5619558E-005  0.4230123E+03  0.7546771E-02  0.1036090E+00
         21   -1    0    0  502  501  0.00000000000E+00  0.00000000000E+00  0.21381437127E+03  0.21381437127E+03  0.00000000000E+00 0.  1.
         21   -1    0    0  501  502 -0.00000000000E+00 -0.00000000000E+00 -0.83689134017E+03  0.83689134017E+03  0.00000000000E+00 0.  1.
         25    1    1    2    0    0  0.84801008809E+02 -0.77998116982E+02 -0.57185691199E+03  0.59659051714E+03  0.12500000000E+03 0.  0.
         25    1    1    2    0    0  0.22822380386E+02  0.86524665372E+02  0.13543292938E+03  0.20487668761E+03  0.12500000000E+03 0.  0.
         25    1    1    2    0    0 -0.10762338920E+03 -0.85265483905E+01 -0.18665298630E+03  0.24923850670E+03  0.12500000000E+03 0.  0.
</event>
<event>
 5    0  0.5619558E-005  0.2874375E+03  0.7546771E-02  0.1091695E+00
         21   -1    0    0  502  501  0.00000000000E+00  0.00000000000E+00  0.25858445455E+03  0.25858445455E+03  0.00000000000E+00 0.  1.
         21   -1    0    0  501  502 -0.00000000000E+00 -0.00000000000E+00 -0.31950994408E+03  0.31950994408E+03  0.00000000000E+00 0.  1.
         25    1    1    2    0    0  0.15604912381E+02  0.14396282660E+03  0.11195502268E+03  0.22164777427E+03  0.12500000000E+03 0.  0.
         25    1    1    2    0    0  0.31321644876E+02 -0.11428833722E+03 -0.11942723966E+03  0.20959660072E+03  0.12500000000E+03 0.  0.
         25    1    1    2    0    0 -0.46926557256E+02 -0.29674489378E+02 -0.53453272549E+02  0.14685002364E+03  0.12500000000E+03 0.  0.
</event>
<event>
 5    0  0.5619558E-005  0.2518569E+03  0.7546771E-02  0.1112137E+00
         21   -1    0    0  502  501  0.00000000000E+00  0.00000000000E+00  0.82476775346E+02  0.82476775346E+02  0.00000000000E+00 0. -1.
         21   -1    0    0  501  502 -0.00000000000E+00 -0.00000000000E+00 -0.76908821853E+03  0.76908821853E+03  0.00000000000E+00 0. -1.
         25    1    1    2    0    0  0.80034136169E+02  0.12151268318E+02 -0.10014272799E+03  0.17946220282E+03  0.12500000000E+03 0.  0.
         25    1    1    2    0    0 -0.85012983276E+02  0.63466170820E+02 -0.41830301379E+03  0.44928562576E+03  0.12500000000E+03 0.  0.
         25    1    1    2    0    0  0.49788471064E+01 -0.75617439138E+02 -0.16816570140E+03  0.22281716529E+03  0.12500000000E+03 0.  0.
</event>
<event>
 5    0  0.5619558E-005  0.2432719E+03  0.7546771E-02  0.1117632E+00
         21   -1    0    0  502  501  0.00000000000E+00  0.00000000000E+00  0.17260705819E+04  0.17260705819E+04  0.00000000000E+00 0.  1.
         21   -1    0    0  501  502 -0.00000000000E+00 -0.00000000000E+00 -0.34286686836E+02  0.34286686836E+02  0.00000000000E+00 0.  1.
         25    1    1    2    0    0  0.23372765260E+02 -0.13721106676E+02  0.66055596865E+03  0.67282519472E+03  0.12500000000E+03 0.  0.
         25    1    1    2    0    0 -0.41463290974E+02 -0.15491921748E+02  0.16511686294E+03  0.21177295051E+03  0.12500000000E+03 0.  0.
         25    1    1    2    0    0  0.18090525714E+02  0.29213028424E+02  0.86611106343E+03  0.87575912348E+03  0.12500000000E+03 0.  0.
</event>
<event>
 5    0  0.5863559E-005  0.3206269E+03  0.7546771E-02  0.1075361E+00
         21   -1    0    0  502  501  0.00000000000E+00  0.00000000000E+00  0.77810904404E+02  0.77810904404E+02  0.00000000000E+00 0.  1.
         21   -1    0    0  501  502 -0.00000000000E+00 -0.00000000000E+00 -0.13211725019E+04  0.13211725019E+04  0.00000000000E+00 0.  1.
         25    1    1    2    0    0 -0.62441197638E+02  0.65788706114E+02 -0.13859377737E+03  0.20750973987E+03  0.12500000000E+03 0.  0.
         25    1    1    2    0    0 -0.10782591706E+03 -0.14103030952E+03 -0.63134076031E+03  0.66763173399E+03  0.12500000000E+03 0.  0.
         25    1    1    2    0    0  0.17026711470E+03  0.75241603409E+02 -0.47342705985E+03  0.52384193249E+03  0.12500000000E+03 0.  0.
</event>
<event>
 5    0  0.5619558E-005  0.2698809E+03  0.7546771E-02  0.1101348E+00
         21   -1    0    0  502  501  0.00000000000E+00  0.00000000000E+00  0.13351004967E+03  0.13351004967E+03  0.00000000000E+00 0. -1.
         21   -1    0    0  501  502 -0.00000000000E+00 -0.00000000000E+00 -0.54554458716E+03  0.54554458716E+03  0.00000000000E+00 0. -1.
         25    1    1    2    0    0  0.16684913470E+02 -0.64962753539E+02 -0.13862568465E+03  0.19834471541E+03  0.12500000000E+03 0.  0.
         25    1    1    2    0    0  0.10065508354E+03 -0.56839110571E+02 -0.18823255605E+03  0.25380824551E+03  0.12500000000E+03 0.  0.
         25    1    1    2    0    0 -0.11733999701E+03  0.12180186411E+03 -0.85176296783E+02  0.22690167591E+03  0.12500000000E+03 0.  0.
</event>
<event>
 5    0  0.5619558E-005  0.3567979E+03  0.7546771E-02  0.1059859E+00
         21   -1    0    0  502  501  0.00000000000E+00  0.00000000000E+00  0.14248733843E+03  0.14248733843E+03  0.00000000000E+00 0.  1.
         21   -1    0    0  501  502 -0.00000000000E+00 -0.00000000000E+00 -0.89344594889E+03  0.89344594889E+03  0.00000000000E+00 0.  1.
         25    1    1    2    0    0 -0.19230237077E+03  0.63424884250E+02 -0.55161723546E+03  0.60075743208E+03  0.12500000000E+03 0.  0.
         25    1    1    2    0    0  0.61312168750E+02 -0.10803899141E+03 -0.21577983610E+02  0.17754496636E+03  0.12500000000E+03 0.  0.
         25    1    1    2    0    0  0.13099020202E+03  0.44614107162E+02 -0.17776339139E+03  0.25763088888E+03  0.12500000000E+03 0.  0.
</event>
<event>
 5    0  0.5619558E-005  0.3846629E+03  0.7546771E-02  0.1049224E+00
         21   -1    0    0  502  501  0.00000000000E+00  0.00000000000E+00  0.63014372437E+02  0.63014372437E+02  0.00000000000E+00 0. -1.
         21   -1    0    0  501  502 -0.00000000000E+00 -0.00000000000E+00 -0.23481232230E+04  0.23481232230E+04  0.00000000000E+00 0. -1.
         25    1    1    2    0    0  0.12435716158E+03  0.97194870145E+02 -0.45202434635E+03  0.49483588806E+03  0.12500000000E+03 0.  0.
         25    1    1    2    0    0 -0.18898779705E+03 -0.24815089179E+03 -0.13457766320E+04  0.13870958856E+04  0.12500000000E+03 0.  0.
         25    1    1    2    0    0  0.64630635468E+02  0.15095602164E+03 -0.48730787217E+03  0.52920582176E+03  0.12500000000E+03 0.  0.
</event>
<event>
 5    0  0.5619558E-005  0.3622975E+03  0.7546771E-02  0.1057678E+00
         21   -1    0    0  502  501  0.00000000000E+00  0.00000000000E+00  0.10497422553E+03  0.10497422553E+03  0.00000000000E+00 0.  1.
         21   -1    0    0  501  502 -0.00000000000E+00 -0.00000000000E+00 -0.12503972644E+04  0.12503972644E+04  0.00000000000E+00 0.  1.
         25    1    1    2    0    0  0.19278857547E+03  0.12245884136E+01 -0.65405251768E+03  0.69323778773E+03  0.12500000000E+03 0.  0.
         25    1    1    2    0    0 -0.25377286876E+03 -0.57590707592E+01 -0.22461368262E+03  0.36126187487E+03  0.12500000000E+03 0.  0.
         25    1    1    2    0    0  0.60984293291E+02  0.45344823456E+01 -0.26675683861E+03  0.30087182736E+03  0.12500000000E+03 0.  0.
</event>
<event>
 5    0  0.5619558E-005  0.2984528E+03  0.7546771E-02  0.1086017E+00
         21   -1    0    0  502  501  0.00000000000E+00  0.00000000000E+00  0.45627490277E+03  0.45627490277E+03  0.00000000000E+00 0.  1.
         21   -1    0    0  501  502 -0.00000000000E+00 -0.00000000000E+00 -0.19522012918E+03  0.19522012918E+03  0.00000000000E+00 0.  1.
         25    1    1    2    0    0  0.75084546088E+02 -0.12043221996E+02  0.25756494305E+03  0.29622192381E+03  0.12500000000E+03 0.  0.
         25    1    1    2    0    0 -0.12826220051E+03  0.86141591240E+02  0.19592474877E+02  0.19970085351E+03  0.12500000000E+03 0.  0.
         25    1    1    2    0    0  0.53177654421E+02 -0.74098369244E+02 -0.16102644339E+02  0.15557225462E+03  0.12500000000E+03 0.  0.
</event>
<event>
 5    0  0.5619558E-005  0.4855373E+03  0.7546771E-02  0.1017624E+00
         21   -1    0    0  502  501  0.00000000000E+00  0.00000000000E+00  0.25723399137E+04  0.25723399137E+04  0.00000000000E+00 0. -1.
         21   -1    0    0  501  502 -0.00000000000E+00 -0.00000000000E+00 -0.91646714378E+02  0.91646714378E+02  0.00000000000E+00 0. -1.
         25    1    1    2    0    0 -0.10941551395E+03 -0.54181039175E+02  0.13891131985E+04  0.14000599337E+04  0.12500000000E+03 0.  0.
         25    1    1    2    0    0 -0.20789900697E+03  0.13817696105E+03  0.39364624999E+03  0.48259428073E+03  0.12500000000E+03 0.  0.
         25    1    1    2    0    0  0.31731452092E+03 -0.83995921878E+02  0.69793375091E+03  0.78133241373E+03  0.12500000000E+03 0.  0.
</event>
<event>
 5    0  0.5619558E-005  0.3146821E+03  0.7546771E-02  0.1078123E+00
         21   -1    0    0  502  501  0.00000000000E+00  0.00000000000E+00  0.10923920042E+03  0.10923920042E+03  0.00000000000E+00 0.  1.
         21   -1    0    0  501  502 -0.00000000000E+00 -0.00000000000E+00 -0.90649546269E+03  0.90649546269E+03  0.00000000000E+00 0.  1.
         25    1    1    2    0    0 -0.13091905719E+03  0.55163359857E+02 -0.48347087613E+03  0.51918386326E+03  0.12500000000E+03 0.  0.
         25    1    1    2    0    0  0.15398882216E+03 -0.93369668948E+02 -0.91271056823E+02  0.23745706611E+03  0.12500000000E+03 0.  0.
         25    1    1    2    0    0 -0.23069764972E+02  0.38206309091E+02 -0.22251432932E+03  0.25909373374E+03  0.12500000000E+03 0.  0.
</event>
<event>
 5    0  0.5619558E-005  0.3311649E+03  0.7546771E-02  0.1070623E+00
         21   -1    0    0  502  501  0.00000000000E+00  0.00000000000E+00  0.89615050528E+02  0.89615050528E+02  0.00000000000E+00 0.  1.
         21   -1    0    0  501  502 -0.00000000000E+00 -0.00000000000E+00 -0.12237924698E+04  0.12237924698E+04  0.00000000000E+00 0.  1.
         25    1    1    2    0    0 -0.18003947462E+02  0.59284808525E+02 -0.20870517568E+03  0.25104119384E+03  0.12500000000E+03 0.  0.
         25    1    1    2    0    0  0.12190292062E+03  0.11590372874E+03 -0.71106061916E+03  0.74130034434E+03  0.12500000000E+03 0.  0.
         25    1    1    2    0    0 -0.10389897316E+03 -0.17518853726E+03 -0.21441162444E+03  0.32106598217E+03  0.12500000000E+03 0.  0.
</event>
<event>
 5    0  0.5619558E-005  0.2635231E+03  0.7546771E-02  0.1105045E+00
         21   -1    0    0  502  501  0.00000000000E+00  0.00000000000E+00  0.11164510991E+04  0.11164510991E+04  0.00000000000E+00 0.  1.
         21   -1    0    0  501  502 -0.00000000000E+00 -0.00000000000E+00 -0.62201027167E+02  0.62201027167E+02  0.00000000000E+00 0.  1.
         25    1    1    2    0    0  0.69882457237E+02 -0.94744006628E+00  0.31907838236E+03  0.34974343391E+03  0.12500000000E+03 0.  0.
         25    1    1    2    0    0 -0.15944371663E+03 -0.53993879123E+02  0.50405650987E+03  0.54592637131E+03  0.12500000000E+03 0.  0.
         25    1    1    2    0    0  0.89561259388E+02  0.54941319189E+02  0.23111517973E+03  0.28298232107E+03  0.12500000000E+03 0.  0.
</event>
<event>
 5    0  0.5619558E-005  0.2498575E+03  0.7546771E-02  0.1113395E+00
         21   -1    0    0  502  501  0.00000000000E+00  0.00000000000E+00  0.46411974481E+02  0.46411974481E+02  0.00000000000E+00 0. -1.
         21   -1    0    0  501  502 -0.00000000000E+00 -0.00000000000E+00 -0.13451003602E+04  0.13451003602E+04  0.00000000000E+00 0. -1.
         25    1    1    2    0    0  0.67096663066E+01 -0.55659185710E+02 -0.85482735190E+03  0.86573539037E+03  0.12500000000E+03 0.  0.
         25    1    1    2    0    0 -0.33028832465E+02 -0.18057167307E+02 -0.25172492325E+03  0.28356198979E+03  0.12500000000E+03 0.  0.
         25    1    1    2    0    0  0.26319166158E+02  0.73716353018E+02 -0.19213611053E+03  0.24221495449E+03  0.12500000000E+03 0.  0.
</event>
<event>
 5    0  0.5619558E-005  0.2733494E+03  0.7546771E-02  0.1099378E+00
         21   -1    0    0  502  501  0.00000000000E+00  0.00000000000E+00  0.38498474564E+02  0.38498474564E+02  0.00000000000E+00 0.  1.
         21   -1    0    0  501  502 -0.00000000000E+00 -0.00000000000E+00 -0.19408540235E+04  0.19408540235E+04  0.00000000000E+00 0.  1.
         25    1    1    2    0    0 -0.72873238197E+02  0.76105523200E+02 -0.28555956615E+03  0.32904684367E+03  0.12500000000E+03 0.  0.
         25    1    1    2    0    0 -0.38923399630E+01  0.31154699734E+02 -0.40647147820E+03  0.42641508911E+03  0.12500000000E+03 0.  0.
         25    1    1    2    0    0  0.76765578160E+02 -0.10726022293E+03 -0.12103245046E+04  0.12238905653E+04  0.12500000000E+03 0.  0.
</event>
<event>
 5    0  0.5619558E-005  0.3092217E+03  0.7546771E-02  0.1080720E+00
         21   -1    0    0  502  501  0.00000000000E+00  0.00000000000E+00  0.49254158711E+03  0.49254158711E+03  0.00000000000E+00 0.  1.
         21   -1    0    0  501  502 -0.00000000000E+00 -0.00000000000E+00 -0.19413199533E+03  0.19413199533E+03  0.00000000000E+00 0.  1.
         25    1    1    2    0    0 -0.13123840517E+03 -0.12968424095E+01  0.23895910699E+03  0.29991941519E+03  0.12500000000E+03 0.  0.
         25    1    1    2    0    0  0.48219681449E+02 -0.61642615854E+02 -0.84091523290E+02  0.16976847192E+03  0.12500000000E+03 0.  0.
         25    1    1    2    0    0  0.83018723721E+02  0.62939458264E+02  0.14354200808E+03  0.21698569533E+03  0.12500000000E+03 0.  0.
</event>
