<event>
 5    0  0.5670250E-005  0.2515657E+03  0.7546771E-02  0.1112319E+00
         21   -1    0    0  502  501  0.00000000000E+00  0.00000000000E+00  0.47596219420E+03  0.47596219420E+03  0.00000000000E+00 0. -1.
         21   -1    0    0  501  502 -0.00000000000E+00 -0.00000000000E+00 -0.13296287474E+03  0.13296287474E+03  0.00000000000E+00 0. -1.
         25    1    1    2    0    0  0.23870526052E+02 -0.73288272434E+02  0.29152990109E+03  0.32642863863E+03  0.12500000000E+03 0.  0.
         25    1    1    2    0    0 -0.45062702186E+02  0.47259483504E+02 -0.53850690788E+01  0.14113151625E+03  0.12500000000E+03 0.  0.
         25    1    1    2    0    0  0.21192176134E+02  0.26028788930E+02  0.56854487454E+02  0.14136491406E+03  0.12500000000E+03 0.  0.
</event>
<event>
 5    0  0.5670250E-005  0.3108502E+03  0.7546771E-02  0.1079939E+00
         21   -1    0    0  502  501  0.00000000000E+00  0.00000000000E+00  0.41256704217E+03  0.41256704217E+03  0.00000000000E+00 0. -1.
         21   -1    0    0  501  502 -0.00000000000E+00 -0.00000000000E+00 -0.23421126242E+03  0.23421126242E+03  0.00000000000E+00 0. -1.
         25    1    1    2    0    0  0.41065616167E+02  0.37696818308E+02  0.36639750222E+02  0.14168594227E+03  0.12500000000E+03 0.  0.
         25    1    1    2    0    0  0.10841974367E+03 -0.93916383539E+02 -0.78405162887E+02  0.20578507595E+03  0.12500000000E+03 0.  0.
         25    1    1    2    0    0 -0.14948535984E+03  0.56219565231E+02  0.22012119242E+03  0.29930728637E+03  0.12500000000E+03 0.  0.
</event>
<event>
 5    0  0.5670250E-005  0.2398294E+03  0.7546771E-02  0.1119907E+00
         21   -1    0    0  502  501  0.00000000000E+00  0.00000000000E+00  0.55333689927E+03  0.55333689927E+03  0.00000000000E+00 0.  1.
         21   -1    0    0  501  502 -0.00000000000E+00 -0.00000000000E+00 -0.10394775277E+03  0.10394775277E+03  0.00000000000E+00 0.  1.
         25    1    1    2    0    0  0.49907202203E+02  0.32083041232E+02  0.33878567863E+03  0.36595189085E+03  0.12500000000E+03 0.  0.
         25    1    1    2    0    0 -0.16872127424E+02 -0.49983665367E+02  0.79134861309E+02  0.15706801635E+03  0.12500000000E+03 0.  0.
         25    1    1    2    0    0 -0.33035074779E+02  0.17900624134E+02  0.31468606556E+02  0.13426474485E+03  0.12500000000E+03 0.  0.
</event>
<event>
 5    0  0.5670250E-005  0.2661946E+03  0.7546771E-02  0.1103477E+00
         21   -1    0    0  502  501  0.00000000000E+00  0.00000000000E+00  0.33096650382E+03  0.33096650382E+03  0.00000000000E+00 0.  1.
         21   -1    0    0  501  502 -0.00000000000E+00 -0.00000000000E+00 -0.21409893863E+03  0.21409893863E+03  0.00000000000E+00 0.  1.
         25    1    1    2    0    0  0.14628688076E+03  0.76192671804E+02  0.88950822866E+02  0.22526079021E+03  0.12500000000E+03 0.  0.
         25    1    1    2    0    0 -0.46150773903E+02 -0.55001591521E+02  0.58152699479E+02  0.15544068148E+03  0.12500000000E+03 0.  0.
         25    1    1    2    0    0 -0.10013610685E+03 -0.21191080283E+02 -0.30235957163E+02  0.16436397076E+03  0.12500000000E+03 0.  0.
</event>
<event>
 5    0  0.5670250E-005  0.3492347E+03  0.7546771E-02  0.1062930E+00
         21   -1    0    0  502  501  0.00000000000E+00  0.00000000000E+00  0.34941184500E+03  0.34941184500E+03  0.00000000000E+00 0.  1.
         21   -1    0    0  501  502 -0.00000000000E+00 -0.00000000000E+00 -0.34905766757E+03  0.34905766757E+03  0.00000000000E+00 0.  1.
         25    1    1    2    0    0 -0.31628152307E+02  0.48119085379E+02 -0.95606409890E+02  0.16757497429E+03  0.12500000000E+03 0.  0.
         25    1    1    2    0    0 -0.87177878419E+02 -0.12851854842E+03 -0.12808495112E+03  0.23695517398E+03  0.12500000000E+03 0.  0.
         25    1    1    2    0    0  0.11880603073E+03  0.80399463040E+02  0.22404553844E+03  0.29393936430E+03  0.12500000000E+03 0.  0.
</event>
<event>
 5    0  0.5670250E-005  0.2387085E+03  0.7546771E-02  0.1120656E+00
         21   -1    0    0  502  501  0.00000000000E+00  0.00000000000E+00  0.39447742283E+03  0.39447742283E+03  0.00000000000E+00 0. -1.
         21   -1    0    0  501  502 -0.00000000000E+00 -0.00000000000E+00 -0.14444869553E+03  0.14444869553E+03  0.00000000000E+00 0. -1.
         25    1    1    2    0    0  0.90220049211E+02  0.32582844024E+02  0.68141034860E+01  0.15771090961E+03  0.12500000000E+03 0.  0.
         25    1    1    2    0    0 -0.99391067540E+01  0.25862028724E+02  0.71056642439E+02  0.14642976749E+03  0.12500000000E+03 0.  0.
         25    1    1    2    0    0 -0.80280942457E+02 -0.58444872748E+02  0.17215798138E+03  0.23478544125E+03  0.12500000000E+03 0.  0.
</event>
<event>
 5    0  0.5670250E-005  0.2804384E+03  0.7546771E-02  0.1095450E+00
         21   -1    0    0  502  501  0.00000000000E+00  0.00000000000E+00  0.35515718026E+03  0.35515718026E+03  0.00000000000E+00 0.  1.
         21   -1    0    0  501  502 -0.00000000000E+00 -0.00000000000E+00 -0.22143913747E+03  0.22143913747E+03  0.00000000000E+00 0.  1.
         25    1    1    2    0    0  0.82733386134E+02  0.39606822350E+02  0.22547412429E+02  0.15667450132E+03  0.12500000000E+03 0.  0.
         25    1    1    2    0    0 -0.12871050581E+03 -0.14732776429E+03  0.46149795923E+02  0.23669953126E+03  0.12500000000E+03 0.  0.
         25    1    1    2    0    0  0.45977119676E+02  0.10772094194E+03  0.65020834432E+02  0.18322228515E+03  0.12500000000E+03 0.  0.
</event>
<event>
 5    0  0.5670250E-005  0.3819160E+03  0.7546771E-02  0.1050228E+00
         21   -1    0    0  502  501  0.00000000000E+00  0.00000000000E+00  0.27704978012E+03  0.27704978012E+03  0.00000000000E+00 0. -1.
         21   -1    0    0  501  502 -0.00000000000E+00 -0.00000000000E+00 -0.52647509169E+03  0.52647509169E+03  0.00000000000E+00 0. -1.
         25    1    1    2    0    0  0.53034300741E+02 -0.67673548015E+02  0.17484958645E+03  0.23149454429E+03  0.12500000000E+03 0.  0.
         25    1    1    2    0    0 -0.54383449158E+02 -0.82182842617E+02 -0.84532518662E+02  0.18022853790E+03  0.12500000000E+03 0.  0.
         25    1    1    2    0    0  0.13491484172E+01  0.14985639063E+03 -0.33974237936E+03  0.39180178962E+03  0.12500000000E+03 0.  0.
</event>
<event>
 5    0  0.5670250E-005  0.3026364E+03  0.7546771E-02  0.1083930E+00
         21   -1    0    0  502  501  0.00000000000E+00  0.00000000000E+00  0.22336102554E+03  0.22336102554E+03  0.00000000000E+00 0.  1.
         21   -1    0    0  501  502 -0.00000000000E+00 -0.00000000000E+00 -0.41004814858E+03  0.41004814858E+03  0.00000000000E+00 0.  1.
         25    1    1    2    0    0  0.10070256408E+03 -0.14805575634E+03 -0.53217239108E+02  0.22476340435E+03  0.12500000000E+03 0.  0.
         25    1    1    2    0    0  0.19719328152E+02  0.15286229757E+02 -0.14088881296E+03  0.18999257444E+03  0.12500000000E+03 0.  0.
         25    1    1    2    0    0 -0.12042189224E+03  0.13276952658E+03  0.74189290350E+01  0.21865319533E+03  0.12500000000E+03 0.  0.
</event>
<event>
 5    0  0.5670250E-005  0.3232133E+03  0.7546771E-02  0.1074180E+00
         21   -1    0    0  502  501  0.00000000000E+00  0.00000000000E+00  0.85580609143E+02  0.85580609143E+02  0.00000000000E+00 0.  1.
         21   -1    0    0  501  502 -0.00000000000E+00 -0.00000000000E+00 -0.12206836946E+04  0.12206836946E+04  0.00000000000E+00 0.  1.
         25    1    1    2    0    0 -0.16844989957E+03  0.22811376602E+02 -0.50890900725E+03  0.55091660460E+03  0.12500000000E+03 0.  0.
         25    1    1    2    0    0  0.15543590772E+03  0.74342676094E+02 -0.17040865265E+03  0.27267428151E+03  0.12500000000E+03 0.  0.
         25    1    1    2    0    0  0.13013991853E+02 -0.97154052696E+02 -0.45578542559E+03  0.48267341766E+03  0.12500000000E+03 0.  0.
</event>
<event>
 5    0  0.5670250E-005  0.3203121E+03  0.7546771E-02  0.1075506E+00
         21   -1    0    0  502  501  0.00000000000E+00  0.00000000000E+00  0.10202056028E+04  0.10202056028E+04  0.00000000000E+00 0. -1.
         21   -1    0    0  501  502 -0.00000000000E+00 -0.00000000000E+00 -0.10056782350E+03  0.10056782350E+03  0.00000000000E+00 0. -1.
         25    1    1    2    0    0  0.30060946804E+02  0.62848569059E+02  0.45761923704E+03  0.47947259491E+03  0.12500000000E+03 0.  0.
         25    1    1    2    0    0 -0.13865350549E+03 -0.13305470888E+03  0.37962974323E+03  0.44347727347E+03  0.12500000000E+03 0.  0.
         25    1    1    2    0    0  0.10859255869E+03  0.70206139816E+02  0.82388799050E+02  0.19782355795E+03  0.12500000000E+03 0.  0.
</event>
<event>
 5    0  0.5670250E-005  0.3484212E+03  0.7546771E-02  0.1063265E+00
         21   -1    0    0  502  501  0.00000000000E+00  0.00000000000E+00  0.11433304262E+04  0.11433304262E+04  0.00000000000E+00 0.  1.
         21   -1    0    0  501  502 -0.00000000000E+00 -0.00000000000E+00 -0.10617872252E+03  0.10617872252E+03  0.00000000000E+00 0.  1.
         25    1    1    2    0    0 -0.14766575507E+03  0.18024775666E+02  0.14794872272E+03  0.24422099072E+03  0.12500000000E+03 0.  0.
         25    1    1    2    0    0  0.26392403331E+03  0.10682221164E+02  0.49628563239E+03  0.57592919193E+03  0.12500000000E+03 0.  0.
         25    1    1    2    0    0 -0.11625827824E+03 -0.28706996829E+02  0.39291734862E+03  0.42935896610E+03  0.12500000000E+03 0.  0.
</event>
<event>
 5    0  0.5670250E-005  0.2884536E+03  0.7546771E-02  0.1091159E+00
         21   -1    0    0  502  501  0.00000000000E+00  0.00000000000E+00  0.28800519741E+03  0.28800519741E+03  0.00000000000E+00 0. -1.
         21   -1    0    0  501  502 -0.00000000000E+00 -0.00000000000E+00 -0.28890277685E+03  0.28890277685E+03  0.00000000000E+00 0. -1.
         25    1    1    2    0    0  0.40516625690E+02  0.49534676158E+02 -0.95833001250E+02  0.17001248551E+03  0.12500000000E+03 0.  0.
         25    1    1    2    0    0 -0.34562719237E+02  0.77519574703E+01  0.19669588140E+03  0.23573066021E+03  0.12500000000E+03 0.  0.
         25    1    1    2    0    0 -0.59539064529E+01 -0.57286633628E+02 -0.10176045958E+03  0.17116482854E+03  0.12500000000E+03 0.  0.
</event>
<event>
 5    0  0.5670250E-005  0.2609673E+03  0.7546771E-02  0.1106563E+00
         21   -1    0    0  502  501  0.00000000000E+00  0.00000000000E+00  0.43563562793E+03  0.43563562793E+03  0.00000000000E+00 0. -1.
         21   -1    0    0  501  502 -0.00000000000E+00 -0.00000000000E+00 -0.15633238386E+03  0.15633238386E+03  0.00000000000E+00 0. -1.
         25    1    1    2    0    0 -0.37215770295E+02  0.17099775872E+02  0.67733221263E+02  0.14795338846E+03  0.12500000000E+03 0.  0.
         25    1    1    2    0    0  0.29009930480E+02 -0.79748257330E+02 -0.39817195072E+02  0.15624266267E+03  0.12500000000E+03 0.  0.
         25    1    1    2    0    0  0.82058398157E+01  0.62648481458E+02  0.25138721788E+03  0.28777196067E+03  0.12500000000E+03 0.  0.
</event>
<event>
 5    0  0.5670250E-005  0.2853650E+03  0.7546771E-02  0.1092794E+00
         21   -1    0    0  502  501  0.00000000000E+00  0.00000000000E+00  0.11330748677E+04  0.11330748677E+04  0.00000000000E+00 0.  1.
         21   -1    0    0  501  502 -0.00000000000E+00 -0.00000000000E+00 -0.71869176209E+02  0.71869176209E+02  0.00000000000E+00 0.  1.
         25    1    1    2    0    0  0.14333361054E+02 -0.12974223376E+03  0.41186007566E+03  0.44976906784E+03  0.12500000000E+03 0.  0.
         25    1    1    2    0    0 -0.12561459082E+03  0.50233103130E+02  0.21594830245E+03  0.28383280185E+03  0.12500000000E+03 0.  0.
         25    1    1    2    0    0  0.11128122977E+03  0.79509130628E+02  0.43339731339E+03  0.47134217422E+03  0.12500000000E+03 0.  0.
</event>
<event>
 5    0  0.5670250E-005  0.3727576E+03  0.7546771E-02  0.1053644E+00
         21   -1    0    0  502  501  0.00000000000E+00  0.00000000000E+00  0.22828077169E+03  0.22828077169E+03  0.00000000000E+00 0.  1.
         21   -1    0    0  501  502 -0.00000000000E+00 -0.00000000000E+00 -0.60867239524E+03  0.60867239524E+03  0.00000000000E+00 0.  1.
         25    1    1    2    0    0 -0.10630140387E+03  0.64456234455E+01 -0.11874511734E+03  0.20264979008E+03  0.12500000000E+03 0.  0.
         25    1    1    2    0    0  0.10169541915E+02 -0.23499407800E+03 -0.21570306483E+02  0.26723756173E+03  0.12500000000E+03 0.  0.
         25    1    1    2    0    0  0.96131861952E+02  0.22854845455E+03 -0.24007619972E+03  0.36706581512E+03  0.12500000000E+03 0.  0.
</event>
<event>
 5    0  0.5670250E-005  0.3777167E+03  0.7546771E-02  0.1051781E+00
         21   -1    0    0  502  501  0.00000000000E+00  0.00000000000E+00  0.47452306269E+03  0.47452306269E+03  0.00000000000E+00 0. -1.
         21   -1    0    0  501  502 -0.00000000000E+00 -0.00000000000E+00 -0.30065957082E+03  0.30065957082E+03  0.00000000000E+00 0. -1.
         25    1    1    2    0    0  0.64676981960E+00  0.13849300609E+03  0.16371447338E+03  0.24820991085E+03  0.12500000000E+03 0.  0.
         25    1    1    2    0    0  0.21004671569E+03 -0.10777171831E+03  0.63039864990E+02  0.27446928902E+03  0.12500000000E+03 0.  0.
         25    1    1    2    0    0 -0.21069348551E+03 -0.30721287787E+02 -0.52890846500E+02  0.25250343365E+03  0.12500000000E+03 0.  0.
</event>
<event>
 5    0  0.5938736E-005  0.3842627E+03  0.7546771E-02  0.1049369E+00
         21   -1    0    0  502  501  0.00000000000E+00  0.00000000000E+00  0.53729160891E+03  0.53729160891E+03  0.00000000000E+00 0. -1.
         21   -1    0    0  501  502 -0.00000000000E+00 -0.00000000000E+00 -0.27481880280E+03  0.27481880280E+03  0.00000000000E+00 0. -1.
         25    1    1    2    0    0  0.14295667369E+03  0.18108552763E+02 -0.11886107352E+03  0.22476095087E+03  0.12500000000E+03 0.  0.
         25    1    1    2    0    0  0.26772610728E+02 -0.10028901998E+03  0.31021527248E+03  0.35019019903E+03  0.12500000000E+03 0.  0.
         25    1    1    2    0    0 -0.16972928442E+03  0.82180467219E+02  0.71118607145E+02  0.23715926181E+03  0.12500000000E+03 0.  0.
</event>
<event>
 5    0  0.5670250E-005  0.2424516E+03  0.7546771E-02  0.1118170E+00
         21   -1    0    0  502  501  0.00000000000E+00  0.00000000000E+00  0.57794929428E+03  0.57794929428E+03  0.00000000000E+00 0.  1.
         21   -1    0    0  501  502 -0.00000000000E+00 -0.00000000000E+00 -0.10170925056E+03  0.10170925056E+03  0.00000000000E+00 0.  1.
         25    1    1    2    0    0 -0.16009898396E+02  0.65310239344E+02  0.11937481759E+03  0.18546452837E+03  0.12500000000E+03 0.  0.
         25    1    1    2    0    0  0.12512358163E+02 -0.89531107946E+02  0.32963062308E+03  0.36394192678E+03  0.12500000000E+03 0.  0.
         25    1    1    2    0    0  0.34975402330E+01  0.24220868602E+02  0.27234603056E+02  0.13025208968E+03  0.12500000000E+03 0.  0.
</event>
<event>
 5    0  0.5670250E-005  0.3072257E+03  0.7546771E-02  0.1081683E+00
         21   -1    0    0  502  501  0.00000000000E+00  0.00000000000E+00  0.11206273025E+03  0.11206273025E+03  0.00000000000E+00 0. -1.
         21   -1    0    0  501  502 -0.00000000000E+00 -0.00000000000E+00 -0.84227474449E+03  0.84227474449E+03  0.00000000000E+00 0. -1.
         25    1    1    2    0    0  0.16551501810E+02  0.95528541018E+02 -0.53681972553E+03  0.55964280758E+03  0.12500000000E+03 0.  0.
         25    1    1    2    0    0 -0.61309011455E+02 -0.12589639979E+03 -0.44509619391E+02  0.19291139050E+03  0.12500000000E+03 0.  0.
         25    1    1    2    0    0  0.44757509644E+02  0.30367858775E+02 -0.14888266932E+03  0.20178327666E+03  0.12500000000E+03 0.  0.
</event>
<event>
 5    0  0.5670250E-005  0.2885200E+03  0.7546771E-02  0.1091124E+00
         21   -1    0    0  502  501  0.00000000000E+00  0.00000000000E+00  0.20075867744E+04  0.20075867744E+04  0.00000000000E+00 0. -1.
         21   -1    0    0  501  502 -0.00000000000E+00 -0.00000000000E+00 -0.41464592408E+02  0.41464592408E+02  0.00000000000E+00 0. -1.
         25    1    1    2    0    0 -0.71073467788E+02  0.12560687122E+02  0.33589138125E+03  0.36559161462E+03  0.12500000000E+03 0.  0.
         25    1    1    2    0    0 -0.18404528110E+02  0.12391934991E+03  0.41796633989E+03  0.45388940637E+03  0.12500000000E+03 0.  0.
         25    1    1    2    0    0  0.89477995898E+02 -0.13648003703E+03  0.12122644609E+04  0.12295703458E+04  0.12500000000E+03 0.  0.
</event>
<event>
 5    0  0.5670250E-005  0.3765867E+03  0.7546771E-02  0.1052203E+00
         21   -1    0    0  502  501  0.00000000000E+00  0.00000000000E+00  0.10830643761E+04  0.10830643761E+04  0.00000000000E+00 0.  1.
         21   -1    0    0  501  502 -0.00000000000E+00 -0.00000000000E+00 -0.13094101989E+03  0.13094101989E+03  0.00000000000E+00 0.  1.
         25    1    1    2    0    0 -0.10711413003E+03 -0.15567516256E+02  0.55877184449E+02  0.17453665562E+03  0.12500000000E+03 0.  0.
         25    1    1    2    0    0  0.60722367945E+01  0.20963321462E+02 -0.20326221258E+01  0.12690730656E+03  0.12500000000E+03 0.  0.
         25    1    1    2    0    0  0.10104189323E+03 -0.53958052056E+01  0.89827879385E+03  0.91256143376E+03  0.12500000000E+03 0.  0.
</event>
<event>
 5    0  0.5670250E-005  0.3314720E+03  0.7546771E-02  0.1070487E+00
         21   -1    0    0  502  501  0.00000000000E+00  0.00000000000E+00  0.48960084401E+02  0.48960084401E+02  0.00000000000E+00 0.  1.
         21   -1    0    0  501  502 -0.00000000000E+00 -0.00000000000E+00 -0.22441476130E+04  0.22441476130E+04  0.00000000000E+00 0.  1.
         25    1    1    2    0    0 -0.17524639793E+03 -0.89452083053E+02 -0.10148941210E+04  0.10413203408E+04  0.12500000000E+03 0.  0.
         25    1    1    2    0    0 -0.30111807480E+02  0.99972410591E+02 -0.63871958666E+03  0.65915773091E+03  0.12500000000E+03 0.  0.
         25    1    1    2    0    0  0.20535820541E+03 -0.10520327538E+02 -0.54157382090E+03  0.59262962574E+03  0.12500000000E+03 0.  0.
</event>
<event>
 5    0  0.5670250E-005  0.3458973E+03  0.7546771E-02  0.1064312E+00
         21   -1    0    0  502  501  0.00000000000E+00  0.00000000000E+00  0.15045099603E+03  0.15045099603E+03  0.00000000000E+00 0. -1.
         21   -1    0    0  501  502 -0.00000000000E+00 -0.00000000000E+00 -0.79524193807E+03  0.79524193807E+03  0.00000000000E+00 0. -1.
         25    1    1    2    0    0 -0.10353033119E+03 -0.56086992632E+02 -0.10963533113E+03  0.20373803290E+03  0.12500000000E+03 0.  0.
         25    1    1    2    0    0  0.18099942868E+03  0.13809115922E+03 -0.10522299075E+03  0.28022640708E+03  0.12500000000E+03 0.  0.
         25    1    1    2    0    0 -0.77469097497E+02 -0.82004166591E+02 -0.42993262016E+03  0.46172849412E+03  0.12500000000E+03 0.  0.
</event>
<event>
 5    0  0.5670250E-005  0.2576737E+03  0.7546771E-02  0.1108549E+00
         21   -1    0    0  502  501  0.00000000000E+00  0.00000000000E+00  0.25719508755E+04  0.25719508755E+04  0.00000000000E+00 0.  1.
         21   -1    0    0  501  502 -0.00000000000E+00 -0.00000000000E+00 -0.25815324006E+02  0.25815324006E+02  0.00000000000E+00 0.  1.
         25    1    1    2    0    0 -0.10914810045E+03  0.20369724706E+02  0.44961710560E+03  0.47969654487E+03  0.12500000000E+03 0.  0.
         25    1    1    2    0    0  0.28850335367E+02  0.46376976080E+02  0.10809948097E+04  0.10895677787E+04  0.12500000000E+03 0.  0.
         25    1    1    2    0    0  0.80297765088E+02 -0.66746700787E+02  0.10155236362E+04  0.10285018760E+04  0.12500000000E+03 0.  0.
</event>
<event>
 5    0  0.5670250E-005  0.3802698E+03  0.7546771E-02  0.1050834E+00
         21   -1    0    0  502  501  0.00000000000E+00  0.00000000000E+00  0.79952667084E+03  0.79952667084E+03  0.00000000000E+00 0. -1.
         21   -1    0    0  501  502 -0.00000000000E+00 -0.00000000000E+00 -0.18086345579E+03  0.18086345579E+03  0.00000000000E+00 0. -1.
         25    1    1    2    0    0 -0.17056911545E+03 -0.12512879056E+02  0.57610748571E+03  0.61382019385E+03  0.12500000000E+03 0.  0.
         25    1    1    2    0    0  0.59231597069E+02  0.89692417263E+02 -0.31641240381E+02  0.16786685170E+03  0.12500000000E+03 0.  0.
         25    1    1    2    0    0  0.11133751838E+03 -0.77179538208E+02  0.74196969714E+02  0.19870308108E+03  0.12500000000E+03 0.  0.
</event>
<event>
 5    0  0.5670250E-005  0.4579741E+03  0.7546771E-02  0.1025370E+00
         21   -1    0    0  502  501  0.00000000000E+00  0.00000000000E+00  0.12767487793E+03  0.12767487793E+03  0.00000000000E+00 0.  1.
         21   -1    0    0  501  502 -0.00000000000E+00 -0.00000000000E+00 -0.16427688725E+04  0.16427688725E+04  0.00000000000E+00 0.  1.
         25    1    1    2    0    0 -0.32972048865E+03  0.10536560652E+03 -0.85431934407E+03  0.93021720760E+03  0.12500000000E+03 0.  0.
         25    1    1    2    0    0  0.81111328399E+02 -0.16780307921E+03 -0.21336342992E+03  0.30965444324E+03  0.12500000000E+03 0.  0.
         25    1    1    2    0    0  0.24860916025E+03  0.62437472691E+02 -0.44741122057E+03  0.53057209958E+03  0.12500000000E+03 0.  0.
</event>
<event>
 5    0  0.5670250E-005  0.2515726E+03  0.7546771E-02  0.1112315E+00
         21   -1    0    0  502  501  0.00000000000E+00  0.00000000000E+00  0.73524122724E+03  0.73524122724E+03  0.00000000000E+00 0.  1.
         21   -1    0    0  501  502 -0.00000000000E+00 -0.00000000000E+00 -0.86078937863E+02  0.86078937863E+02  0.00000000000E+00 0.  1.
         25    1    1    2    0    0  0.26450582311E+02  0.54027954416E-01  0.13686527996E+03  0.18723445484E+03  0.12500000000E+03 0.  0.
         25    1    1    2    0    0 -0.72567530928E+02 -0.11048467022E+03  0.36087471847E+03  0.40413917321E+03  0.12500000000E+03 0.  0.
         25    1    1    2    0    0  0.46116948617E+02  0.11043064226E+03  0.15142229095E+03  0.22994653704E+03  0.12500000000E+03 0.  0.
</event>
<event>
 5    0  0.5670250E-005  0.4185495E+03  0.7546771E-02  0.1037539E+00
         21   -1    0    0  502  501  0.00000000000E+00  0.00000000000E+00  0.71898354911E+03  0.71898354911E+03  0.00000000000E+00 0.  1.
         21   -1    0    0  501  502 -0.00000000000E+00 -0.00000000000E+00 -0.24365470601E+03  0.24365470601E+03  0.00000000000E+00 0.  1.
         25    1    1    2    0    0  0.94135555512E+01  0.27163966393E+02  0.41282364708E+03  0.43229024935E+03  0.12500000000E+03 0.  0.
         25    1    1    2    0    0  0.62417140483E+02  0.15285358526E+03  0.17739929956E+03  0.27268228662E+03  0.12500000000E+03 0.  0.
         25    1    1    2    0    0 -0.71830696034E+02 -0.18001755165E+03 -0.11489410354E+03  0.25766571915E+03  0.12500000000E+03 0.  0.
</event>
<event>
 5    0  0.5670250E-005  0.2518699E+03  0.7546771E-02  0.1112129E+00
         21   -1    0    0  502  501  0.00000000000E+00  0.00000000000E+00  0.60172561747E+02  0.60172561747E+02  0.00000000000E+00 0. -1.
         21   -1    0    0  501  502 -0.00000000000E+00 -0.00000000000E+00 -0.10542756285E+04  0.10542756285E+04  0.00000000000E+00 0. -1.
         25    1    1    2    0    0 -0.12991725888E+03  0.76697392719E+01 -0.39641800143E+03  0.43555659898E+03  0.12500000000E+03 0.  0.
         25    1    1    2    0    0  0.80757263884E+02  0.69135119017E+02 -0.35481150354E+03  0.39091892177E+03  0.12500000000E+03 0.  0.
         25    1    1    2    0    0  0.49159994997E+02 -0.76804858289E+02 -0.24287356176E+03  0.28797266948E+03  0.12500000000E+03 0.  0.
</event>
<event>
 5    0  0.5670250E-005  0.3816625E+03  0.7546771E-02  0.1050321E+00
         21   -1    0    0  502  501  0.00000000000E+00  0.00000000000E+00  0.38485557934E+03  0.38485557934E+03  0.00000000000E+00 0.  1.
         21   -1    0    0  501  502 -0.00000000000E+00 -0.00000000000E+00 -0.37849597764E+03  0.37849597764E+03  0.00000000000E+00 0.  1.
         25    1    1    2    0    0 -0.95179735462E+02  0.71126181148E+02 -0.25599750948E+03  0.30867108797E+03  0.12500000000E+03 0.  0.
         25    1    1    2    0    0  0.98299595265E+02  0.67205938393E+02  0.18431267084E+03  0.25253833217E+03  0.12500000000E+03 0.  0.
         25    1    1    2    0    0 -0.31198598029E+01 -0.13833211954E+03  0.78044440343E+02  0.20214213685E+03  0.12500000000E+03 0.  0.
</event>
<event>
 5    0  0.7640639E-005  0.4834667E+03  0.7546771E-02  0.1018187E+00
         21   -1    0    0  502  501  0.00000000000E+00  0.00000000000E+00  0.30875339013E+03  0.30875339013E+03  0.00000000000E+00 0. -1.
         21   -1    0    0  501  502 -0.00000000000E+00 -0.00000000000E+00 -0.75704437832E+03  0.75704437832E+03  0.00000000000E+00 0. -1.
         25    1    1    2    0    0 -0.17895793460E+03 -0.15756962097E+03 -0.34497909948E+03  0.43759536891E+03  0.12500000000E+03 0.  0.
         25    1    1    2    0    0  0.25051519137E+03 -0.11701133860E+03 -0.69804527049E+01  0.30351810686E+03  0.12500000000E+03 0.  0.
         25    1    1    2    0    0 -0.71557256766E+02  0.27458095957E+03 -0.96331436009E+02  0.32468429269E+03  0.12500000000E+03 0.  0.
</event>
<event>
 5    0  0.5670250E-005  0.2633242E+03  0.7546771E-02  0.1105162E+00
         21   -1    0    0  502  501  0.00000000000E+00  0.00000000000E+00  0.31957323885E+03  0.31957323885E+03  0.00000000000E+00 0. -1.
         21   -1    0    0  501  502 -0.00000000000E+00 -0.00000000000E+00 -0.21697576209E+03  0.21697576209E+03  0.00000000000E+00 0. -1.
         25    1    1    2    0    0  0.70197498775E+02  0.73348655552E+02  0.15884208741E+03  0.22619355171E+03  0.12500000000E+03 0.  0.
         25    1    1    2    0    0 -0.90161297240E+02 -0.53125550231E+02 -0.77346576894E+02  0.18044078409E+03  0.12500000000E+03 0.  0.
         25    1    1    2    0    0  0.19963798465E+02 -0.20223105321E+02  0.21101966244E+02  0.12991466514E+03  0.12500000000E+03 0.  0.
</event>
<event>
 5    0  0.5670250E-005  0.3177385E+03  0.7546771E-02  0.1076695E+00
         21   -1    0    0  502  501  0.00000000000E+00  0.00000000000E+00  0.91404849680E+03  0.91404849680E+03  0.00000000000E+00 0.  1.
         21   -1    0    0  501  502 -0.00000000000E+00 -0.00000000000E+00 -0.11045121564E+03  0.11045121564E+03  0.00000000000E+00 0.  1.
         25    1    1    2    0    0 -0.15979219388E+03 -0.11252420570E+03  0.35135995015E+03  0.42103925787E+03  0.12500000000E+03 0.  0.
         25    1    1    2    0    0  0.19571677787E+03  0.90813789683E+02  0.37593810819E+03  0.45111712750E+03  0.12500000000E+03 0.  0.
         25    1    1    2    0    0 -0.35924583988E+02  0.21710416013E+02  0.76299222813E+02  0.15234332706E+03  0.12500000000E+03 0.  0.
</event>
<event>
 5    0  0.5670250E-005  0.2987397E+03  0.7546771E-02  0.1085872E+00
         21   -1    0    0  502  501  0.00000000000E+00  0.00000000000E+00  0.54564876801E+03  0.54564876801E+03  0.00000000000E+00 0. -1.
         21   -1    0    0  501  502 -0.00000000000E+00 -0.00000000000E+00 -0.16355837509E+03  0.16355837509E+03  0.00000000000E+00 0. -1.
         25    1    1    2    0    0 -0.35310028505E+01 -0.47111284130E+02 -0.38300252394E+02  0.13901025288E+03  0.12500000000E+03 0.  0.
         25    1    1    2    0    0  0.44331308223E+02  0.12929825598E+03  0.35795111848E+03  0.40303511895E+03  0.12500000000E+03 0.  0.
         25    1    1    2    0    0 -0.40800305372E+02 -0.82186971854E+02  0.62439526835E+02  0.16716177126E+03  0.12500000000E+03 0.  0.
</event>
<event>
 5    0  0.5670250E-005  0.2829271E+03  0.7546771E-02  0.1094101E+00
         21   -1    0    0  502  501  0.00000000000E+00  0.00000000000E+00  0.80642445030E+02  0.80642445030E+02  0.00000000000E+00 0. -1.
         21   -1    0    0  501  502 -0.00000000000E+00 -0.00000000000E+00 -0.99262580365E+03  0.99262580365E+03  0.00000000000E+00 0. -1.
         25    1    1    2    0    0 -0.18151311374E+03 -0.29650305440E+02 -0.22832861636E+03  0.31872418816E+03  0.12500000000E+03 0.  0.
         25    1    1    2    0    0  0.61286222842E+02  0.27889379718E+02 -0.36687210852E+03  0.39338780182E+03  0.12500000000E+03 0.  0.
         25    1    1    2    0    0  0.12022689090E+03  0.17609257218E+01 -0.31678263374E+03  0.36115625869E+03  0.12500000000E+03 0.  0.
</event>
<event>
 5    0  0.5670250E-005  0.3271298E+03  0.7546771E-02  0.1072414E+00
         21   -1    0    0  502  501  0.00000000000E+00  0.00000000000E+00  0.12941295608E+03  0.12941295608E+03  0.00000000000E+00 0. -1.
         21   -1    0    0  501  502 -0.00000000000E+00 -0.00000000000E+00 -0.82691805748E+03  0.82691805748E+03  0.00000000000E+00 0. -1.
         25    1    1    2    0    0 -0.67518304254E+02  0.17820429137E+03 -0.53466794140E+03  0.58121450294E+03  0.12500000000E+03 0.  0.
         25    1    1    2    0    0  0.23245223046E+02 -0.76823615025E+02 -0.10154074756E+02  0.14889698941E+03  0.12500000000E+03 0.  0.
         25    1    1    2    0    0  0.44273081208E+02 -0.10138067635E+03 -0.15268308525E+03  0.22621952121E+03  0.12500000000E+03 0.  0.
</event>
<event>
 5    0  0.5670250E-005  0.3535809E+03  0.7546771E-02  0.1061155E+00
         21   -1    0    0  502  501  0.00000000000E+00  0.00000000000E+00  0.57598808283E+03  0.57598808283E+03  0.00000000000E+00 0.  1.
         21   -1    0    0  501  502 -0.00000000000E+00 -0.00000000000E+00 -0.21705213341E+03  0.21705213341E+03  0.00000000000E+00 0.  1.
         25    1    1    2    0    0  0.22317718378E+02  0.19403045046E+02  0.48426134177E+02  0.13727581426E+03  0.12500000000E+03 0.  0.
         25    1    1    2    0    0 -0.10736458350E+03  0.15559548207E+03  0.35411385650E+03  0.42042684405E+03  0.12500000000E+03 0.  0.
         25    1    1    2    0    0  0.85046865126E+02 -0.17499852712E+03 -0.43604041249E+02  0.23533755793E+03  0.12500000000E+03 0.  0.
</event>
<event>
 5    0  0.5670250E-005  0.2172539E+03  0.7546771E-02  0.1135947E+00
         21   -1    0    0  502  501  0.00000000000E+00  0.00000000000E+00  0.32771340627E+03  0.32771340627E+03  0.00000000000E+00 0. -1.
         21   -1    0    0  501  502 -0.00000000000E+00 -0.00000000000E+00 -0.14402601949E+03  0.14402601949E+03  0.00000000000E+00 0. -1.
         25    1    1    2    0    0  0.14392618523E+02  0.30692405365E+02 -0.31901021371E+02  0.13338608016E+03  0.12500000000E+03 0.  0.
         25    1    1    2    0    0  0.13779920695E+02  0.31396669074E+01  0.81892073195E+02  0.15010348222E+03  0.12500000000E+03 0.  0.
         25    1    1    2    0    0 -0.28172539219E+02 -0.33832072273E+02  0.13369633496E+03  0.18824986338E+03  0.12500000000E+03 0.  0.
</event>
<event>
 5    0  0.5670250E-005  0.2632727E+03  0.7546771E-02  0.1105193E+00
         21   -1    0    0  502  501  0.00000000000E+00  0.00000000000E+00  0.25028494894E+03  0.25028494894E+03  0.00000000000E+00 0. -1.
         21   -1    0    0  501  502 -0.00000000000E+00 -0.00000000000E+00 -0.27693434273E+03  0.27693434273E+03  0.00000000000E+00 0. -1.
         25    1    1    2    0    0 -0.43117530881E+02  0.57138623750E+02 -0.10259405557E+03  0.17684593304E+03  0.12500000000E+03 0.  0.
         25    1    1    2    0    0  0.96064580811E+02 -0.10650617120E+03  0.71767329607E+01  0.19039031931E+03  0.12500000000E+03 0.  0.
         25    1    1    2    0    0 -0.52947049930E+02  0.49367547446E+02  0.68767928822E+02  0.15998303932E+03  0.12500000000E+03 0.  0.
</event>
<event>
 5    0  0.5670250E-005  0.2397997E+03  0.7546771E-02  0.1119926E+00
         21   -1    0    0  502  501  0.00000000000E+00  0.00000000000E+00  0.31582671344E+03  0.31582671344E+03  0.00000000000E+00 0. -1.
         21   -1    0    0  501  502 -0.00000000000E+00 -0.00000000000E+00 -0.18207423082E+03  0.18207423082E+03  0.00000000000E+00 0. -1.
         25    1    1    2    0    0  0.30882375817E+02 -0.55687522171E+02 -0.40435262371E+02  0.14599599893E+03  0.12500000000E+03 0.  0.
         25    1    1    2    0    0 -0.90180795576E+02 -0.41765228683E+00  0.11018511014E+03  0.18946901810E+03  0.12500000000E+03 0.  0.
         25    1    1    2    0    0  0.59298419759E+02  0.56105174457E+02  0.64002634852E+02  0.16243592723E+03  0.12500000000E+03 0.  0.
</event>
<event>
 5    0  0.5670250E-005  0.2266708E+03  0.7546771E-02  0.1129005E+00
         21   -1    0    0  502  501  0.00000000000E+00  0.00000000000E+00  0.72277521758E+03  0.72277521758E+03  0.00000000000E+00 0. -1.
         21   -1    0    0  501  502 -0.00000000000E+00 -0.00000000000E+00 -0.71086624323E+02  0.71086624323E+02  0.00000000000E+00 0. -1.
         25    1    1    2    0    0  0.38872096670E+02  0.38541424398E+02  0.67935390357E+02  0.15243588343E+03  0.12500000000E+03 0.  0.
         25    1    1    2    0    0  0.20380542687E+01 -0.40045154120E+02  0.24345271844E+03  0.27658993863E+03  0.12500000000E+03 0.  0.
         25    1    1    2    0    0 -0.40910150939E+02  0.15037297218E+01  0.34030048446E+03  0.36483601985E+03  0.12500000000E+03 0.  0.
</event>
<event>
 5    0  0.5670250E-005  0.4405954E+03  0.7546771E-02  0.1030564E+00
         21   -1    0    0  502  501  0.00000000000E+00  0.00000000000E+00  0.13761823059E+04  0.13761823059E+04  0.00000000000E+00 0.  1.
         21   -1    0    0  501  502 -0.00000000000E+00 -0.00000000000E+00 -0.14106002853E+03  0.14106002853E+03  0.00000000000E+00 0.  1.
         25    1    1    2    0    0  0.15863763057E+03  0.35937086928E+02  0.16542175616E+03  0.26352747382E+03  0.12500000000E+03 0.  0.
         25    1    1    2    0    0 -0.33727664429E+03  0.12716858381E+03  0.61539045637E+03  0.72405648764E+03  0.12500000000E+03 0.  0.
         25    1    1    2    0    0  0.17863901372E+03 -0.16310567074E+03  0.45431006483E+03  0.52965837297E+03  0.12500000000E+03 0.  0.
</event>
<event>
 5    0  0.5670250E-005  0.2563707E+03  0.7546771E-02  0.1109344E+00
         21   -1    0    0  502  501  0.00000000000E+00  0.00000000000E+00  0.12970741669E+03  0.12970741669E+03  0.00000000000E+00 0.  1.
         21   -1    0    0  501  502 -0.00000000000E+00 -0.00000000000E+00 -0.50672464261E+03  0.50672464261E+03  0.00000000000E+00 0.  1.
         25    1    1    2    0    0  0.24295870180E+01  0.78916211693E+02 -0.22093448648E+03  0.26583964843E+03  0.12500000000E+03 0.  0.
         25    1    1    2    0    0  0.36057021797E+02 -0.13180484006E+03 -0.43852000013E+02  0.19031716315E+03  0.12500000000E+03 0.  0.
         25    1    1    2    0    0 -0.38486608815E+02  0.52888628362E+02 -0.11223073944E+03  0.18027524773E+03  0.12500000000E+03 0.  0.
</event>
<event>
 5    0  0.5670250E-005  0.4102964E+03  0.7546771E-02  0.1040272E+00
         21   -1    0    0  502  501  0.00000000000E+00  0.00000000000E+00  0.15221926658E+04  0.15221926658E+04  0.00000000000E+00 0. -1.
         21   -1    0    0  501  502 -0.00000000000E+00 -0.00000000000E+00 -0.11059255521E+03  0.11059255521E+03  0.00000000000E+00 0. -1.
         25    1    1    2    0    0 -0.23107434426E+03 -0.18965440790E+03  0.10235038466E+04  0.10735684752E+04  0.12500000000E+03 0.  0.
         25    1    1    2    0    0  0.14889578611E+03  0.65468026814E+02  0.16476604244E+03  0.26311378982E+03  0.12500000000E+03 0.  0.
         25    1    1    2    0    0  0.82178558147E+02  0.12418638108E+03  0.22333022155E+03  0.29610295595E+03  0.12500000000E+03 0.  0.
</event>
<event>
 5    0  0.5670250E-005  0.2946751E+03  0.7546771E-02  0.1087933E+00
         21   -1    0    0  502  501  0.00000000000E+00  0.00000000000E+00  0.12444903978E+03  0.12444903978E+03  0.00000000000E+00 0. -1.
         21   -1    0    0  501  502 -0.00000000000E+00 -0.00000000000E+00 -0.69774288658E+03  0.69774288658E+03  0.00000000000E+00 0. -1.
         25    1    1    2    0    0 -0.91784201022E+02  0.64928504704E+02 -0.38261189842E+03  0.41791974720E+03  0.12500000000E+03 0.  0.
         25    1    1    2    0    0  0.12834775876E+03 -0.50878713075E+02 -0.17408476979E+02  0.18705572885E+03  0.12500000000E+03 0.  0.
         25    1    1    2    0    0 -0.36563557738E+02 -0.14049791629E+02 -0.17327347140E+03  0.21721645032E+03  0.12500000000E+03 0.  0.
</event>
<event>
 5    0  0.5670250E-005  0.2514263E+03  0.7546771E-02  0.1112407E+00
         21   -1    0    0  502  501  0.00000000000E+00  0.00000000000E+00  0.53021278161E+03  0.53021278161E+03  0.00000000000E+00 0. -1.
         21   -1    0    0  501  502 -0.00000000000E+00 -0.00000000000E+00 -0.11922609537E+03  0.11922609537E+03  0.00000000000E+00 0. -1.
         25    1    1    2    0    0  0.64017308050E+02 -0.85825659265E+02  0.13383210726E+03  0.21213272367E+03  0.12500000000E+03 0.  0.
         25    1    1    2    0    0  0.31499071464E+02  0.30542354906E+02  0.24708747488E+02  0.13476108173E+03  0.12500000000E+03 0.  0.
         25    1    1    2    0    0 -0.95516379514E+02  0.55283304359E+02  0.25244583149E+03  0.30254507157E+03  0.12500000000E+03 0.  0.
</event>
<event>
 5    0  0.5670250E-005  0.3160163E+03  0.7546771E-02  0.1077497E+00
         21   -1    0    0  502  501  0.00000000000E+00  0.00000000000E+00  0.59236580113E+03  0.59236580113E+03  0.00000000000E+00 0. -1.
         21   -1    0    0  501  502 -0.00000000000E+00 -0.00000000000E+00 -0.16858892242E+03  0.16858892242E+03  0.00000000000E+00 0. -1.
         25    1    1    2    0    0 -0.51299828743E+01  0.79956980956E+02  0.14370632782E+03  0.20662996923E+03  0.12500000000E+03 0.  0.
         25    1    1    2    0    0  0.19901276713E+03 -0.65320143425E+02  0.17622641228E+03  0.30092117075E+03  0.12500000000E+03 0.  0.
         25    1    1    2    0    0 -0.19388278426E+03 -0.14636837531E+02  0.10384413860E+03  0.25340358357E+03  0.12500000000E+03 0.  0.
</event>
<event>
 5    0  0.5670250E-005  0.3691950E+03  0.7546771E-02  0.1055001E+00
         21   -1    0    0  502  501  0.00000000000E+00  0.00000000000E+00  0.16045628668E+03  0.16045628668E+03  0.00000000000E+00 0. -1.
         21   -1    0    0  501  502 -0.00000000000E+00 -0.00000000000E+00 -0.84948333998E+03  0.84948333998E+03  0.00000000000E+00 0. -1.
         25    1    1    2    0    0 -0.56474154460E+02  0.58226164440E+02  0.55362368847E+02  0.15896417279E+03  0.12500000000E+03 0.  0.
         25    1    1    2    0    0 -0.69351256876E+02 -0.93148316546E+02 -0.58699475441E+03  0.61128884123E+03  0.12500000000E+03 0.  0.
         25    1    1    2    0    0  0.12582541134E+03  0.34922152107E+02 -0.15739466774E+03  0.23968661264E+03  0.12500000000E+03 0.  0.
</event>
<event>
 5    0  0.5670250E-005  0.8440763E+03  0.7546771E-02  0.9498322E-01
         21   -1    0    0  502  501  0.00000000000E+00  0.00000000000E+00  0.13723403714E+04  0.13723403714E+04  0.00000000000E+00 0.  1.
         21   -1    0    0  501  502 -0.00000000000E+00 -0.00000000000E+00 -0.51916044363E+03  0.51916044363E+03  0.00000000000E+00 0.  1.
         25    1    1    2    0    0 -0.62656250226E+02 -0.13463456674E+03 -0.38340902748E+01  0.19414420543E+03  0.12500000000E+03 0.  0.
         25    1    1    2    0    0  0.31886003031E+03  0.44076870335E+03  0.10855765209E+04  0.12206761042E+04  0.12500000000E+03 0.  0.
         25    1    1    2    0    0 -0.25620378009E+03 -0.30613413660E+03 -0.22856250280E+03  0.47668050538E+03  0.12500000000E+03 0.  0.
</event>
<event>
 5    0  0.5670250E-005  0.7313619E+03  0.7546771E-02  0.9665053E-01
         21   -1    0    0  502  501  0.00000000000E+00  0.00000000000E+00  0.20127426589E+04  0.20127426589E+04  0.00000000000E+00 0. -1.
         21   -1    0    0  501  502 -0.00000000000E+00 -0.00000000000E+00 -0.26575188522E+03  0.26575188522E+03  0.00000000000E+00 0. -1.
         25    1    1    2    0    0  0.13447443078E+03  0.65230056423E+02  0.68862292270E+03  0.71565694468E+03  0.12500000000E+03 0.  0.
         25    1    1    2    0    0 -0.60305339316E+03 -0.54929030274E+02  0.36946640417E+03  0.72029231370E+03  0.12500000000E+03 0.  0.
         25    1    1    2    0    0  0.46857896238E+03 -0.10301026149E+02  0.68890144682E+03  0.84254528576E+03  0.12500000000E+03 0.  0.
</event>
<event>
 5    0  0.5670250E-005  0.3456181E+03  0.7546771E-02  0.1064428E+00
         21   -1    0    0  502  501  0.00000000000E+00  0.00000000000E+00  0.11399063952E+03  0.11399063952E+03  0.00000000000E+00 0. -1.
         21   -1    0    0  501  502 -0.00000000000E+00 -0.00000000000E+00 -0.10479094575E+04  0.10479094575E+04  0.00000000000E+00 0. -1.
         25    1    1    2    0    0 -0.21727954369E+03 -0.32921965644E+02 -0.59865638187E+03  0.64985284448E+03  0.12500000000E+03 0.  0.
         25    1    1    2    0    0  0.10586119760E+03  0.46476512260E+02 -0.44088078200E+02  0.17588467241E+03  0.12500000000E+03 0.  0.
         25    1    1    2    0    0  0.11141834608E+03 -0.13554546616E+02 -0.29117435794E+03  0.33616258016E+03  0.12500000000E+03 0.  0.
</event>
<event>
 5    0  0.5670250E-005  0.2267481E+03  0.7546771E-02  0.1128950E+00
         21   -1    0    0  502  501  0.00000000000E+00  0.00000000000E+00  0.60065005281E+02  0.60065005281E+02  0.00000000000E+00 0. -1.
         21   -1    0    0  501  502 -0.00000000000E+00 -0.00000000000E+00 -0.85598464504E+03  0.85598464504E+03  0.00000000000E+00 0. -1.
         25    1    1    2    0    0  0.42209913255E+02  0.20209201383E+02 -0.27634265749E+03  0.30688817662E+03  0.12500000000E+03 0.  0.
         25    1    1    2    0    0 -0.87487266432E+02 -0.79887351171E+02 -0.27671319528E+03  0.32593128587E+03  0.12500000000E+03 0.  0.
         25    1    1    2    0    0  0.45277353177E+02  0.59678149788E+02 -0.24286378698E+03  0.28323018783E+03  0.12500000000E+03 0.  0.
</event>
<event>
 5    0  0.5670250E-005  0.3698989E+03  0.7546771E-02  0.1054732E+00
         21   -1    0    0  502  501  0.00000000000E+00  0.00000000000E+00  0.12744295096E+03  0.12744295096E+03  0.00000000000E+00 0.  1.
         21   -1    0    0  501  502 -0.00000000000E+00 -0.00000000000E+00 -0.10736189374E+04  0.10736189374E+04  0.00000000000E+00 0.  1.
         25    1    1    2    0    0 -0.28051479075E+02 -0.79718674906E+02 -0.59757188450E+03  0.61632711262E+03  0.12500000000E+03 0.  0.
         25    1    1    2    0    0  0.20184487799E+03  0.52989029758E+02 -0.24555876707E+03  0.34564909971E+03  0.12500000000E+03 0.  0.
         25    1    1    2    0    0 -0.17379339891E+03  0.26729645148E+02 -0.10304533483E+03  0.23908567599E+03  0.12500000000E+03 0.  0.
</event>
<event>
 5    0  0.5670250E-005  0.2854831E+03  0.7546771E-02  0.1092731E+00
         21   -1    0    0  502  501  0.00000000000E+00  0.00000000000E+00  0.37091676934E+03  0.37091676934E+03  0.00000000000E+00 0.  1.
         21   -1    0    0  501  502 -0.00000000000E+00 -0.00000000000E+00 -0.21972753609E+03  0.21972753609E+03  0.00000000000E+00 0.  1.
         25    1    1    2    0    0  0.15688356412E+03 -0.31810355258E+00  0.89028987514E+02  0.21946233048E+03  0.12500000000E+03 0.  0.
         25    1    1    2    0    0 -0.84913449029E+02  0.94878694333E+02 -0.21085469063E+02  0.17967152660E+03  0.12500000000E+03 0.  0.
         25    1    1    2    0    0 -0.71970115089E+02 -0.94560590781E+02  0.83245714802E+02  0.19151044835E+03  0.12500000000E+03 0.  0.
</event>
<event>
 5    0  0.5670250E-005  0.2255024E+03  0.7546771E-02  0.1129846E+00
         21   -1    0    0  502  501  0.00000000000E+00  0.00000000000E+00  0.58410367117E+03  0.58410367117E+03  0.00000000000E+00 0. -1.
         21   -1    0    0  501  502 -0.00000000000E+00 -0.00000000000E+00 -0.87058782683E+02  0.87058782683E+02  0.00000000000E+00 0. -1.
         25    1    1    2    0    0  0.31520238300E+01 -0.52312705857E+02  0.55028056622E+02  0.14628616293E+03  0.12500000000E+03 0.  0.
         25    1    1    2    0    0  0.51163093672E+02  0.51646736944E+02  0.19515588390E+03  0.24289064743E+03  0.12500000000E+03 0.  0.
         25    1    1    2    0    0 -0.54315117502E+02  0.66596891282E+00  0.24686094796E+03  0.28198564349E+03  0.12500000000E+03 0.  0.
</event>
<event>
 5    0  0.5670250E-005  0.2585535E+03  0.7546771E-02  0.1108015E+00
         21   -1    0    0  502  501  0.00000000000E+00  0.00000000000E+00  0.38040108864E+03  0.38040108864E+03  0.00000000000E+00 0. -1.
         21   -1    0    0  501  502 -0.00000000000E+00 -0.00000000000E+00 -0.17573529547E+03  0.17573529547E+03  0.00000000000E+00 0. -1.
         25    1    1    2    0    0 -0.46260502320E+02 -0.20124898062E+02  0.82350606242E+02  0.15796096969E+03  0.12500000000E+03 0.  0.
         25    1    1    2    0    0 -0.26030220643E+02 -0.43927950988E+02  0.18430994578E+03  0.22847843088E+03  0.12500000000E+03 0.  0.
         25    1    1    2    0    0  0.72290722963E+02  0.64052849051E+02 -0.61994758854E+02  0.16969698354E+03  0.12500000000E+03 0.  0.
</event>
<event>
 5    0  0.5670250E-005  0.2064714E+03  0.7546771E-02  0.1144391E+00
         21   -1    0    0  502  501  0.00000000000E+00  0.00000000000E+00  0.59803326091E+03  0.59803326091E+03  0.00000000000E+00 0.  1.
         21   -1    0    0  501  502 -0.00000000000E+00 -0.00000000000E+00 -0.71284372116E+02  0.71284372116E+02  0.00000000000E+00 0.  1.
         25    1    1    2    0    0  0.51061364096E+02 -0.14566482075E+02  0.10958050364E+03  0.17450596575E+03  0.12500000000E+03 0.  0.
         25    1    1    2    0    0 -0.71966142482E+01  0.30418065364E+02  0.16322043807E+03  0.20794942020E+03  0.12500000000E+03 0.  0.
         25    1    1    2    0    0 -0.43864749848E+02 -0.15851583289E+02  0.25394794708E+03  0.28686224708E+03  0.12500000000E+03 0.  0.
</event>
<event>
 5    0  0.5670250E-005  0.5105240E+03  0.7546771E-02  0.1011068E+00
         21   -1    0    0  502  501  0.00000000000E+00  0.00000000000E+00  0.35156839341E+03  0.35156839341E+03  0.00000000000E+00 0.  1.
         21   -1    0    0  501  502 -0.00000000000E+00 -0.00000000000E+00 -0.74134851883E+03  0.74134851883E+03  0.00000000000E+00 0.  1.
         25    1    1    2    0    0  0.33442804881E+03 -0.10859442065E+03 -0.31434243975E+03  0.48792523757E+03  0.12500000000E+03 0.  0.
         25    1    1    2    0    0 -0.11754238580E+02  0.11704398853E+03 -0.17468401052E+03  0.24490194141E+03  0.12500000000E+03 0.  0.
         25    1    1    2    0    0 -0.32267381023E+03 -0.84495678890E+01  0.99246324847E+02  0.36008973326E+03  0.12500000000E+03 0.  0.
</event>
<event>
 5    0  0.5670250E-005  0.3870203E+03  0.7546771E-02  0.1048369E+00
         21   -1    0    0  502  501  0.00000000000E+00  0.00000000000E+00  0.11392827485E+04  0.11392827485E+04  0.00000000000E+00 0.  1.
         21   -1    0    0  501  502 -0.00000000000E+00 -0.00000000000E+00 -0.13147281489E+03  0.13147281489E+03  0.00000000000E+00 0.  1.
         25    1    1    2    0    0  0.27626776210E+03  0.10090536127E+03  0.44707551834E+03  0.54955189692E+03  0.12500000000E+03 0.  0.
         25    1    1    2    0    0 -0.60439908171E+02  0.24783873017E+01  0.57869317145E+02  0.15044262285E+03  0.12500000000E+03 0.  0.
         25    1    1    2    0    0 -0.21582785393E+03 -0.10338374857E+03  0.50286509817E+03  0.57076104366E+03  0.12500000000E+03 0.  0.
</event>
<event>
 5    0  0.5670250E-005  0.2137292E+03  0.7546771E-02  0.1138646E+00
         21   -1    0    0  502  501  0.00000000000E+00  0.00000000000E+00  0.22814687178E+03  0.22814687178E+03  0.00000000000E+00 0.  1.
         21   -1    0    0  501  502 -0.00000000000E+00 -0.00000000000E+00 -0.20022273501E+03  0.20022273501E+03  0.00000000000E+00 0.  1.
         25    1    1    2    0    0  0.52931822467E+02  0.28686017802E+02 -0.13532887295E+02  0.13940159427E+03  0.12500000000E+03 0.  0.
         25    1    1    2    0    0 -0.83908524802E+02 -0.28964121017E+01  0.46313252549E+02  0.15754030309E+03  0.12500000000E+03 0.  0.
         25    1    1    2    0    0  0.30976702336E+02 -0.25789605700E+02 -0.48562284846E+01  0.13142770943E+03  0.12500000000E+03 0.  0.
</event>
<event>
 5    0  0.5670250E-005  0.4048443E+03  0.7546771E-02  0.1042115E+00
         21   -1    0    0  502  501  0.00000000000E+00  0.00000000000E+00  0.47740275219E+03  0.47740275219E+03  0.00000000000E+00 0. -1.
         21   -1    0    0  501  502 -0.00000000000E+00 -0.00000000000E+00 -0.34331364631E+03  0.34331364631E+03  0.00000000000E+00 0. -1.
         25    1    1    2    0    0 -0.59696762849E+02 -0.14518975261E+03 -0.13996254314E+03  0.24465952105E+03  0.12500000000E+03 0.  0.
         25    1    1    2    0    0  0.13687106201E+03 -0.48438620518E+02 -0.22194607736E+02  0.19286676278E+03  0.12500000000E+03 0.  0.
         25    1    1    2    0    0 -0.77174299161E+02  0.19362837313E+03  0.29624625676E+03  0.38319011466E+03  0.12500000000E+03 0.  0.
</event>
<event>
 5    0  0.5670250E-005  0.3793758E+03  0.7546771E-02  0.1051165E+00
         21   -1    0    0  502  501  0.00000000000E+00  0.00000000000E+00  0.26327315041E+03  0.26327315041E+03  0.00000000000E+00 0.  1.
         21   -1    0    0  501  502 -0.00000000000E+00 -0.00000000000E+00 -0.54667939109E+03  0.54667939109E+03  0.00000000000E+00 0.  1.
         25    1    1    2    0    0  0.22976220119E+02 -0.40152182216E+02  0.58621948569E+02  0.14560782013E+03  0.12500000000E+03 0.  0.
         25    1    1    2    0    0 -0.45430890564E+02 -0.22015662895E+03 -0.25433244330E+03  0.36172212927E+03  0.12500000000E+03 0.  0.
         25    1    1    2    0    0  0.22454670444E+02  0.26030881116E+03 -0.87695745948E+02  0.30262259210E+03  0.12500000000E+03 0.  0.
</event>
<event>
 5    0  0.5670250E-005  0.3417914E+03  0.7546771E-02  0.1066035E+00
         21   -1    0    0  502  501  0.00000000000E+00  0.00000000000E+00  0.24010239921E+03  0.24010239921E+03  0.00000000000E+00 0. -1.
         21   -1    0    0  501  502 -0.00000000000E+00 -0.00000000000E+00 -0.48654815588E+03  0.48654815588E+03  0.00000000000E+00 0. -1.
         25    1    1    2    0    0  0.13735854213E+03 -0.10028511793E+03 -0.21867962253E+03  0.30392474609E+03  0.12500000000E+03 0.  0.
         25    1    1    2    0    0 -0.62733634991E+02  0.15035674882E+03  0.94578033288E+02  0.22608110327E+03  0.12500000000E+03 0.  0.
         25    1    1    2    0    0 -0.74624907141E+02 -0.50071630892E+02 -0.12234416743E+03  0.19664470573E+03  0.12500000000E+03 0.  0.
</event>
<event>
 5    0  0.5670250E-005  0.2482305E+03  0.7546771E-02  0.1114428E+00
         21   -1    0    0  502  501  0.00000000000E+00  0.00000000000E+00  0.26133973928E+03  0.26133973928E+03  0.00000000000E+00 0.  1.
         21   -1    0    0  501  502 -0.00000000000E+00 -0.00000000000E+00 -0.23577883068E+03  0.23577883068E+03  0.00000000000E+00 0.  1.
         25    1    1    2    0    0 -0.40775382824E+01  0.23450750028E+02  0.82318967991E+02  0.15155189371E+03  0.12500000000E+03 0.  0.
         25    1    1    2    0    0 -0.43576735974E+01  0.84763430077E+02  0.36663880662E+02  0.15547690678E+03  0.12500000000E+03 0.  0.
         25    1    1    2    0    0  0.84352118799E+01 -0.10821418011E+03 -0.93421940053E+02  0.19008976947E+03  0.12500000000E+03 0.  0.
</event>
<event>
 5    0  0.5670250E-005  0.2977367E+03  0.7546771E-02  0.1086378E+00
         21   -1    0    0  502  501  0.00000000000E+00  0.00000000000E+00  0.94323946615E+02  0.94323946615E+02  0.00000000000E+00 0. -1.
         21   -1    0    0  501  502 -0.00000000000E+00 -0.00000000000E+00 -0.93981580337E+03  0.93981580337E+03  0.00000000000E+00 0. -1.
         25    1    1    2    0    0  0.73874558935E+02  0.14530638373E+03 -0.94866928906E+02  0.22626561783E+03  0.12500000000E+03 0.  0.
         25    1    1    2    0    0 -0.33074065716E+02 -0.68521267817E+02 -0.37821437964E+03  0.40553689713E+03  0.12500000000E+03 0.  0.
         25    1    1    2    0    0 -0.40800493218E+02 -0.76785115915E+02 -0.37241054821E+03  0.40233723503E+03  0.12500000000E+03 0.  0.
</event>
<event>
 5    0  0.5670250E-005  0.3700179E+03  0.7546771E-02  0.1054686E+00
         21   -1    0    0  502  501  0.00000000000E+00  0.00000000000E+00  0.10513617428E+03  0.10513617428E+03  0.00000000000E+00 0.  1.
         21   -1    0    0  501  502 -0.00000000000E+00 -0.00000000000E+00 -0.13022465542E+04  0.13022465542E+04  0.00000000000E+00 0.  1.
         25    1    1    2    0    0  0.10154863824E+03  0.74697722367E+02 -0.47434017937E+03  0.50647357425E+03  0.12500000000E+03 0.  0.
         25    1    1    2    0    0 -0.68279742145E+02  0.11509950969E+02  0.17980510290E+02  0.14402395950E+03  0.12500000000E+03 0.  0.
         25    1    1    2    0    0 -0.33268896097E+02 -0.86207673337E+02 -0.74075071080E+03  0.75688519469E+03  0.12500000000E+03 0.  0.
</event>
<event>
 5    0  0.5670250E-005  0.3150433E+03  0.7546771E-02  0.1077953E+00
         21   -1    0    0  502  501  0.00000000000E+00  0.00000000000E+00  0.62307068264E+02  0.62307068264E+02  0.00000000000E+00 0. -1.
         21   -1    0    0  501  502 -0.00000000000E+00 -0.00000000000E+00 -0.15929542576E+04  0.15929542576E+04  0.00000000000E+00 0. -1.
         25    1    1    2    0    0  0.83843298996E+02  0.61606151559E+01 -0.13163765721E+03  0.20005280493E+03  0.12500000000E+03 0.  0.
         25    1    1    2    0    0 -0.12271919517E+03 -0.10809938320E+03 -0.10335778709E+04  0.10538755585E+04  0.12500000000E+03 0.  0.
         25    1    1    2    0    0  0.38875896175E+02  0.10193876805E+03 -0.36543166119E+03  0.40133296243E+03  0.12500000000E+03 0.  0.
</event>
<event>
 5    0  0.5670250E-005  0.2455565E+03  0.7546771E-02  0.1116146E+00
         21   -1    0    0  502  501  0.00000000000E+00  0.00000000000E+00  0.13906857500E+03  0.13906857500E+03  0.00000000000E+00 0.  1.
         21   -1    0    0  501  502 -0.00000000000E+00 -0.00000000000E+00 -0.43358460287E+03  0.43358460287E+03  0.00000000000E+00 0.  1.
         25    1    1    2    0    0  0.27213820643E+02 -0.32694679083E+02  0.11604735107E+02  0.13254887382E+03  0.12500000000E+03 0.  0.
         25    1    1    2    0    0  0.29185807541E+02 -0.38154318375E+02 -0.23427683013E+03  0.26984846953E+03  0.12500000000E+03 0.  0.
         25    1    1    2    0    0 -0.56399628184E+02  0.70848997459E+02 -0.71843932849E+02  0.17025583452E+03  0.12500000000E+03 0.  0.
</event>
<event>
 5    0  0.8207001E-005  0.2837286E+03  0.7546771E-02  0.1093670E+00
         21   -1    0    0  502  501  0.00000000000E+00  0.00000000000E+00  0.34050489241E+03  0.34050489241E+03  0.00000000000E+00 0.  1.
         21   -1    0    0  501  502 -0.00000000000E+00 -0.00000000000E+00 -0.23641931835E+03  0.23641931835E+03  0.00000000000E+00 0.  1.
         25    1    1    2    0    0 -0.55193098869E+02  0.87898165077E+02  0.83152501688E+02  0.18251494219E+03  0.12500000000E+03 0.  0.
         25    1    1    2    0    0 -0.11908174752E+02 -0.18249989117E+03 -0.69049599939E+01  0.22163188709E+03  0.12500000000E+03 0.  0.
         25    1    1    2    0    0  0.67101273621E+02  0.94601726098E+02  0.27838032371E+02  0.17277738147E+03  0.12500000000E+03 0.  0.
</event>
<event>
 5    0  0.5670250E-005  0.2691479E+03  0.7546771E-02  0.1101768E+00
         21   -1    0    0  502  501  0.00000000000E+00  0.00000000000E+00  0.10067299072E+04  0.10067299072E+04  0.00000000000E+00 0.  1.
         21   -1    0    0  501  502 -0.00000000000E+00 -0.00000000000E+00 -0.71956315070E+02  0.71956315070E+02  0.00000000000E+00 0.  1.
         25    1    1    2    0    0 -0.77668983591E+02  0.10216109099E+03  0.36322394336E+03  0.40500122538E+03  0.12500000000E+03 0.  0.
         25    1    1    2    0    0 -0.23947873481E+02 -0.13609903654E+03  0.36255916833E+03  0.40764028129E+03  0.12500000000E+03 0.  0.
         25    1    1    2    0    0  0.10161685707E+03  0.33937945547E+02  0.20899048047E+03  0.26604471563E+03  0.12500000000E+03 0.  0.
</event>
<event>
 5    0  0.5670250E-005  0.3031480E+03  0.7546771E-02  0.1083677E+00
         21   -1    0    0  502  501  0.00000000000E+00  0.00000000000E+00  0.82606892869E+03  0.82606892869E+03  0.00000000000E+00 0. -1.
         21   -1    0    0  501  502 -0.00000000000E+00 -0.00000000000E+00 -0.11124823410E+03  0.11124823410E+03  0.00000000000E+00 0. -1.
         25    1    1    2    0    0 -0.58241760169E+02 -0.75827018588E+02  0.24817371961E+03  0.29386567421E+03  0.12500000000E+03 0.  0.
         25    1    1    2    0    0 -0.19615054985E+01  0.11524999156E+03  0.16582800223E+02  0.17084026844E+03  0.12500000000E+03 0.  0.
         25    1    1    2    0    0  0.60203265667E+02 -0.39422972969E+02  0.45006417476E+03  0.47261122013E+03  0.12500000000E+03 0.  0.
</event>
<event>
 5    0  0.5670250E-005  0.4781366E+03  0.7546771E-02  0.1019649E+00
         21   -1    0    0  502  501  0.00000000000E+00  0.00000000000E+00  0.51702344465E+03  0.51702344465E+03  0.00000000000E+00 0.  1.
         21   -1    0    0  501  502 -0.00000000000E+00 -0.00000000000E+00 -0.44217457985E+03  0.44217457985E+03  0.00000000000E+00 0.  1.
         25    1    1    2    0    0 -0.78206169893E+02  0.14898196577E+03  0.10530811582E+03  0.23457755730E+03  0.12500000000E+03 0.  0.
         25    1    1    2    0    0  0.21688608356E+02 -0.39450805185E+03  0.80716121203E+02  0.42219319148E+03  0.12500000000E+03 0.  0.
         25    1    1    2    0    0  0.56517561537E+02  0.24552608608E+03 -0.11117537222E+03  0.30242727572E+03  0.12500000000E+03 0.  0.
</event>
<event>
 5    0  0.5670250E-005  0.3928453E+03  0.7546771E-02  0.1046286E+00
         21   -1    0    0  502  501  0.00000000000E+00  0.00000000000E+00  0.11962160094E+03  0.11962160094E+03  0.00000000000E+00 0. -1.
         21   -1    0    0  501  502 -0.00000000000E+00 -0.00000000000E+00 -0.12901299124E+04  0.12901299124E+04  0.00000000000E+00 0. -1.
         25    1    1    2    0    0 -0.15893805744E+03  0.63887529875E+02 -0.24990063806E+03  0.32774723718E+03  0.12500000000E+03 0.  0.
         25    1    1    2    0    0  0.17607405522E+03  0.86479020835E+02 -0.12809368122E+03  0.26554413029E+03  0.12500000000E+03 0.  0.
         25    1    1    2    0    0 -0.17135997777E+02 -0.15036655071E+03 -0.79251399219E+03  0.81646014588E+03  0.12500000000E+03 0.  0.
</event>
<event>
 5    0  0.5670250E-005  0.2853704E+03  0.7546771E-02  0.1092791E+00
         21   -1    0    0  502  501  0.00000000000E+00  0.00000000000E+00  0.60947340732E+03  0.60947340732E+03  0.00000000000E+00 0. -1.
         21   -1    0    0  501  502 -0.00000000000E+00 -0.00000000000E+00 -0.13361738603E+03  0.13361738603E+03  0.00000000000E+00 0. -1.
         25    1    1    2    0    0  0.11076628899E+03 -0.68298646932E+02  0.28967602214E+03  0.34127858672E+03  0.12500000000E+03 0.  0.
         25    1    1    2    0    0 -0.16334509978E+02  0.32007893690E+02  0.20197533969E+03  0.24022980522E+03  0.12500000000E+03 0.  0.
         25    1    1    2    0    0 -0.94431779014E+02  0.36290753242E+02 -0.15795340542E+02  0.16158240140E+03  0.12500000000E+03 0.  0.
</event>
<event>
 5    0  0.5670250E-005  0.2673563E+03  0.7546771E-02  0.1102802E+00
         21   -1    0    0  502  501  0.00000000000E+00  0.00000000000E+00  0.85121120488E+03  0.85121120488E+03  0.00000000000E+00 0.  1.
         21   -1    0    0  501  502 -0.00000000000E+00 -0.00000000000E+00 -0.83973737200E+02  0.83973737200E+02  0.00000000000E+00 0.  1.
         25    1    1    2    0    0 -0.70700246050E+02 -0.10625735896E+03  0.19995916977E+03  0.26813768981E+03  0.12500000000E+03 0.  0.
         25    1    1    2    0    0  0.11096463640E+03  0.28960608189E+02  0.42882115305E+03  0.46115555798E+03  0.12500000000E+03 0.  0.
         25    1    1    2    0    0 -0.40264390352E+02  0.77296750770E+02  0.13845714486E+03  0.20589169428E+03  0.12500000000E+03 0.  0.
</event>
<event>
 5    0  0.5670250E-005  0.2469112E+03  0.7546771E-02  0.1115273E+00
         21   -1    0    0  502  501  0.00000000000E+00  0.00000000000E+00  0.18266883176E+04  0.18266883176E+04  0.00000000000E+00 0. -1.
         21   -1    0    0  501  502 -0.00000000000E+00 -0.00000000000E+00 -0.33374686558E+02  0.33374686558E+02  0.00000000000E+00 0. -1.
         25    1    1    2    0    0 -0.88255485673E+02 -0.16881154455E+02  0.32102584859E+03  0.35602893083E+03  0.12500000000E+03 0.  0.
         25    1    1    2    0    0  0.21853631827E+02  0.60181459711E+02  0.45939635110E+03  0.48038463414E+03  0.12500000000E+03 0.  0.
         25    1    1    2    0    0  0.66401853846E+02 -0.43300305256E+02  0.10128914313E+04  0.10236494391E+04  0.12500000000E+03 0.  0.
</event>
<event>
 5    0  0.5670250E-005  0.2637752E+03  0.7546771E-02  0.1104896E+00
         21   -1    0    0  502  501  0.00000000000E+00  0.00000000000E+00  0.30464878217E+03  0.30464878217E+03  0.00000000000E+00 0. -1.
         21   -1    0    0  501  502 -0.00000000000E+00 -0.00000000000E+00 -0.22838543391E+03  0.22838543391E+03  0.00000000000E+00 0. -1.
         25    1    1    2    0    0  0.26095487456E+02 -0.31585180774E+02  0.79277619958E+02  0.15358560849E+03  0.12500000000E+03 0.  0.
         25    1    1    2    0    0  0.46232954883E+02 -0.18667045428E+02  0.12222474628E+03  0.18179613116E+03  0.12500000000E+03 0.  0.
         25    1    1    2    0    0 -0.72328442339E+02  0.50252226201E+02 -0.12523901799E+03  0.19765247642E+03  0.12500000000E+03 0.  0.
</event>
<event>
 5    0  0.5670250E-005  0.2258155E+03  0.7546771E-02  0.1129620E+00
         21   -1    0    0  502  501  0.00000000000E+00  0.00000000000E+00  0.63138400955E+03  0.63138400955E+03  0.00000000000E+00 0.  1.
         21   -1    0    0  501  502 -0.00000000000E+00 -0.00000000000E+00 -0.80763282951E+02  0.80763282951E+02  0.00000000000E+00 0.  1.
         25    1    1    2    0    0  0.12259148315E+02  0.12555657377E+02  0.41498439626E+02  0.13287231367E+03  0.12500000000E+03 0.  0.
         25    1    1    2    0    0 -0.52946702339E+02 -0.40146877759E+02  0.24489931249E+03  0.28287063888E+03  0.12500000000E+03 0.  0.
         25    1    1    2    0    0  0.40687554023E+02  0.27591220382E+02  0.26422297448E+03  0.29640433995E+03  0.12500000000E+03 0.  0.
</event>
<event>
 5    0  0.5670250E-005  0.3175235E+03  0.7546771E-02  0.1076795E+00
         21   -1    0    0  502  501  0.00000000000E+00  0.00000000000E+00  0.11660214899E+04  0.11660214899E+04  0.00000000000E+00 0.  1.
         21   -1    0    0  501  502 -0.00000000000E+00 -0.00000000000E+00 -0.86465951395E+02  0.86465951395E+02  0.00000000000E+00 0.  1.
         25    1    1    2    0    0 -0.92130503913E+02  0.36152892083E+02  0.20867206128E+03  0.26261014930E+03  0.12500000000E+03 0.  0.
         25    1    1    2    0    0 -0.55501553357E+01  0.12543420952E+03  0.64936571244E+03  0.67310131008E+03  0.12500000000E+03 0.  0.
         25    1    1    2    0    0  0.97680659249E+02 -0.16158710160E+03  0.22151776476E+03  0.31677598189E+03  0.12500000000E+03 0.  0.
</event>
<event>
 5    0  0.5670250E-005  0.5323565E+03  0.7546771E-02  0.1005662E+00
         21   -1    0    0  502  501  0.00000000000E+00  0.00000000000E+00  0.18680680971E+04  0.18680680971E+04  0.00000000000E+00 0. -1.
         21   -1    0    0  501  502 -0.00000000000E+00 -0.00000000000E+00 -0.15170939772E+03  0.15170939772E+03  0.00000000000E+00 0. -1.
         25    1    1    2    0    0 -0.15630253419E+03  0.11329496016E+03  0.36055033743E+02  0.23279002481E+03  0.12500000000E+03 0.  0.
         25    1    1    2    0    0  0.31275168041E+03 -0.19227611929E+03  0.96573749221E+03  0.10407005446E+04  0.12500000000E+03 0.  0.
         25    1    1    2    0    0 -0.15644914622E+03  0.78981159133E+02  0.71456617347E+03  0.74628692547E+03  0.12500000000E+03 0.  0.
</event>
<event>
 5    0  0.5670250E-005  0.2608265E+03  0.7546771E-02  0.1106648E+00
         21   -1    0    0  502  501  0.00000000000E+00  0.00000000000E+00  0.73310330103E+02  0.73310330103E+02  0.00000000000E+00 0.  1.
         21   -1    0    0  501  502 -0.00000000000E+00 -0.00000000000E+00 -0.92797887045E+03  0.92797887045E+03  0.00000000000E+00 0.  1.
         25    1    1    2    0    0 -0.87535772047E+02  0.13411988675E+03 -0.37897155931E+03  0.42999430016E+03  0.12500000000E+03 0.  0.
         25    1    1    2    0    0  0.64073199822E+02 -0.11203399823E+03 -0.21348150727E+03  0.27902749980E+03  0.12500000000E+03 0.  0.
         25    1    1    2    0    0  0.23462572224E+02 -0.22085888521E+02 -0.26221547377E+03  0.29226740059E+03  0.12500000000E+03 0.  0.
</event>
<event>
 5    0  0.5670250E-005  0.3827125E+03  0.7546771E-02  0.1049936E+00
         21   -1    0    0  502  501  0.00000000000E+00  0.00000000000E+00  0.13852785774E+04  0.13852785774E+04  0.00000000000E+00 0.  1.
         21   -1    0    0  501  502 -0.00000000000E+00 -0.00000000000E+00 -0.10573240231E+03  0.10573240231E+03  0.00000000000E+00 0.  1.
         25    1    1    2    0    0  0.25847450298E+02  0.23971283087E+03  0.51061528237E+03  0.57834531083E+03  0.12500000000E+03 0.  0.
         25    1    1    2    0    0  0.38068881824E+02 -0.25235666074E+03  0.26208598498E+03  0.38658399800E+03  0.12500000000E+03 0.  0.
         25    1    1    2    0    0 -0.63916332122E+02  0.12643829872E+02  0.50684490773E+03  0.52608167088E+03  0.12500000000E+03 0.  0.
</event>
<event>
 5    0  0.5670250E-005  0.3623850E+03  0.7546771E-02  0.1057643E+00
         21   -1    0    0  502  501  0.00000000000E+00  0.00000000000E+00  0.82033748274E+03  0.82033748274E+03  0.00000000000E+00 0. -1.
         21   -1    0    0  501  502 -0.00000000000E+00 -0.00000000000E+00 -0.16008395885E+03  0.16008395885E+03  0.00000000000E+00 0. -1.
         25    1    1    2    0    0 -0.43803436102E+02 -0.15232927055E+03  0.37053658052E+03  0.42195415057E+03  0.12500000000E+03 0.  0.
         25    1    1    2    0    0 -0.13419603825E+03  0.16764638949E+03  0.94612007802E+02  0.26587651384E+03  0.12500000000E+03 0.  0.
         25    1    1    2    0    0  0.17799947436E+03 -0.15317118946E+02  0.19510493557E+03  0.29259077717E+03  0.12500000000E+03 0.  0.
</event>
<event>
 5    0  0.5670250E-005  0.2464431E+03  0.7546771E-02  0.1115574E+00
         21   -1    0    0  502  501  0.00000000000E+00  0.00000000000E+00  0.13420252662E+03  0.13420252662E+03  0.00000000000E+00 0.  1.
         21   -1    0    0  501  502 -0.00000000000E+00 -0.00000000000E+00 -0.45255634306E+03  0.45255634306E+03  0.00000000000E+00 0.  1.
         25    1    1    2    0    0  0.11626233150E+03 -0.29031386908E+02 -0.24703214802E+02  0.17491426463E+03  0.12500000000E+03 0.  0.
         25    1    1    2    0    0 -0.62051198605E+02  0.52992356775E+02 -0.13403088915E+03  0.20061859428E+03  0.12500000000E+03 0.  0.
         25    1    1    2    0    0 -0.54211132893E+02 -0.23960969868E+02 -0.15961971248E+03  0.21122601076E+03  0.12500000000E+03 0.  0.
</event>
<event>
 5    0  0.5670250E-005  0.3121964E+03  0.7546771E-02  0.1079298E+00
         21   -1    0    0  502  501  0.00000000000E+00  0.00000000000E+00  0.96563975757E+03  0.96563975757E+03  0.00000000000E+00 0. -1.
         21   -1    0    0  501  502 -0.00000000000E+00 -0.00000000000E+00 -0.10093476226E+03  0.10093476226E+03  0.00000000000E+00 0. -1.
         25    1    1    2    0    0  0.69563517774E+02 -0.83248282037E+02  0.36317192970E+02  0.16944998664E+03  0.12500000000E+03 0.  0.
         25    1    1    2    0    0  0.62587183856E+02 -0.94176528678E+01  0.34958160534E+03  0.37661405518E+03  0.12500000000E+03 0.  0.
         25    1    1    2    0    0 -0.13215070163E+03  0.92665934905E+02  0.47880619699E+03  0.52051047801E+03  0.12500000000E+03 0.  0.
</event>
<event>
 5    0  0.5670250E-005  0.3001700E+03  0.7546771E-02  0.1085156E+00
         21   -1    0    0  502  501  0.00000000000E+00  0.00000000000E+00  0.17684285135E+03  0.17684285135E+03  0.00000000000E+00 0. -1.
         21   -1    0    0  501  502 -0.00000000000E+00 -0.00000000000E+00 -0.50950323212E+03  0.50950323212E+03  0.00000000000E+00 0. -1.
         25    1    1    2    0    0  0.14218203934E+03  0.98082377116E+02 -0.98577627486E+02  0.23490090177E+03  0.12500000000E+03 0.  0.
         25    1    1    2    0    0 -0.61316923888E+02 -0.89196783226E+02 -0.25181851734E+03  0.30125304474E+03  0.12500000000E+03 0.  0.
         25    1    1    2    0    0 -0.80865115454E+02 -0.88855938896E+01  0.17735764054E+02  0.15019213695E+03  0.12500000000E+03 0.  0.
</event>
<event>
 5    0  0.5670250E-005  0.3808521E+03  0.7546771E-02  0.1050619E+00
         21   -1    0    0  502  501  0.00000000000E+00  0.00000000000E+00  0.93681414758E+02  0.93681414758E+02  0.00000000000E+00 0. -1.
         21   -1    0    0  501  502 -0.00000000000E+00 -0.00000000000E+00 -0.15483146629E+04  0.15483146629E+04  0.00000000000E+00 0. -1.
         25    1    1    2    0    0 -0.91582448554E+01 -0.93183190866E+02 -0.14989148502E+03  0.21647040858E+03  0.12500000000E+03 0.  0.
         25    1    1    2    0    0 -0.79973931975E+02 -0.12513184112E+02 -0.50111842141E+02  0.15712608407E+03  0.12500000000E+03 0.  0.
         25    1    1    2    0    0  0.89132176830E+02  0.10569637498E+03 -0.12546299210E+04  0.12683995850E+04  0.12500000000E+03 0.  0.
</event>
<event>
 5    0  0.5670250E-005  0.2384234E+03  0.7546771E-02  0.1120848E+00
         21   -1    0    0  502  501  0.00000000000E+00  0.00000000000E+00  0.25886996759E+03  0.25886996759E+03  0.00000000000E+00 0. -1.
         21   -1    0    0  501  502 -0.00000000000E+00 -0.00000000000E+00 -0.21959176655E+03  0.21959176655E+03  0.00000000000E+00 0. -1.
         25    1    1    2    0    0  0.14619190268E+02  0.22760012278E+02 -0.39775626416E+02  0.13393595238E+03  0.12500000000E+03 0.  0.
         25    1    1    2    0    0  0.19619533191E+02 -0.11843910330E+03  0.28193426678E+02  0.17559218827E+03  0.12500000000E+03 0.  0.
         25    1    1    2    0    0 -0.34238723459E+02  0.95679091019E+02  0.50860400776E+02  0.16893359349E+03  0.12500000000E+03 0.  0.
</event>
<event>
 5    0  0.5670250E-005  0.2824082E+03  0.7546771E-02  0.1094381E+00
         21   -1    0    0  502  501  0.00000000000E+00  0.00000000000E+00  0.13929274970E+03  0.13929274970E+03  0.00000000000E+00 0.  1.
         21   -1    0    0  501  502 -0.00000000000E+00 -0.00000000000E+00 -0.57256677321E+03  0.57256677321E+03  0.00000000000E+00 0.  1.
         25    1    1    2    0    0  0.62570531914E+02 -0.11387265202E+03 -0.13445023653E+02  0.18079773506E+03  0.12500000000E+03 0.  0.
         25    1    1    2    0    0  0.29235052274E+02  0.30840509420E+02 -0.98473142355E+02  0.16470514585E+03  0.12500000000E+03 0.  0.
         25    1    1    2    0    0 -0.91805584188E+02  0.83032142598E+02 -0.32135585750E+03  0.36635664201E+03  0.12500000000E+03 0.  0.
</event>
<event>
 5    0  0.5670250E-005  0.5437418E+03  0.7546771E-02  0.1002953E+00
         21   -1    0    0  502  501  0.00000000000E+00  0.00000000000E+00  0.40544048548E+03  0.40544048548E+03  0.00000000000E+00 0.  1.
         21   -1    0    0  501  502 -0.00000000000E+00 -0.00000000000E+00 -0.72921958013E+03  0.72921958013E+03  0.00000000000E+00 0.  1.
         25    1    1    2    0    0 -0.20078310141E+02  0.47908476468E+02  0.98323154524E+02  0.16730452287E+03  0.12500000000E+03 0.  0.
         25    1    1    2    0    0 -0.16121596613E+02 -0.41370794723E+03 -0.60320472158E+02  0.43666661292E+03  0.12500000000E+03 0.  0.
         25    1    1    2    0    0  0.36199906754E+02  0.36579947076E+03 -0.36178177701E+03  0.53068892982E+03  0.12500000000E+03 0.  0.
</event>
<event>
 5    0  0.5670250E-005  0.2349980E+03  0.7546771E-02  0.1123171E+00
         21   -1    0    0  502  501  0.00000000000E+00  0.00000000000E+00  0.20854287708E+03  0.20854287708E+03  0.00000000000E+00 0. -1.
         21   -1    0    0  501  502 -0.00000000000E+00 -0.00000000000E+00 -0.26480905791E+03  0.26480905791E+03  0.00000000000E+00 0. -1.
         25    1    1    2    0    0 -0.17522111159E+02  0.37280652157E+02 -0.32491640802E+02  0.13556392635E+03  0.12500000000E+03 0.  0.
         25    1    1    2    0    0  0.34251000741E+02 -0.13899813464E+02  0.96320495897E+02  0.16207706129E+03  0.12500000000E+03 0.  0.
         25    1    1    2    0    0 -0.16728889582E+02 -0.23380838693E+02 -0.12009503592E+03  0.17571094735E+03  0.12500000000E+03 0.  0.
</event>
<event>
 5    0  0.5670250E-005  0.5392361E+03  0.7546771E-02  0.1004016E+00
         21   -1    0    0  502  501  0.00000000000E+00  0.00000000000E+00  0.10828828579E+04  0.10828828579E+04  0.00000000000E+00 0. -1.
         21   -1    0    0  501  502 -0.00000000000E+00 -0.00000000000E+00 -0.26851991026E+03  0.26851991026E+03  0.00000000000E+00 0. -1.
         25    1    1    2    0    0  0.26542933062E+03  0.21783277736E+03  0.21055316733E+03  0.42173627390E+03  0.12500000000E+03 0.  0.
         25    1    1    2    0    0  0.12222339972E+02  0.14537235481E+03  0.33125104794E+03  0.38292918914E+03  0.12500000000E+03 0.  0.
         25    1    1    2    0    0 -0.27765167059E+03 -0.36320513217E+03  0.27255873235E+03  0.54673730511E+03  0.12500000000E+03 0.  0.
</event>
<event>
 5    0  0.5670250E-005  0.2931538E+03  0.7546771E-02  0.1088714E+00
         21   -1    0    0  502  501  0.00000000000E+00  0.00000000000E+00  0.58247595240E+02  0.58247595240E+02  0.00000000000E+00 0.  1.
         21   -1    0    0  501  502 -0.00000000000E+00 -0.00000000000E+00 -0.14754113705E+04  0.14754113705E+04  0.00000000000E+00 0.  1.
         25    1    1    2    0    0 -0.71506606968E+02 -0.95494589458E+02 -0.27741033211E+03  0.32682396457E+03  0.12500000000E+03 0.  0.
         25    1    1    2    0    0  0.16819435149E+03  0.11163324405E+03 -0.71121051553E+03  0.74979778504E+03  0.12500000000E+03 0.  0.
         25    1    1    2    0    0 -0.96687744527E+02 -0.16138654588E+02 -0.42854292759E+03  0.45703721610E+03  0.12500000000E+03 0.  0.
</event>
<event>
 5    0  0.5670250E-005  0.3942357E+03  0.7546771E-02  0.1045794E+00
         21   -1    0    0  502  501  0.00000000000E+00  0.00000000000E+00  0.42596241613E+03  0.42596241613E+03  0.00000000000E+00 0.  1.
         21   -1    0    0  501  502 -0.00000000000E+00 -0.00000000000E+00 -0.36487204490E+03  0.36487204490E+03  0.00000000000E+00 0.  1.
         25    1    1    2    0    0 -0.16467772282E+03  0.17144140211E+02  0.17346638590E+03  0.27042237513E+03  0.12500000000E+03 0.  0.
         25    1    1    2    0    0 -0.10269821412E+03  0.63353445856E+02 -0.12529556049E+03  0.21420681540E+03  0.12500000000E+03 0.  0.
         25    1    1    2    0    0  0.26737593694E+03 -0.80497586066E+02  0.12919545825E+02  0.30620527050E+03  0.12500000000E+03 0.  0.
</event>
<event>
 5    0  0.5670250E-005  0.5659827E+03  0.7546771E-02  0.9978608E-01
         21   -1    0    0  502  501  0.00000000000E+00  0.00000000000E+00  0.19049022706E+04  0.19049022706E+04  0.00000000000E+00 0.  1.
         21   -1    0    0  501  502 -0.00000000000E+00 -0.00000000000E+00 -0.16816424449E+03  0.16816424449E+03  0.00000000000E+00 0.  1.
         25    1    1    2    0    0  0.42000530698E+03  0.46809866643E+02  0.63199713773E+03  0.77048102093E+03  0.12500000000E+03 0.  0.
         25    1    1    2    0    0 -0.18948244945E+02 -0.13525201364E+03  0.65576256605E+03  0.68139686395E+03  0.12500000000E+03 0.  0.
         25    1    1    2    0    0 -0.40105706204E+03  0.88442146997E+02  0.44897832233E+03  0.62118863021E+03  0.12500000000E+03 0.  0.
</event>
<event>
 5    0  0.5670250E-005  0.2709589E+03  0.7546771E-02  0.1100732E+00
         21   -1    0    0  502  501  0.00000000000E+00  0.00000000000E+00  0.59393117523E+02  0.59393117523E+02  0.00000000000E+00 0.  1.
         21   -1    0    0  501  502 -0.00000000000E+00 -0.00000000000E+00 -0.12361489894E+04  0.12361489894E+04  0.00000000000E+00 0.  1.
         25    1    1    2    0    0  0.13120256424E+03  0.10185927257E+03 -0.66827016005E+03  0.69985672182E+03  0.12500000000E+03 0.  0.
         25    1    1    2    0    0 -0.49040559204E+02 -0.11797109999E+02 -0.19926179648E+03  0.24057101194E+03  0.12500000000E+03 0.  0.
         25    1    1    2    0    0 -0.82162005034E+02 -0.90062162572E+02 -0.30922391537E+03  0.35511437317E+03  0.12500000000E+03 0.  0.
</event>
<event>
 5    0  0.5670250E-005  0.2796338E+03  0.7546771E-02  0.1095889E+00
         21   -1    0    0  502  501  0.00000000000E+00  0.00000000000E+00  0.10558118100E+03  0.10558118100E+03  0.00000000000E+00 0. -1.
         21   -1    0    0  501  502 -0.00000000000E+00 -0.00000000000E+00 -0.74061548156E+03  0.74061548156E+03  0.00000000000E+00 0. -1.
         25    1    1    2    0    0  0.10375510340E+03 -0.15664284758E+02 -0.30880805486E+03  0.34928198643E+03  0.12500000000E+03 0.  0.
         25    1    1    2    0    0 -0.27362401850E+02  0.65556789727E+02 -0.91254309782E+01  0.14406480210E+03  0.12500000000E+03 0.  0.
         25    1    1    2    0    0 -0.76392701552E+02 -0.49892504968E+02 -0.31710081472E+03  0.35284987403E+03  0.12500000000E+03 0.  0.
</event>
<event>
 5    0  0.5670250E-005  0.2667247E+03  0.7546771E-02  0.1103169E+00
         21   -1    0    0  502  501  0.00000000000E+00  0.00000000000E+00  0.62321180468E+02  0.62321180468E+02  0.00000000000E+00 0. -1.
         21   -1    0    0  501  502 -0.00000000000E+00 -0.00000000000E+00 -0.11415387907E+04  0.11415387907E+04  0.00000000000E+00 0. -1.
         25    1    1    2    0    0 -0.57251656557E+02 -0.10165976151E+03 -0.37840937273E+03  0.41524825425E+03  0.12500000000E+03 0.  0.
         25    1    1    2    0    0  0.78109016688E+02  0.77065754866E+02 -0.15366815274E+03  0.22644878058E+03  0.12500000000E+03 0.  0.
         25    1    1    2    0    0 -0.20857360131E+02  0.24594006642E+02 -0.54714008477E+03  0.56216293634E+03  0.12500000000E+03 0.  0.
</event>
<event>
 5    0  0.5670250E-005  0.3425226E+03  0.7546771E-02  0.1065727E+00
         21   -1    0    0  502  501  0.00000000000E+00  0.00000000000E+00  0.52322564975E+03  0.52322564975E+03  0.00000000000E+00 0.  1.
         21   -1    0    0  501  502 -0.00000000000E+00 -0.00000000000E+00 -0.22422776451E+03  0.22422776451E+03  0.00000000000E+00 0.  1.
         25    1    1    2    0    0 -0.22633707318E+02  0.21587385125E+03  0.19816683770E+02  0.25125983626E+03  0.12500000000E+03 0.  0.
         25    1    1    2    0    0  0.39598678193E+02  0.29323677207E+02  0.86417622442E+02  0.15975274279E+03  0.12500000000E+03 0.  0.
         25    1    1    2    0    0 -0.16964970875E+02 -0.24519752846E+03  0.19276357903E+03  0.33644083521E+03  0.12500000000E+03 0.  0.
</event>
<event>
 5    0  0.5670250E-005  0.3439735E+03  0.7546771E-02  0.1065116E+00
         21   -1    0    0  502  501  0.00000000000E+00  0.00000000000E+00  0.12500994570E+03  0.12500994570E+03  0.00000000000E+00 0.  1.
         21   -1    0    0  501  502 -0.00000000000E+00 -0.00000000000E+00 -0.94646672735E+03  0.94646672735E+03  0.00000000000E+00 0.  1.
         25    1    1    2    0    0  0.22463741550E+02  0.14304997587E+03 -0.47165685418E+03  0.50897259590E+03  0.12500000000E+03 0.  0.
         25    1    1    2    0    0 -0.14286134182E+03 -0.87473214985E+02 -0.55337830190E+02  0.21621332470E+03  0.12500000000E+03 0.  0.
         25    1    1    2    0    0  0.12039760027E+03 -0.55576760881E+02 -0.29446209728E+03  0.34629075246E+03  0.12500000000E+03 0.  0.
</event>
<event>
 5    0  0.5670250E-005  0.2688845E+03  0.7546771E-02  0.1101920E+00
         21   -1    0    0  502  501  0.00000000000E+00  0.00000000000E+00  0.93205476153E+02  0.93205476153E+02  0.00000000000E+00 0. -1.
         21   -1    0    0  501  502 -0.00000000000E+00 -0.00000000000E+00 -0.77569338299E+03  0.77569338299E+03  0.00000000000E+00 0. -1.
         25    1    1    2    0    0 -0.60368238021E+02 -0.10861671902E+03 -0.31064801573E+03  0.35716817536E+03  0.12500000000E+03 0.  0.
         25    1    1    2    0    0 -0.23486194534E+02  0.12371840405E+03 -0.10834379455E+03  0.20789714440E+03  0.12500000000E+03 0.  0.
         25    1    1    2    0    0  0.83854432554E+02 -0.15101685030E+02 -0.26349609656E+03  0.30383353938E+03  0.12500000000E+03 0.  0.
</event>
<event>
 5    0  0.5670250E-005  0.2460563E+03  0.7546771E-02  0.1115823E+00
         21   -1    0    0  502  501  0.00000000000E+00  0.00000000000E+00  0.27607854002E+03  0.27607854002E+03  0.00000000000E+00 0.  1.
         21   -1    0    0  501  502 -0.00000000000E+00 -0.00000000000E+00 -0.21929880381E+03  0.21929880381E+03  0.00000000000E+00 0.  1.
         25    1    1    2    0    0 -0.51571101422E+02 -0.58842066236E+02 -0.39019413246E+02  0.15254337701E+03  0.12500000000E+03 0.  0.
         25    1    1    2    0    0 -0.28707733701E+02  0.10431955850E+03  0.10647826382E+02  0.16566556814E+03  0.12500000000E+03 0.  0.
         25    1    1    2    0    0  0.80278835123E+02 -0.45477492263E+02  0.85151323077E+02  0.17716839869E+03  0.12500000000E+03 0.  0.
</event>
<event>
 5    0  0.5670250E-005  0.4464270E+03  0.7546771E-02  0.1028793E+00
         21   -1    0    0  502  501  0.00000000000E+00  0.00000000000E+00  0.29227273175E+03  0.29227273175E+03  0.00000000000E+00 0.  1.
         21   -1    0    0  501  502 -0.00000000000E+00 -0.00000000000E+00 -0.68188722972E+03  0.68188722972E+03  0.00000000000E+00 0.  1.
         25    1    1    2    0    0  0.21765827607E+03  0.13212734345E+03 -0.21936349697E+03  0.35857789089E+03  0.12500000000E+03 0.  0.
         25    1    1    2    0    0  0.55352388729E+02  0.61137314646E+02  0.89093722477E+02  0.17425369312E+03  0.12500000000E+03 0.  0.
         25    1    1    2    0    0 -0.27301066480E+03 -0.19326465810E+03 -0.25934472347E+03  0.44132837747E+03  0.12500000000E+03 0.  0.
</event>
<event>
 5    0  0.5670250E-005  0.2446801E+03  0.7546771E-02  0.1116714E+00
         21   -1    0    0  502  501  0.00000000000E+00  0.00000000000E+00  0.20207678429E+03  0.20207678429E+03  0.00000000000E+00 0.  1.
         21   -1    0    0  501  502 -0.00000000000E+00 -0.00000000000E+00 -0.29626544843E+03  0.29626544843E+03  0.00000000000E+00 0.  1.
         25    1    1    2    0    0 -0.80310037609E+02 -0.57571358177E+02 -0.27277084686E+02  0.16165767155E+03  0.12500000000E+03 0.  0.
         25    1    1    2    0    0  0.10955957699E+03  0.78009908057E+02 -0.90279602904E+02  0.20460755941E+03  0.12500000000E+03 0.  0.
         25    1    1    2    0    0 -0.29249539381E+02 -0.20438549880E+02  0.23368023448E+02  0.13207700176E+03  0.12500000000E+03 0.  0.
</event>
<event>
 5    0  0.5670250E-005  0.2733892E+03  0.7546771E-02  0.1099355E+00
         21   -1    0    0  502  501  0.00000000000E+00  0.00000000000E+00  0.19923489852E+03  0.19923489852E+03  0.00000000000E+00 0.  1.
         21   -1    0    0  501  502 -0.00000000000E+00 -0.00000000000E+00 -0.37514333629E+03  0.37514333629E+03  0.00000000000E+00 0.  1.
         25    1    1    2    0    0  0.74189439611E+02 -0.42355464818E+02 -0.44133135525E+02  0.15770476214E+03  0.12500000000E+03 0.  0.
         25    1    1    2    0    0 -0.36748341209E+02 -0.34311221807E+02  0.79762462977E+02  0.15657187175E+03  0.12500000000E+03 0.  0.
         25    1    1    2    0    0 -0.37441098402E+02  0.76666686625E+02 -0.21153776522E+03  0.26010160092E+03  0.12500000000E+03 0.  0.
</event>
<event>
 5    0  0.5670250E-005  0.3768202E+03  0.7546771E-02  0.1052115E+00
         21   -1    0    0  502  501  0.00000000000E+00  0.00000000000E+00  0.96169265665E+03  0.96169265665E+03  0.00000000000E+00 0. -1.
         21   -1    0    0  501  502 -0.00000000000E+00 -0.00000000000E+00 -0.14764954372E+03  0.14764954372E+03  0.00000000000E+00 0. -1.
         25    1    1    2    0    0  0.46338457839E+02  0.29805389358E+03  0.24331678320E+03  0.40719950042E+03  0.12500000000E+03 0.  0.
         25    1    1    2    0    0 -0.48047085787E+02 -0.88789637242E+02  0.27920282383E+03  0.32213559097E+03  0.12500000000E+03 0.  0.
         25    1    1    2    0    0  0.17086279483E+01 -0.20926425634E+03  0.29152350590E+03  0.38000710899E+03  0.12500000000E+03 0.  0.
</event>
<event>
 5    0  0.5670250E-005  0.2454864E+03  0.7546771E-02  0.1116191E+00
         21   -1    0    0  502  501  0.00000000000E+00  0.00000000000E+00  0.98270596803E+03  0.98270596803E+03  0.00000000000E+00 0. -1.
         21   -1    0    0  501  502 -0.00000000000E+00 -0.00000000000E+00 -0.61324107119E+02  0.61324107119E+02  0.00000000000E+00 0. -1.
         25    1    1    2    0    0 -0.53815885634E+02 -0.21496484143E+01  0.47844322305E+03  0.49742706824E+03  0.12500000000E+03 0.  0.
         25    1    1    2    0    0 -0.25028883678E+01 -0.90184319183E+02  0.23343138181E+03  0.27974039016E+03  0.12500000000E+03 0.  0.
         25    1    1    2    0    0  0.56318774002E+02  0.92333967597E+02  0.20950725605E+03  0.26686261675E+03  0.12500000000E+03 0.  0.
</event>
<event>
 5    0  0.5670250E-005  0.3974523E+03  0.7546771E-02  0.1044665E+00
         21   -1    0    0  502  501  0.00000000000E+00  0.00000000000E+00  0.19674544576E+03  0.19674544576E+03  0.00000000000E+00 0. -1.
         21   -1    0    0  501  502 -0.00000000000E+00 -0.00000000000E+00 -0.80290710101E+03  0.80290710101E+03  0.00000000000E+00 0. -1.
         25    1    1    2    0    0  0.59528058142E+02  0.41257584123E+02 -0.57040435927E+03  0.58841474406E+03  0.12500000000E+03 0.  0.
         25    1    1    2    0    0 -0.50130048729E+02 -0.25843151069E+02  0.13923568398E+03  0.19542892809E+03  0.12500000000E+03 0.  0.
         25    1    1    2    0    0 -0.93980094131E+01 -0.15414433054E+02 -0.17499297996E+03  0.21580887461E+03  0.12500000000E+03 0.  0.
</event>
<event>
 5    0  0.5670250E-005  0.3587457E+03  0.7546771E-02  0.1059082E+00
         21   -1    0    0  502  501  0.00000000000E+00  0.00000000000E+00  0.18083039601E+04  0.18083039601E+04  0.00000000000E+00 0.  1.
         21   -1    0    0  501  502 -0.00000000000E+00 -0.00000000000E+00 -0.71170825430E+02  0.71170825430E+02  0.00000000000E+00 0.  1.
         25    1    1    2    0    0  0.12006753495E+02 -0.15557904045E+03  0.18281686823E+03  0.27091697486E+03  0.12500000000E+03 0.  0.
         25    1    1    2    0    0 -0.43903616086E+02  0.98686743279E+01  0.11725224351E+04  0.11800249061E+04  0.12500000000E+03 0.  0.
         25    1    1    2    0    0  0.31896862590E+02  0.14571036612E+03  0.38179383134E+03  0.42853290456E+03  0.12500000000E+03 0.  0.
</event>
<event>
 5    0  0.5670250E-005  0.2378331E+03  0.7546771E-02  0.1121245E+00
         21   -1    0    0  502  501  0.00000000000E+00  0.00000000000E+00  0.13451252188E+04  0.13451252188E+04  0.00000000000E+00 0.  1.
         21   -1    0    0  501  502 -0.00000000000E+00 -0.00000000000E+00 -0.42051530854E+02  0.42051530854E+02  0.00000000000E+00 0.  1.
         25    1    1    2    0    0  0.29752380513E+02 -0.96642523995E+02  0.75270131628E+03  0.76968126722E+03  0.12500000000E+03 0.  0.
         25    1    1    2    0    0  0.13378702760E+02  0.73311008851E+02  0.27515105565E+03  0.31126611947E+03  0.12500000000E+03 0.  0.
         25    1    1    2    0    0 -0.43131083273E+02  0.23331515144E+02  0.27522131597E+03  0.30622936291E+03  0.12500000000E+03 0.  0.
</event>
<event>
 5    0  0.5683490E-005  0.3564380E+03  0.7546771E-02  0.1060003E+00
         21   -1    0    0  502  501  0.00000000000E+00  0.00000000000E+00  0.29457529788E+03  0.29457529788E+03  0.00000000000E+00 0.  1.
         21   -1    0    0  501  502 -0.00000000000E+00 -0.00000000000E+00 -0.43129238147E+03  0.43129238147E+03  0.00000000000E+00 0.  1.
         25    1    1    2    0    0  0.14212106896E+03 -0.11087273650E+02  0.14588364150E+03  0.23922450279E+03  0.12500000000E+03 0.  0.
         25    1    1    2    0    0  0.54761951866E+02  0.66312803028E+02 -0.14710024249E+03  0.21132851336E+03  0.12500000000E+03 0.  0.
         25    1    1    2    0    0 -0.19688302083E+03 -0.55225529379E+02 -0.13550048260E+03  0.27531466319E+03  0.12500000000E+03 0.  0.
</event>
<event>
 5    0  0.5670250E-005  0.3102896E+03  0.7546771E-02  0.1080207E+00
         21   -1    0    0  502  501  0.00000000000E+00  0.00000000000E+00  0.32854628557E+03  0.32854628557E+03  0.00000000000E+00 0. -1.
         21   -1    0    0  501  502 -0.00000000000E+00 -0.00000000000E+00 -0.29304737999E+03  0.29304737999E+03  0.00000000000E+00 0. -1.
         25    1    1    2    0    0 -0.57852177537E+02 -0.91408169787E+02 -0.17455549414E+03  0.24040995921E+03  0.12500000000E+03 0.  0.
         25    1    1    2    0    0 -0.24055539943E+02 -0.22778830926E+02  0.98030564314E+02  0.16227302820E+03  0.12500000000E+03 0.  0.
         25    1    1    2    0    0  0.81907717480E+02  0.11418700071E+03  0.11202383541E+03  0.21891067817E+03  0.12500000000E+03 0.  0.
</event>
<event>
 5    0  0.5670250E-005  0.3388023E+03  0.7546771E-02  0.1067307E+00
         21   -1    0    0  502  501  0.00000000000E+00  0.00000000000E+00  0.51171000236E+02  0.51171000236E+02  0.00000000000E+00 0.  1.
         21   -1    0    0  501  502 -0.00000000000E+00 -0.00000000000E+00 -0.22432042742E+04  0.22432042742E+04  0.00000000000E+00 0.  1.
         25    1    1    2    0    0  0.11802374521E+03 -0.47848447303E+02 -0.25728232401E+03  0.31311063954E+03  0.12500000000E+03 0.  0.
         25    1    1    2    0    0 -0.17474966578E+03  0.14195629305E+03 -0.10609388965E+04  0.10917441902E+04  0.12500000000E+03 0.  0.
         25    1    1    2    0    0  0.56725920570E+02 -0.94107845751E+02 -0.87381205346E+03  0.88952044466E+03  0.12500000000E+03 0.  0.
</event>
<event>
 5    0  0.5670250E-005  0.3279963E+03  0.7546771E-02  0.1072027E+00
         21   -1    0    0  502  501  0.00000000000E+00  0.00000000000E+00  0.18928346557E+03  0.18928346557E+03  0.00000000000E+00 0.  1.
         21   -1    0    0  501  502 -0.00000000000E+00 -0.00000000000E+00 -0.56836227805E+03  0.56836227805E+03  0.00000000000E+00 0.  1.
         25    1    1    2    0    0  0.18451032430E+03  0.15480023310E+03 -0.24205056090E+03  0.36362156973E+03  0.12500000000E+03 0.  0.
         25    1    1    2    0    0 -0.14720107162E+03 -0.81683512474E+02 -0.33979766709E+02  0.21241463283E+03  0.12500000000E+03 0.  0.
         25    1    1    2    0    0 -0.37309252680E+02 -0.73116720621E+02 -0.10304848487E+03  0.18160954106E+03  0.12500000000E+03 0.  0.
</event>
<event>
 5    0  0.5670250E-005  0.4967176E+03  0.7546771E-02  0.1014639E+00
         21   -1    0    0  502  501  0.00000000000E+00  0.00000000000E+00  0.11984307335E+04  0.11984307335E+04  0.00000000000E+00 0. -1.
         21   -1    0    0  501  502 -0.00000000000E+00 -0.00000000000E+00 -0.20587617796E+03  0.20587617796E+03  0.00000000000E+00 0. -1.
         25    1    1    2    0    0  0.21021970992E+02 -0.39091318072E+03  0.22207490749E+03  0.46711594135E+03  0.12500000000E+03 0.  0.
         25    1    1    2    0    0 -0.29654049852E+02  0.28794892339E+03  0.28386111374E+03  0.42425944544E+03  0.12500000000E+03 0.  0.
         25    1    1    2    0    0  0.86320788599E+01  0.10296425733E+03  0.48661853429E+03  0.51293152465E+03  0.12500000000E+03 0.  0.
</event>
<event>
 5    0  0.5670250E-005  0.3231303E+03  0.7546771E-02  0.1074218E+00
         21   -1    0    0  502  501  0.00000000000E+00  0.00000000000E+00  0.19149564853E+04  0.19149564853E+04  0.00000000000E+00 0.  1.
         21   -1    0    0  501  502 -0.00000000000E+00 -0.00000000000E+00 -0.54525099848E+02  0.54525099848E+02  0.00000000000E+00 0.  1.
         25    1    1    2    0    0 -0.94155011872E+02  0.12801458822E+02  0.65666526727E+03  0.67517650792E+03  0.12500000000E+03 0.  0.
         25    1    1    2    0    0  0.91941893121E+02 -0.18743965529E+03  0.46324059472E+03  0.52326263452E+03  0.12500000000E+03 0.  0.
         25    1    1    2    0    0  0.22131187510E+01  0.17463819647E+03  0.74052552348E+03  0.77104244273E+03  0.12500000000E+03 0.  0.
</event>
<event>
 5    0  0.5670250E-005  0.3372425E+03  0.7546771E-02  0.1067977E+00
         21   -1    0    0  502  501  0.00000000000E+00  0.00000000000E+00  0.67203852544E+03  0.67203852544E+03  0.00000000000E+00 0. -1.
         21   -1    0    0  501  502 -0.00000000000E+00 -0.00000000000E+00 -0.16923505059E+03  0.16923505059E+03  0.00000000000E+00 0. -1.
         25    1    1    2    0    0  0.13315955240E+03 -0.23391165361E+00  0.18303820499E+03  0.25857205107E+03  0.12500000000E+03 0.  0.
         25    1    1    2    0    0 -0.26228699166E+03  0.60069648667E+02  0.17670474053E+03  0.34532939928E+03  0.12500000000E+03 0.  0.
         25    1    1    2    0    0  0.12912743926E+03 -0.59835737014E+02  0.14306052933E+03  0.23737212567E+03  0.12500000000E+03 0.  0.
</event>
<event>
 5    0  0.5670250E-005  0.3247888E+03  0.7546771E-02  0.1073466E+00
         21   -1    0    0  502  501  0.00000000000E+00  0.00000000000E+00  0.17389503312E+03  0.17389503312E+03  0.00000000000E+00 0.  1.
         21   -1    0    0  501  502 -0.00000000000E+00 -0.00000000000E+00 -0.60661728125E+03  0.60661728125E+03  0.00000000000E+00 0.  1.
         25    1    1    2    0    0  0.38938940502E+02 -0.24663765476E+02  0.43112838105E+02  0.14002949412E+03  0.12500000000E+03 0.  0.
         25    1    1    2    0    0  0.62523293656E+01  0.22677555218E+02  0.18548156256E+02  0.12853947734E+03  0.12500000000E+03 0.  0.
         25    1    1    2    0    0 -0.45191269868E+02  0.19862102581E+01 -0.49438324248E+03  0.51194334291E+03  0.12500000000E+03 0.  0.
</event>
<event>
 5    0  0.5670250E-005  0.4542943E+03  0.7546771E-02  0.1026449E+00
         21   -1    0    0  502  501  0.00000000000E+00  0.00000000000E+00  0.22120395805E+04  0.22120395805E+04  0.00000000000E+00 0. -1.
         21   -1    0    0  501  502 -0.00000000000E+00 -0.00000000000E+00 -0.93300028002E+02  0.93300028002E+02  0.00000000000E+00 0. -1.
         25    1    1    2    0    0  0.81520301176E+02 -0.35953617287E+02  0.20035154311E+03  0.25239644000E+03  0.12500000000E+03 0.  0.
         25    1    1    2    0    0 -0.37032231868E+03  0.11326714511E+03  0.10753459617E+04  0.11497660645E+04  0.12500000000E+03 0.  0.
         25    1    1    2    0    0  0.28880201750E+03 -0.77313527827E+02  0.84304204769E+03  0.90317710394E+03  0.12500000000E+03 0.  0.
</event>
<event>
 5    0  0.5670250E-005  0.3386119E+03  0.7546771E-02  0.1067389E+00
         21   -1    0    0  502  501  0.00000000000E+00  0.00000000000E+00  0.36469297114E+03  0.36469297114E+03  0.00000000000E+00 0.  1.
         21   -1    0    0  501  502 -0.00000000000E+00 -0.00000000000E+00 -0.31439605865E+03  0.31439605865E+03  0.00000000000E+00 0.  1.
         25    1    1    2    0    0 -0.48082102144E+02  0.15144017039E+03  0.48913308631E+01  0.20222497094E+03  0.12500000000E+03 0.  0.
         25    1    1    2    0    0  0.85952071241E+02 -0.15482354386E+03 -0.13407008152E+03  0.25486834845E+03  0.12500000000E+03 0.  0.
         25    1    1    2    0    0 -0.37869969097E+02  0.33833734633E+01  0.17947566314E+03  0.22199571040E+03  0.12500000000E+03 0.  0.
</event>
<event>
 5    0  0.5670250E-005  0.2617445E+03  0.7546771E-02  0.1106100E+00
         21   -1    0    0  502  501  0.00000000000E+00  0.00000000000E+00  0.33474335972E+03  0.33474335972E+03  0.00000000000E+00 0.  1.
         21   -1    0    0  501  502 -0.00000000000E+00 -0.00000000000E+00 -0.20466481688E+03  0.20466481688E+03  0.00000000000E+00 0.  1.
         25    1    1    2    0    0 -0.94936781397E+02  0.42711383410E+02  0.98878476329E+02  0.19036598387E+03  0.12500000000E+03 0.  0.
         25    1    1    2    0    0  0.68260707108E+02  0.83152533012E+02 -0.91588047793E+01  0.16517491210E+03  0.12500000000E+03 0.  0.
         25    1    1    2    0    0  0.26676074289E+02 -0.12586391642E+03  0.40358871285E+02  0.18386728063E+03  0.12500000000E+03 0.  0.
</event>
<event>
 5    0  0.5670250E-005  0.4257611E+03  0.7546771E-02  0.1035207E+00
         21   -1    0    0  502  501  0.00000000000E+00  0.00000000000E+00  0.78951467672E+03  0.78951467672E+03  0.00000000000E+00 0.  1.
         21   -1    0    0  501  502 -0.00000000000E+00 -0.00000000000E+00 -0.22959993437E+03  0.22959993437E+03  0.00000000000E+00 0.  1.
         25    1    1    2    0    0 -0.22689874538E+03 -0.16693167845E+03  0.26444796853E+03  0.40608737235E+03  0.12500000000E+03 0.  0.
         25    1    1    2    0    0  0.29748886235E+03  0.16080823100E+03  0.30036576568E+03  0.46925846137E+03  0.12500000000E+03 0.  0.
         25    1    1    2    0    0 -0.70590116967E+02  0.61234474435E+01 -0.48989918645E+01  0.14376877736E+03  0.12500000000E+03 0.  0.
</event>
<event>
 5    0  0.5670250E-005  0.5625082E+03  0.7546771E-02  0.9986395E-01
         21   -1    0    0  502  501  0.00000000000E+00  0.00000000000E+00  0.61866383401E+03  0.61866383401E+03  0.00000000000E+00 0. -1.
         21   -1    0    0  501  502 -0.00000000000E+00 -0.00000000000E+00 -0.51144979784E+03  0.51144979784E+03  0.00000000000E+00 0. -1.
         25    1    1    2    0    0  0.40767482456E+03 -0.10666980592E+03 -0.12696777607E+03  0.45751833432E+03  0.12500000000E+03 0.  0.
         25    1    1    2    0    0 -0.19353187431E+03 -0.14704312611E+03  0.13132370952E+03  0.30322794066E+03  0.12500000000E+03 0.  0.
         25    1    1    2    0    0 -0.21414295025E+03  0.25371293204E+03  0.10285810272E+03  0.36936735687E+03  0.12500000000E+03 0.  0.
</event>
<event>
 5    0  0.5670250E-005  0.2811640E+03  0.7546771E-02  0.1095055E+00
         21   -1    0    0  502  501  0.00000000000E+00  0.00000000000E+00  0.75716833195E+03  0.75716833195E+03  0.00000000000E+00 0. -1.
         21   -1    0    0  501  502 -0.00000000000E+00 -0.00000000000E+00 -0.10440634506E+03  0.10440634506E+03  0.00000000000E+00 0. -1.
         25    1    1    2    0    0  0.23325182084E+02 -0.19923890910E+02  0.61936112663E+02  0.14283594646E+03  0.12500000000E+03 0.  0.
         25    1    1    2    0    0 -0.73842877976E+02  0.20061077257E+02  0.40380172124E+02  0.15202228701E+03  0.12500000000E+03 0.  0.
         25    1    1    2    0    0  0.50517695892E+02 -0.13718634679E+00  0.55044570210E+03  0.56671644354E+03  0.12500000000E+03 0.  0.
</event>
<event>
 5    0  0.5670250E-005  0.2979249E+03  0.7546771E-02  0.1086283E+00
         21   -1    0    0  502  501  0.00000000000E+00  0.00000000000E+00  0.14634734408E+03  0.14634734408E+03  0.00000000000E+00 0.  1.
         21   -1    0    0  501  502 -0.00000000000E+00 -0.00000000000E+00 -0.60649713439E+03  0.60649713439E+03  0.00000000000E+00 0.  1.
         25    1    1    2    0    0  0.59436416425E+01  0.14665450206E+03  0.11656930091E+01  0.19279322781E+03  0.12500000000E+03 0.  0.
         25    1    1    2    0    0  0.45175817119E+02 -0.10160000221E+03 -0.18644267155E+03  0.25049807320E+03  0.12500000000E+03 0.  0.
         25    1    1    2    0    0 -0.51119458761E+02 -0.45054499853E+02 -0.27487281177E+03  0.30955317745E+03  0.12500000000E+03 0.  0.
</event>
<event>
 5    0  0.5670250E-005  0.2563174E+03  0.7546771E-02  0.1109376E+00
         21   -1    0    0  502  501  0.00000000000E+00  0.00000000000E+00  0.66806901976E+03  0.66806901976E+03  0.00000000000E+00 0.  1.
         21   -1    0    0  501  502 -0.00000000000E+00 -0.00000000000E+00 -0.98341081814E+02  0.98341081814E+02  0.00000000000E+00 0.  1.
         25    1    1    2    0    0 -0.10699041785E+03  0.31725626327E+02  0.15952164167E+03  0.23135604388E+03  0.12500000000E+03 0.  0.
         25    1    1    2    0    0 -0.30423670560E+02 -0.35289357323E+02  0.78299909893E+02  0.15468294786E+03  0.12500000000E+03 0.  0.
         25    1    1    2    0    0  0.13741408841E+03  0.35637309960E+01  0.33190638638E+03  0.38037110983E+03  0.12500000000E+03 0.  0.
</event>
<event>
 5    0  0.5670250E-005  0.2547127E+03  0.7546771E-02  0.1110362E+00
         21   -1    0    0  502  501  0.00000000000E+00  0.00000000000E+00  0.22059818511E+03  0.22059818511E+03  0.00000000000E+00 0. -1.
         21   -1    0    0  501  502 -0.00000000000E+00 -0.00000000000E+00 -0.29410297985E+03  0.29410297985E+03  0.00000000000E+00 0. -1.
         25    1    1    2    0    0 -0.65307181831E+02  0.11802321210E+02 -0.19887210396E+02  0.14291544326E+03  0.12500000000E+03 0.  0.
         25    1    1    2    0    0 -0.36037191038E+02 -0.53634801337E+02  0.76947715856E+02  0.16037868321E+03  0.12500000000E+03 0.  0.
         25    1    1    2    0    0  0.10134437287E+03  0.41832480128E+02 -0.13056530021E+03  0.21140703849E+03  0.12500000000E+03 0.  0.
</event>
<event>
 5    0  0.5670250E-005  0.2536656E+03  0.7546771E-02  0.1111010E+00
         21   -1    0    0  502  501  0.00000000000E+00  0.00000000000E+00  0.10984808093E+03  0.10984808093E+03  0.00000000000E+00 0.  1.
         21   -1    0    0  501  502 -0.00000000000E+00 -0.00000000000E+00 -0.58577497724E+03  0.58577497724E+03  0.00000000000E+00 0.  1.
         25    1    1    2    0    0 -0.12154207559E+03  0.52767705682E+02 -0.10129536759E+03  0.20842902485E+03  0.12500000000E+03 0.  0.
         25    1    1    2    0    0  0.10056368280E+03 -0.19723366170E+02 -0.12160573028E+03  0.20227461311E+03  0.12500000000E+03 0.  0.
         25    1    1    2    0    0  0.20978392796E+02 -0.33044339512E+02 -0.25302579844E+03  0.28491942021E+03  0.12500000000E+03 0.  0.
</event>
<event>
 5    0  0.5670250E-005  0.3024030E+03  0.7546771E-02  0.1084045E+00
         21   -1    0    0  502  501  0.00000000000E+00  0.00000000000E+00  0.10690906000E+03  0.10690906000E+03  0.00000000000E+00 0.  1.
         21   -1    0    0  501  502 -0.00000000000E+00 -0.00000000000E+00 -0.85537749209E+03  0.85537749209E+03  0.00000000000E+00 0.  1.
         25    1    1    2    0    0  0.39650050793E+02 -0.99004168784E+02 -0.42505302743E+03  0.45570717362E+03  0.12500000000E+03 0.  0.
         25    1    1    2    0    0 -0.68039703064E+02  0.16654780289E+03 -0.27961387373E+03  0.35521330243E+03  0.12500000000E+03 0.  0.
         25    1    1    2    0    0  0.28389652272E+02 -0.67543634107E+02 -0.43801530928E+02  0.15136607604E+03  0.12500000000E+03 0.  0.
</event>
<event>
 5    0  0.5670250E-005  0.5140190E+03  0.7546771E-02  0.1010183E+00
         21   -1    0    0  502  501  0.00000000000E+00  0.00000000000E+00  0.18985552777E+03  0.18985552777E+03  0.00000000000E+00 0.  1.
         21   -1    0    0  501  502 -0.00000000000E+00 -0.00000000000E+00 -0.13916660612E+04  0.13916660612E+04  0.00000000000E+00 0.  1.
         25    1    1    2    0    0 -0.26460107665E+03 -0.15924433314E+03 -0.83205930506E+03  0.89628130324E+03  0.12500000000E+03 0.  0.
         25    1    1    2    0    0  0.36492678109E+03  0.11888204724E+03 -0.31194944787E+03  0.51013915232E+03  0.12500000000E+03 0.  0.
         25    1    1    2    0    0 -0.10032570444E+03  0.40362285903E+02 -0.57801780521E+02  0.17510113342E+03  0.12500000000E+03 0.  0.
</event>
<event>
 5    0  0.5670250E-005  0.2631093E+03  0.7546771E-02  0.1105289E+00
         21   -1    0    0  502  501  0.00000000000E+00  0.00000000000E+00  0.66805424869E+03  0.66805424869E+03  0.00000000000E+00 0.  1.
         21   -1    0    0  501  502 -0.00000000000E+00 -0.00000000000E+00 -0.10362405064E+03  0.10362405064E+03  0.00000000000E+00 0.  1.
         25    1    1    2    0    0 -0.11003307571E+03 -0.97989259936E+02  0.18582595132E+03  0.26807733398E+03  0.12500000000E+03 0.  0.
         25    1    1    2    0    0  0.75732368474E+02  0.31088104560E+02  0.30628671685E+03  0.34079086666E+03  0.12500000000E+03 0.  0.
         25    1    1    2    0    0  0.34300707234E+02  0.66901155377E+02  0.72317529890E+02  0.16281009869E+03  0.12500000000E+03 0.  0.
</event>
<event>
 5    0  0.5670250E-005  0.2406991E+03  0.7546771E-02  0.1119328E+00
         21   -1    0    0  502  501  0.00000000000E+00  0.00000000000E+00  0.78374042952E+03  0.78374042952E+03  0.00000000000E+00 0. -1.
         21   -1    0    0  501  502 -0.00000000000E+00 -0.00000000000E+00 -0.73922499443E+02  0.73922499443E+02  0.00000000000E+00 0. -1.
         25    1    1    2    0    0 -0.17480083251E+02 -0.10247060247E+03  0.43444285205E+03  0.46386568032E+03  0.12500000000E+03 0.  0.
         25    1    1    2    0    0  0.34672119131E+02  0.24936768481E+02  0.11091826715E+03  0.17248727564E+03  0.12500000000E+03 0.  0.
         25    1    1    2    0    0 -0.17192035880E+02  0.77533833985E+02  0.16445681086E+03  0.22130997300E+03  0.12500000000E+03 0.  0.
</event>
<event>
 5    0  0.5670250E-005  0.4370290E+03  0.7546771E-02  0.1031662E+00
         21   -1    0    0  502  501  0.00000000000E+00  0.00000000000E+00  0.48702461737E+03  0.48702461737E+03  0.00000000000E+00 0.  1.
         21   -1    0    0  501  502 -0.00000000000E+00 -0.00000000000E+00 -0.39216565746E+03  0.39216565746E+03  0.00000000000E+00 0.  1.
         25    1    1    2    0    0  0.42731248586E+02 -0.27352665059E+03  0.29453085503E+03  0.42310307580E+03  0.12500000000E+03 0.  0.
         25    1    1    2    0    0 -0.28505672711E+00  0.25874467908E+02 -0.43124260043E+02  0.13473778665E+03  0.12500000000E+03 0.  0.
         25    1    1    2    0    0 -0.42446191859E+02  0.24765218268E+03 -0.15654763508E+03  0.32134941238E+03  0.12500000000E+03 0.  0.
</event>
<event>
 5    0  0.5670250E-005  0.3018508E+03  0.7546771E-02  0.1084319E+00
         21   -1    0    0  502  501  0.00000000000E+00  0.00000000000E+00  0.58169110231E+03  0.58169110231E+03  0.00000000000E+00 0.  1.
         21   -1    0    0  501  502 -0.00000000000E+00 -0.00000000000E+00 -0.15663618561E+03  0.15663618561E+03  0.00000000000E+00 0.  1.
         25    1    1    2    0    0 -0.69089011404E+02  0.14981584431E+03  0.12126216082E+03  0.23989078838E+03  0.12500000000E+03 0.  0.
         25    1    1    2    0    0  0.10812436840E+03 -0.20053406024E+02  0.31245584040E+02  0.16939393335E+03  0.12500000000E+03 0.  0.
         25    1    1    2    0    0 -0.39035356998E+02 -0.12976243828E+03  0.27254717184E+03  0.32904256619E+03  0.12500000000E+03 0.  0.
</event>
<event>
 5    0  0.5670250E-005  0.5413329E+03  0.7546771E-02  0.1003520E+00
         21   -1    0    0  502  501  0.00000000000E+00  0.00000000000E+00  0.45887317294E+03  0.45887317294E+03  0.00000000000E+00 0.  1.
         21   -1    0    0  501  502 -0.00000000000E+00 -0.00000000000E+00 -0.63861066759E+03  0.63861066759E+03  0.00000000000E+00 0.  1.
         25    1    1    2    0    0  0.19325437185E+03  0.14347243780E+03 -0.33585103665E+03  0.43168566280E+03  0.12500000000E+03 0.  0.
         25    1    1    2    0    0 -0.35456538917E+03 -0.19849622640E+02  0.19511362553E+03  0.42403413729E+03  0.12500000000E+03 0.  0.
         25    1    1    2    0    0  0.16131101732E+03 -0.12362281516E+03 -0.39000083523E+02  0.24176404044E+03  0.12500000000E+03 0.  0.
</event>
<event>
 5    0  0.5670250E-005  0.2749163E+03  0.7546771E-02  0.1098498E+00
         21   -1    0    0  502  501  0.00000000000E+00  0.00000000000E+00  0.10677337256E+03  0.10677337256E+03  0.00000000000E+00 0. -1.
         21   -1    0    0  501  502 -0.00000000000E+00 -0.00000000000E+00 -0.70784464049E+03  0.70784464049E+03  0.00000000000E+00 0. -1.
         25    1    1    2    0    0 -0.13554744229E+03 -0.36601758837E+02 -0.89145254142E+02  0.20804969166E+03  0.12500000000E+03 0.  0.
         25    1    1    2    0    0  0.13055099991E+03  0.34332122782E+02 -0.20683580348E+03  0.27681818552E+03  0.12500000000E+03 0.  0.
         25    1    1    2    0    0  0.49964423788E+01  0.22696360552E+01 -0.30509021030E+03  0.32975013587E+03  0.12500000000E+03 0.  0.
</event>
<event>
 5    0  0.5670250E-005  0.2724687E+03  0.7546771E-02  0.1099875E+00
         21   -1    0    0  502  501  0.00000000000E+00  0.00000000000E+00  0.34346408025E+03  0.34346408025E+03  0.00000000000E+00 0. -1.
         21   -1    0    0  501  502 -0.00000000000E+00 -0.00000000000E+00 -0.21614829936E+03  0.21614829936E+03  0.00000000000E+00 0. -1.
         25    1    1    2    0    0 -0.22695784640E+02  0.49857540682E+02  0.14582143759E+03  0.19972422152E+03  0.12500000000E+03 0.  0.
         25    1    1    2    0    0 -0.34480632234E+02  0.54748123074E+02  0.79130586005E+02  0.16147111389E+03  0.12500000000E+03 0.  0.
         25    1    1    2    0    0  0.57176416875E+02 -0.10460566376E+03 -0.97636242706E+02  0.19841704419E+03  0.12500000000E+03 0.  0.
</event>
<event>
 5    0  0.5670250E-005  0.2141721E+03  0.7546771E-02  0.1138304E+00
         21   -1    0    0  502  501  0.00000000000E+00  0.00000000000E+00  0.60929629115E+02  0.60929629115E+02  0.00000000000E+00 0.  1.
         21   -1    0    0  501  502 -0.00000000000E+00 -0.00000000000E+00 -0.75283083851E+03  0.75283083851E+03  0.00000000000E+00 0.  1.
         25    1    1    2    0    0 -0.20986562978E+02  0.15603101459E+02 -0.95756214641E+02  0.15961874966E+03  0.12500000000E+03 0.  0.
         25    1    1    2    0    0 -0.99571637541E+01 -0.50787647191E+02 -0.28018325690E+03  0.31113692751E+03  0.12500000000E+03 0.  0.
         25    1    1    2    0    0  0.30943726732E+02  0.35184545732E+02 -0.31596173785E+03  0.34300479045E+03  0.12500000000E+03 0.  0.
</event>
<event>
 5    0  0.5670250E-005  0.3883962E+03  0.7546771E-02  0.1047873E+00
         21   -1    0    0  502  501  0.00000000000E+00  0.00000000000E+00  0.12156973720E+03  0.12156973720E+03  0.00000000000E+00 0. -1.
         21   -1    0    0  501  502 -0.00000000000E+00 -0.00000000000E+00 -0.12408646720E+04  0.12408646720E+04  0.00000000000E+00 0. -1.
         25    1    1    2    0    0 -0.12235473340E+03  0.17806791230E+03 -0.53442267065E+03  0.58984019283E+03  0.12500000000E+03 0.  0.
         25    1    1    2    0    0 -0.10452142244E+03 -0.12340038933E+03 -0.40155770474E+03  0.45058403664E+03  0.12500000000E+03 0.  0.
         25    1    1    2    0    0  0.22687615584E+03 -0.54667522967E+02 -0.18331455939E+03  0.32201017972E+03  0.12500000000E+03 0.  0.
</event>
<event>
 5    0  0.5670250E-005  0.3897903E+03  0.7546771E-02  0.1047373E+00
         21   -1    0    0  502  501  0.00000000000E+00  0.00000000000E+00  0.38571208883E+03  0.38571208883E+03  0.00000000000E+00 0.  1.
         21   -1    0    0  501  502 -0.00000000000E+00 -0.00000000000E+00 -0.39391170785E+03  0.39391170785E+03  0.00000000000E+00 0.  1.
         25    1    1    2    0    0  0.13559179586E+03  0.37705081798E+02 -0.59679720269E+02  0.19746766143E+03  0.12500000000E+03 0.  0.
         25    1    1    2    0    0 -0.63364401394E+02 -0.24049542202E+03 -0.94049091281E+02  0.29380831668E+03  0.12500000000E+03 0.  0.
         25    1    1    2    0    0 -0.72227394470E+02  0.20279034022E+03  0.14552919252E+03  0.28834781857E+03  0.12500000000E+03 0.  0.
</event>
<event>
 5    0  0.5670250E-005  0.4057775E+03  0.7546771E-02  0.1041797E+00
         21   -1    0    0  502  501  0.00000000000E+00  0.00000000000E+00  0.81226585848E+03  0.81226585848E+03  0.00000000000E+00 0. -1.
         21   -1    0    0  501  502 -0.00000000000E+00 -0.00000000000E+00 -0.20271119482E+03  0.20271119482E+03  0.00000000000E+00 0. -1.
         25    1    1    2    0    0  0.52711394225E+02 -0.46518882952E+02  0.43644679038E+03  0.45940537479E+03  0.12500000000E+03 0.  0.
         25    1    1    2    0    0  0.12553809271E+03  0.18758947951E+03  0.14138772752E+03  0.29421950145E+03  0.12500000000E+03 0.  0.
         25    1    1    2    0    0 -0.17824948693E+03 -0.14107059655E+03  0.31720145765E+02  0.26135217706E+03  0.12500000000E+03 0.  0.
</event>
<event>
 5    0  0.5670250E-005  0.4021930E+03  0.7546771E-02  0.1043023E+00
         21   -1    0    0  502  501  0.00000000000E+00  0.00000000000E+00  0.12054519567E+03  0.12054519567E+03  0.00000000000E+00 0. -1.
         21   -1    0    0  501  502 -0.00000000000E+00 -0.00000000000E+00 -0.13418968088E+04  0.13418968088E+04  0.00000000000E+00 0. -1.
         25    1    1    2    0    0 -0.35071902957E+02  0.30186332225E+03 -0.62878715277E+03  0.70947148440E+03  0.12500000000E+03 0.  0.
         25    1    1    2    0    0  0.20024312398E+02 -0.14842550679E+03 -0.49449424567E+03  0.53158316673E+03  0.12500000000E+03 0.  0.
         25    1    1    2    0    0  0.15047590559E+02 -0.15343781546E+03 -0.98070214644E+02  0.22138735328E+03  0.12500000000E+03 0.  0.
</event>
<event>
 5    0  0.5670250E-005  0.3494486E+03  0.7546771E-02  0.1062842E+00
         21   -1    0    0  502  501  0.00000000000E+00  0.00000000000E+00  0.96146166111E+03  0.96146166111E+03  0.00000000000E+00 0. -1.
         21   -1    0    0  501  502 -0.00000000000E+00 -0.00000000000E+00 -0.12700902954E+03  0.12700902954E+03  0.00000000000E+00 0. -1.
         25    1    1    2    0    0 -0.23664078436E+03 -0.11597250464E+03  0.39692607338E+03  0.49256856415E+03  0.12500000000E+03 0.  0.
         25    1    1    2    0    0  0.34818663751E+02 -0.30077068307E+01  0.20662463347E+03  0.24400845232E+03  0.12500000000E+03 0.  0.
         25    1    1    2    0    0  0.20182212061E+03  0.11898021147E+03  0.23090192472E+03  0.35189367418E+03  0.12500000000E+03 0.  0.
</event>
<event>
 5    0  0.5670250E-005  0.3578955E+03  0.7546771E-02  0.1059420E+00
         21   -1    0    0  502  501  0.00000000000E+00  0.00000000000E+00  0.89508887255E+03  0.89508887255E+03  0.00000000000E+00 0.  1.
         21   -1    0    0  501  502 -0.00000000000E+00 -0.00000000000E+00 -0.14310217419E+03  0.14310217419E+03  0.00000000000E+00 0.  1.
         25    1    1    2    0    0 -0.19602460997E+02 -0.10636092906E+03  0.83951898592E+02  0.18539100568E+03  0.12500000000E+03 0.  0.
         25    1    1    2    0    0  0.87184331062E+02  0.26457750702E+03  0.48026421501E+03  0.56910550957E+03  0.12500000000E+03 0.  0.
         25    1    1    2    0    0 -0.67581870065E+02 -0.15821657796E+03  0.18777058475E+03  0.28369453150E+03  0.12500000000E+03 0.  0.
</event>
<event>
 5    0  0.5670250E-005  0.2560596E+03  0.7546771E-02  0.1109534E+00
         21   -1    0    0  502  501  0.00000000000E+00  0.00000000000E+00  0.35858963399E+02  0.35858963399E+02  0.00000000000E+00 0. -1.
         21   -1    0    0  501  502 -0.00000000000E+00 -0.00000000000E+00 -0.18284555863E+04  0.18284555863E+04  0.00000000000E+00 0. -1.
         25    1    1    2    0    0  0.60372704885E+02  0.14201932114E+02 -0.57424052319E+03  0.59095155202E+03  0.12500000000E+03 0.  0.
         25    1    1    2    0    0  0.86053761082E+02  0.13656847074E+02 -0.32323657151E+03  0.35734946541E+03  0.12500000000E+03 0.  0.
         25    1    1    2    0    0 -0.14642646597E+03 -0.27858779187E+02 -0.89511952817E+03  0.91601353223E+03  0.12500000000E+03 0.  0.
</event>
<event>
 5    0  0.5670250E-005  0.3369318E+03  0.7546771E-02  0.1068110E+00
         21   -1    0    0  502  501  0.00000000000E+00  0.00000000000E+00  0.24596712534E+03  0.24596712534E+03  0.00000000000E+00 0.  1.
         21   -1    0    0  501  502 -0.00000000000E+00 -0.00000000000E+00 -0.46153744868E+03  0.46153744868E+03  0.00000000000E+00 0.  1.
         25    1    1    2    0    0 -0.13128270018E+02 -0.23150202758E+03 -0.19419285488E+03  0.32726351024E+03  0.12500000000E+03 0.  0.
         25    1    1    2    0    0  0.30187621418E+02  0.16501207684E+03 -0.82769646122E+02  0.22498020426E+03  0.12500000000E+03 0.  0.
         25    1    1    2    0    0 -0.17059351400E+02  0.66489950743E+02  0.61392177663E+02  0.15526085952E+03  0.12500000000E+03 0.  0.
</event>
<event>
 5    0  0.5670250E-005  0.3549337E+03  0.7546771E-02  0.1060608E+00
         21   -1    0    0  502  501  0.00000000000E+00  0.00000000000E+00  0.83652954806E+02  0.83652954806E+02  0.00000000000E+00 0. -1.
         21   -1    0    0  501  502 -0.00000000000E+00 -0.00000000000E+00 -0.15059594912E+04  0.15059594912E+04  0.00000000000E+00 0. -1.
         25    1    1    2    0    0 -0.16642515736E+03 -0.33236091846E+01 -0.62179984074E+03  0.65571977348E+03  0.12500000000E+03 0.  0.
         25    1    1    2    0    0  0.95396434086E+02  0.12955763861E+03 -0.67499409299E+03  0.70507282384E+03  0.12500000000E+03 0.  0.
         25    1    1    2    0    0  0.71028723277E+02 -0.12623402943E+03 -0.12551260263E+03  0.22881984864E+03  0.12500000000E+03 0.  0.
</event>
<event>
 5    0  0.5670250E-005  0.2711240E+03  0.7546771E-02  0.1100638E+00
         21   -1    0    0  502  501  0.00000000000E+00  0.00000000000E+00  0.26008057426E+03  0.26008057426E+03  0.00000000000E+00 0.  1.
         21   -1    0    0  501  502 -0.00000000000E+00 -0.00000000000E+00 -0.28263642472E+03  0.28263642472E+03  0.00000000000E+00 0.  1.
         25    1    1    2    0    0 -0.59300871910E+02  0.36890754527E+01 -0.22475416415E+02  0.14021535947E+03  0.12500000000E+03 0.  0.
         25    1    1    2    0    0  0.51676228929E+02  0.55761332887E+02  0.14207944162E+03  0.20393951705E+03  0.12500000000E+03 0.  0.
         25    1    1    2    0    0  0.76246429808E+01 -0.59450408340E+02 -0.14215987567E+03  0.19856212248E+03  0.12500000000E+03 0.  0.
</event>
<event>
 5    0  0.5670250E-005  0.2889238E+03  0.7546771E-02  0.1090912E+00
         21   -1    0    0  502  501  0.00000000000E+00  0.00000000000E+00  0.46235331139E+03  0.46235331139E+03  0.00000000000E+00 0. -1.
         21   -1    0    0  501  502 -0.00000000000E+00 -0.00000000000E+00 -0.18054800927E+03  0.18054800927E+03  0.00000000000E+00 0. -1.
         25    1    1    2    0    0  0.47463075150E+02  0.29422227368E+02 -0.33696614659E+02  0.14099245656E+03  0.12500000000E+03 0.  0.
         25    1    1    2    0    0 -0.30984183273E+02  0.13165248981E+03  0.12667989846E+03  0.22352895642E+03  0.12500000000E+03 0.  0.
         25    1    1    2    0    0 -0.16478891877E+02 -0.16107471718E+03  0.18882201833E+03  0.27837990768E+03  0.12500000000E+03 0.  0.
</event>
<event>
 5    0  0.5670250E-005  0.2419019E+03  0.7546771E-02  0.1118532E+00
         21   -1    0    0  502  501  0.00000000000E+00  0.00000000000E+00  0.32284164363E+03  0.32284164363E+03  0.00000000000E+00 0. -1.
         21   -1    0    0  501  502 -0.00000000000E+00 -0.00000000000E+00 -0.18125453953E+03  0.18125453953E+03  0.00000000000E+00 0. -1.
         25    1    1    2    0    0  0.10278666540E+02 -0.38292694855E+02  0.62805031962E+02  0.14540100930E+03  0.12500000000E+03 0.  0.
         25    1    1    2    0    0  0.92944309801E+02 -0.19960913952E+02 -0.22840019672E+02  0.15869388554E+03  0.12500000000E+03 0.  0.
         25    1    1    2    0    0 -0.10322297634E+03  0.58253608807E+02  0.10162209181E+03  0.20000128831E+03  0.12500000000E+03 0.  0.
</event>
<event>
 5    0  0.5670250E-005  0.3406694E+03  0.7546771E-02  0.1066511E+00
         21   -1    0    0  502  501  0.00000000000E+00  0.00000000000E+00  0.12931503045E+04  0.12931503045E+04  0.00000000000E+00 0.  1.
         21   -1    0    0  501  502 -0.00000000000E+00 -0.00000000000E+00 -0.89746457798E+02  0.89746457798E+02  0.00000000000E+00 0.  1.
         25    1    1    2    0    0  0.13135737260E+03  0.72080817739E+02  0.75895018661E+03  0.78363307063E+03  0.12500000000E+03 0.  0.
         25    1    1    2    0    0 -0.15591130684E+03  0.22461407963E+02  0.37618500420E+03  0.42655950093E+03  0.12500000000E+03 0.  0.
         25    1    1    2    0    0  0.24553934238E+02 -0.94542225702E+02  0.68268655914E+02  0.17270419076E+03  0.12500000000E+03 0.  0.
</event>
<event>
 5    0  0.5670250E-005  0.2206346E+03  0.7546771E-02  0.1133411E+00
         21   -1    0    0  502  501  0.00000000000E+00  0.00000000000E+00  0.20625002536E+03  0.20625002536E+03  0.00000000000E+00 0.  1.
         21   -1    0    0  501  502 -0.00000000000E+00 -0.00000000000E+00 -0.23602233818E+03  0.23602233818E+03  0.00000000000E+00 0.  1.
         25    1    1    2    0    0 -0.76162511995E+02 -0.29761710257E+02 -0.22075817577E+02  0.15099281225E+03  0.12500000000E+03 0.  0.
         25    1    1    2    0    0 -0.23517073915E+02  0.53071134475E+01 -0.20883809262E+02  0.12900523907E+03  0.12500000000E+03 0.  0.
         25    1    1    2    0    0  0.99679585911E+02  0.24454596809E+02  0.13187314017E+02  0.16227431221E+03  0.12500000000E+03 0.  0.
</event>
<event>
 5    0  0.5670250E-005  0.3656320E+03  0.7546771E-02  0.1056376E+00
         21   -1    0    0  502  501  0.00000000000E+00  0.00000000000E+00  0.45160077632E+03  0.45160077632E+03  0.00000000000E+00 0.  1.
         21   -1    0    0  501  502 -0.00000000000E+00 -0.00000000000E+00 -0.29602865428E+03  0.29602865428E+03  0.00000000000E+00 0.  1.
         25    1    1    2    0    0  0.23947325803E+03 -0.25053948584E+02  0.10776582981E+03  0.29191371280E+03  0.12500000000E+03 0.  0.
         25    1    1    2    0    0 -0.19777427059E+03 -0.84524761655E+02 -0.56484195595E+02  0.25509716147E+03  0.12500000000E+03 0.  0.
         25    1    1    2    0    0 -0.41698987439E+02  0.10957871024E+03  0.10429048782E+03  0.20061855632E+03  0.12500000000E+03 0.  0.
</event>
<event>
 5    0  0.5670250E-005  0.5094489E+03  0.7546771E-02  0.1011342E+00
         21   -1    0    0  502  501  0.00000000000E+00  0.00000000000E+00  0.10153320606E+03  0.10153320606E+03  0.00000000000E+00 0. -1.
         21   -1    0    0  501  502 -0.00000000000E+00 -0.00000000000E+00 -0.25561898642E+04  0.25561898642E+04  0.00000000000E+00 0. -1.
         25    1    1    2    0    0 -0.13150199494E+03 -0.62893576926E+01 -0.26784717661E+03  0.32357292951E+03  0.12500000000E+03 0.  0.
         25    1    1    2    0    0 -0.29241315902E+03 -0.24717373422E+00 -0.13591520540E+04  0.13958598864E+04  0.12500000000E+03 0.  0.
         25    1    1    2    0    0  0.42391515396E+03  0.65365314268E+01 -0.82765742760E+03  0.93829025438E+03  0.12500000000E+03 0.  0.
</event>
<event>
 5    0  0.5670250E-005  0.2351251E+03  0.7546771E-02  0.1123084E+00
         21   -1    0    0  502  501  0.00000000000E+00  0.00000000000E+00  0.75457408610E+03  0.75457408610E+03  0.00000000000E+00 0.  1.
         21   -1    0    0  501  502 -0.00000000000E+00 -0.00000000000E+00 -0.73264937579E+02  0.73264937579E+02  0.00000000000E+00 0.  1.
         25    1    1    2    0    0  0.29177765992E+02 -0.10406922926E+03  0.38201191077E+03  0.41622091067E+03  0.12500000000E+03 0.  0.
         25    1    1    2    0    0 -0.36616483382E+02  0.45833680651E+02  0.19318160083E+03  0.23745657295E+03  0.12500000000E+03 0.  0.
         25    1    1    2    0    0  0.74387173902E+01  0.58235548608E+02  0.10611563692E+03  0.17416154007E+03  0.12500000000E+03 0.  0.
</event>
<event>
 5    0  0.5670250E-005  0.3926761E+03  0.7546771E-02  0.1046346E+00
         21   -1    0    0  502  501  0.00000000000E+00  0.00000000000E+00  0.69773097696E+02  0.69773097696E+02  0.00000000000E+00 0.  1.
         21   -1    0    0  501  502 -0.00000000000E+00 -0.00000000000E+00 -0.22099419018E+04  0.22099419018E+04  0.00000000000E+00 0.  1.
         25    1    1    2    0    0 -0.14522145818E+03 -0.18115519075E+03 -0.58644533017E+03  0.64300046682E+03  0.12500000000E+03 0.  0.
         25    1    1    2    0    0  0.34747211845E+02  0.20639071274E+03 -0.38373197572E+03  0.45462041774E+03  0.12500000000E+03 0.  0.
         25    1    1    2    0    0  0.11047424634E+03 -0.25235521987E+02 -0.11699914982E+04  0.11820941149E+04  0.12500000000E+03 0.  0.
</event>
<event>
 5    0  0.6396569E-005  0.2879435E+03  0.7546771E-02  0.1091428E+00
         21   -1    0    0  502  501  0.00000000000E+00  0.00000000000E+00  0.31956439955E+03  0.31956439955E+03  0.00000000000E+00 0.  1.
         21   -1    0    0  501  502 -0.00000000000E+00 -0.00000000000E+00 -0.25945147461E+03  0.25945147461E+03  0.00000000000E+00 0.  1.
         25    1    1    2    0    0  0.11341671041E+03 -0.52433486563E+02 -0.16460955673E+02  0.17750657389E+03  0.12500000000E+03 0.  0.
         25    1    1    2    0    0  0.66487169494E+02 -0.51178552387E+02  0.13817415906E+02  0.15118104681E+03  0.12500000000E+03 0.  0.
         25    1    1    2    0    0 -0.17990387990E+03  0.10361203895E+03  0.62756464710E+02  0.25032825346E+03  0.12500000000E+03 0.  0.
</event>
<event>
 5    0  0.6727803E-005  0.4546041E+03  0.7546771E-02  0.1026358E+00
         21   -1    0    0  502  501  0.00000000000E+00  0.00000000000E+00  0.34288235154E+03  0.34288235154E+03  0.00000000000E+00 0.  1.
         21   -1    0    0  501  502 -0.00000000000E+00 -0.00000000000E+00 -0.60272831050E+03  0.60272831050E+03  0.00000000000E+00 0.  1.
         25    1    1    2    0    0  0.24737727125E+03 -0.33687923322E+02 -0.18913177758E+03  0.33723318312E+03  0.12500000000E+03 0.  0.
         25    1    1    2    0    0 -0.68634668990E+02  0.25475187967E+03 -0.11137091342E+02  0.29216138141E+03  0.12500000000E+03 0.  0.
         25    1    1    2    0    0 -0.17874260226E+03 -0.22106395635E+03 -0.59577090044E+02  0.31621609750E+03  0.12500000000E+03 0.  0.
</event>
<event>
 5    0  0.5670250E-005  0.3993373E+03  0.7546771E-02  0.1044009E+00
         21   -1    0    0  502  501  0.00000000000E+00  0.00000000000E+00  0.58087578951E+03  0.58087578951E+03  0.00000000000E+00 0. -1.
         21   -1    0    0  501  502 -0.00000000000E+00 -0.00000000000E+00 -0.27453428204E+03  0.27453428204E+03  0.00000000000E+00 0. -1.
         25    1    1    2    0    0 -0.92310360627E+02 -0.17701750761E+03 -0.14372092375E+03  0.27592952833E+03  0.12500000000E+03 0.  0.
         25    1    1    2    0    0  0.89986131081E+02  0.14669895432E+03  0.37337673964E+03  0.42971301667E+03  0.12500000000E+03 0.  0.
         25    1    1    2    0    0  0.23242295463E+01  0.30318553292E+02  0.76685691574E+02  0.14976752655E+03  0.12500000000E+03 0.  0.
</event>
<event>
 5    0  0.5670250E-005  0.2278878E+03  0.7546771E-02  0.1128135E+00
         21   -1    0    0  502  501  0.00000000000E+00  0.00000000000E+00  0.12561355656E+03  0.12561355656E+03  0.00000000000E+00 0. -1.
         21   -1    0    0  501  502 -0.00000000000E+00 -0.00000000000E+00 -0.41343361219E+03  0.41343361219E+03  0.00000000000E+00 0. -1.
         25    1    1    2    0    0 -0.96502659722E+02 -0.41021400041E+02 -0.13337807633E+03  0.21073734800E+03  0.12500000000E+03 0.  0.
         25    1    1    2    0    0  0.85982037623E+02  0.39083688448E+02 -0.48214676410E+02  0.16392101915E+03  0.12500000000E+03 0.  0.
         25    1    1    2    0    0  0.10520622099E+02  0.19377115923E+01 -0.10622730288E+03  0.16438880160E+03  0.12500000000E+03 0.  0.
</event>
<event>
 5    0  0.5670250E-005  0.3340653E+03  0.7546771E-02  0.1069352E+00
         21   -1    0    0  502  501  0.00000000000E+00  0.00000000000E+00  0.85940215031E+02  0.85940215031E+02  0.00000000000E+00 0. -1.
         21   -1    0    0  501  502 -0.00000000000E+00 -0.00000000000E+00 -0.12985726239E+04  0.12985726239E+04  0.00000000000E+00 0. -1.
         25    1    1    2    0    0 -0.36459143086E+02 -0.67886192973E+02 -0.78154010977E+02  0.16634558528E+03  0.12500000000E+03 0.  0.
         25    1    1    2    0    0  0.53911441446E+02  0.20038486147E+03 -0.81223734292E+03  0.84759367474E+03  0.12500000000E+03 0.  0.
         25    1    1    2    0    0 -0.17452298360E+02 -0.13249866850E+03 -0.32224105493E+03  0.37057357886E+03  0.12500000000E+03 0.  0.
</event>
<event>
 5    0  0.5670250E-005  0.4067712E+03  0.7546771E-02  0.1041460E+00
         21   -1    0    0  502  501  0.00000000000E+00  0.00000000000E+00  0.31814337796E+03  0.31814337796E+03  0.00000000000E+00 0. -1.
         21   -1    0    0  501  502 -0.00000000000E+00 -0.00000000000E+00 -0.52008869790E+03  0.52008869790E+03  0.00000000000E+00 0. -1.
         25    1    1    2    0    0  0.37487847933E+02 -0.11924172924E+03  0.24032593969E+02  0.17839981589E+03  0.12500000000E+03 0.  0.
         25    1    1    2    0    0  0.14596589053E+03 -0.70483216299E+02 -0.29567050668E+03  0.35961086399E+03  0.12500000000E+03 0.  0.
         25    1    1    2    0    0 -0.18345373846E+03  0.18972494554E+03  0.69692592772E+02  0.30022139598E+03  0.12500000000E+03 0.  0.
</event>
<event>
 5    0  0.5670250E-005  0.3818349E+03  0.7546771E-02  0.1050258E+00
         21   -1    0    0  502  501  0.00000000000E+00  0.00000000000E+00  0.93481731902E+03  0.93481731902E+03  0.00000000000E+00 0.  1.
         21   -1    0    0  501  502 -0.00000000000E+00 -0.00000000000E+00 -0.15596404559E+03  0.15596404559E+03  0.00000000000E+00 0.  1.
         25    1    1    2    0    0 -0.19903561278E+03  0.14151881901E+03  0.46494730847E+02  0.27826158787E+03  0.12500000000E+03 0.  0.
         25    1    1    2    0    0  0.10667458129E+03 -0.54312172967E+02  0.33673206331E+03  0.37860634027E+03  0.12500000000E+03 0.  0.
         25    1    1    2    0    0  0.92361031489E+02 -0.87206646042E+02  0.39562647927E+03  0.43391343648E+03  0.12500000000E+03 0.  0.
</event>
<event>
 5    0  0.5670250E-005  0.2058175E+03  0.7546771E-02  0.1144922E+00
         21   -1    0    0  502  501  0.00000000000E+00  0.00000000000E+00  0.87834976618E+02  0.87834976618E+02  0.00000000000E+00 0.  1.
         21   -1    0    0  501  502 -0.00000000000E+00 -0.00000000000E+00 -0.48227754681E+03  0.48227754681E+03  0.00000000000E+00 0.  1.
         25    1    1    2    0    0 -0.17258823830E+02 -0.32203355138E+02 -0.14171509445E+03  0.19246581794E+03  0.12500000000E+03 0.  0.
         25    1    1    2    0    0  0.47479655797E+02 -0.22334852400E+02 -0.87807905800E+02  0.16151901333E+03  0.12500000000E+03 0.  0.
         25    1    1    2    0    0 -0.30220831967E+02  0.54538207538E+02 -0.16491956995E+03  0.21612769216E+03  0.12500000000E+03 0.  0.
</event>
<event>
 5    0  0.5670250E-005  0.3257682E+03  0.7546771E-02  0.1073025E+00
         21   -1    0    0  502  501  0.00000000000E+00  0.00000000000E+00  0.71577755357E+03  0.71577755357E+03  0.00000000000E+00 0. -1.
         21   -1    0    0  501  502 -0.00000000000E+00 -0.00000000000E+00 -0.14826521048E+03  0.14826521048E+03  0.00000000000E+00 0. -1.
         25    1    1    2    0    0  0.15959714344E+03 -0.14515183320E+03  0.10914641180E+03  0.27217318400E+03  0.12500000000E+03 0.  0.
         25    1    1    2    0    0 -0.41455604286E+02  0.15349321075E+03  0.24653116716E+03  0.31887513113E+03  0.12500000000E+03 0.  0.
         25    1    1    2    0    0 -0.11814153915E+03 -0.83413775490E+01  0.21183476412E+03  0.27299444893E+03  0.12500000000E+03 0.  0.
</event>
<event>
 5    0  0.5670250E-005  0.2877056E+03  0.7546771E-02  0.1091553E+00
         21   -1    0    0  502  501  0.00000000000E+00  0.00000000000E+00  0.78260828425E+03  0.78260828425E+03  0.00000000000E+00 0.  1.
         21   -1    0    0  501  502 -0.00000000000E+00 -0.00000000000E+00 -0.10576747545E+03  0.10576747545E+03  0.00000000000E+00 0.  1.
         25    1    1    2    0    0 -0.46609960254E+02  0.46169851698E+02  0.21361471219E+02  0.14277764550E+03  0.12500000000E+03 0.  0.
         25    1    1    2    0    0 -0.18360364826E+02  0.18683179139E+02  0.53269175766E+03  0.54778798167E+03  0.12500000000E+03 0.  0.
         25    1    1    2    0    0  0.64970325080E+02 -0.64853030837E+02  0.12278757992E+03  0.19781013253E+03  0.12500000000E+03 0.  0.
</event>
<event>
 5    0  0.5670250E-005  0.3786743E+03  0.7546771E-02  0.1051425E+00
         21   -1    0    0  502  501  0.00000000000E+00  0.00000000000E+00  0.68007998058E+03  0.68007998058E+03  0.00000000000E+00 0. -1.
         21   -1    0    0  501  502 -0.00000000000E+00 -0.00000000000E+00 -0.21084909995E+03  0.21084909995E+03  0.00000000000E+00 0. -1.
         25    1    1    2    0    0 -0.48649123512E+02  0.10362369769E+03  0.83944839972E+02  0.18914635630E+03  0.12500000000E+03 0.  0.
         25    1    1    2    0    0  0.31985040180E+02 -0.29977875601E+02 -0.11820774850E+03  0.17753813007E+03  0.12500000000E+03 0.  0.
         25    1    1    2    0    0  0.16664083332E+02 -0.73645822092E+02  0.50349378916E+03  0.52424459416E+03  0.12500000000E+03 0.  0.
</event>
<event>
 5    0  0.5670250E-005  0.4223932E+03  0.7546771E-02  0.1036290E+00
         21   -1    0    0  502  501  0.00000000000E+00  0.00000000000E+00  0.13982857169E+04  0.13982857169E+04  0.00000000000E+00 0.  1.
         21   -1    0    0  501  502 -0.00000000000E+00 -0.00000000000E+00 -0.12759625870E+03  0.12759625870E+03  0.00000000000E+00 0.  1.
         25    1    1    2    0    0  0.31056133916E+03  0.16841619243E+03  0.66442238489E+03  0.76282007367E+03  0.12500000000E+03 0.  0.
         25    1    1    2    0    0 -0.12388320037E+03 -0.15742014342E+03  0.27239686494E+03  0.36049022305E+03  0.12500000000E+03 0.  0.
         25    1    1    2    0    0 -0.18667813879E+03 -0.10996049011E+02  0.33387020834E+03  0.40257167885E+03  0.12500000000E+03 0.  0.
</event>
<event>
 5    0  0.5670250E-005  0.2722389E+03  0.7546771E-02  0.1100005E+00
         21   -1    0    0  502  501  0.00000000000E+00  0.00000000000E+00  0.94200526734E+02  0.94200526734E+02  0.00000000000E+00 0.  1.
         21   -1    0    0  501  502 -0.00000000000E+00 -0.00000000000E+00 -0.78676848922E+03  0.78676848922E+03  0.00000000000E+00 0.  1.
         25    1    1    2    0    0 -0.44806140711E+02 -0.61269438384E+02 -0.41509344312E+03  0.44010123931E+03  0.12500000000E+03 0.  0.
         25    1    1    2    0    0  0.84646956867E+02  0.12092341304E+03 -0.19573166663E+03  0.27517896803E+03  0.12500000000E+03 0.  0.
         25    1    1    2    0    0 -0.39840816156E+02 -0.59653974653E+02 -0.81742852744E+02  0.16568880861E+03  0.12500000000E+03 0.  0.
</event>
<event>
 5    0  0.5670250E-005  0.3981741E+03  0.7546771E-02  0.1044414E+00
         21   -1    0    0  502  501  0.00000000000E+00  0.00000000000E+00  0.17168599706E+03  0.17168599706E+03  0.00000000000E+00 0. -1.
         21   -1    0    0  501  502 -0.00000000000E+00 -0.00000000000E+00 -0.92344535411E+03  0.92344535411E+03  0.00000000000E+00 0. -1.
         25    1    1    2    0    0  0.13844948248E+02 -0.26023180634E+03 -0.65467363280E+03  0.71563596968E+03  0.12500000000E+03 0.  0.
         25    1    1    2    0    0  0.23258341167E+02  0.11214495222E+03 -0.42877248039E+02  0.17487395215E+03  0.12500000000E+03 0.  0.
         25    1    1    2    0    0 -0.37103289415E+02  0.14808685412E+03 -0.54208476218E+02  0.20462142934E+03  0.12500000000E+03 0.  0.
</event>
<event>
 5    0  0.5670250E-005  0.2290769E+03  0.7546771E-02  0.1127291E+00
         21   -1    0    0  502  501  0.00000000000E+00  0.00000000000E+00  0.78527622782E+03  0.78527622782E+03  0.00000000000E+00 0. -1.
         21   -1    0    0  501  502 -0.00000000000E+00 -0.00000000000E+00 -0.66825205279E+02  0.66825205279E+02  0.00000000000E+00 0. -1.
         25    1    1    2    0    0 -0.37368533270E+02 -0.10664812056E+03  0.32592897846E+03  0.36691269793E+03  0.12500000000E+03 0.  0.
         25    1    1    2    0    0  0.33272154189E+02  0.67004482793E+02  0.26401337760E+03  0.30153722906E+03  0.12500000000E+03 0.  0.
         25    1    1    2    0    0  0.40963790809E+01  0.39643637764E+02  0.12850866648E+03  0.18365150611E+03  0.12500000000E+03 0.  0.
</event>
<event>
 5    0  0.5670250E-005  0.4692014E+03  0.7546771E-02  0.1022146E+00
         21   -1    0    0  502  501  0.00000000000E+00  0.00000000000E+00  0.37020249260E+03  0.37020249260E+03  0.00000000000E+00 0. -1.
         21   -1    0    0  501  502 -0.00000000000E+00 -0.00000000000E+00 -0.59467442488E+03  0.59467442488E+03  0.00000000000E+00 0. -1.
         25    1    1    2    0    0  0.12739728258E+03  0.13349415712E+03 -0.13433904186E+03  0.26023592327E+03  0.12500000000E+03 0.  0.
         25    1    1    2    0    0  0.18426165851E+03 -0.12199692938E+03  0.14702055477E+03  0.29338652508E+03  0.12500000000E+03 0.  0.
         25    1    1    2    0    0 -0.31165894109E+03 -0.11497227737E+02 -0.23715344520E+03  0.41125446913E+03  0.12500000000E+03 0.  0.
</event>
<event>
 5    0  0.5670250E-005  0.2905143E+03  0.7546771E-02  0.1090081E+00
         21   -1    0    0  502  501  0.00000000000E+00  0.00000000000E+00  0.98580016918E+03  0.98580016918E+03  0.00000000000E+00 0.  1.
         21   -1    0    0  501  502 -0.00000000000E+00 -0.00000000000E+00 -0.85614266095E+02  0.85614266095E+02  0.00000000000E+00 0.  1.
         25    1    1    2    0    0  0.47386003881E+02 -0.12104909489E+02  0.19209275078E+03  0.23434288361E+03  0.12500000000E+03 0.  0.
         25    1    1    2    0    0  0.65359408149E+01  0.13772747973E+03  0.58691874372E+03  0.61571924521E+03  0.12500000000E+03 0.  0.
         25    1    1    2    0    0 -0.53921944696E+02 -0.12562257024E+03  0.12117440858E+03  0.22135230645E+03  0.12500000000E+03 0.  0.
</event>
<event>
 5    0  0.5670250E-005  0.2791005E+03  0.7546771E-02  0.1096181E+00
         21   -1    0    0  502  501  0.00000000000E+00  0.00000000000E+00  0.30370342093E+03  0.30370342093E+03  0.00000000000E+00 0.  1.
         21   -1    0    0  501  502 -0.00000000000E+00 -0.00000000000E+00 -0.25649068434E+03  0.25649068434E+03  0.00000000000E+00 0.  1.
         25    1    1    2    0    0 -0.12071917217E+03 -0.13227296879E+02  0.12853728159E+03  0.21655233241E+03  0.12500000000E+03 0.  0.
         25    1    1    2    0    0  0.10444406351E+03 -0.83757434289E+01 -0.12816967307E+03  0.20743958295E+03  0.12500000000E+03 0.  0.
         25    1    1    2    0    0  0.16275108665E+02  0.21603040308E+02  0.46845128078E+02  0.13620218991E+03  0.12500000000E+03 0.  0.
</event>
<event>
 5    0  0.5670250E-005  0.3024591E+03  0.7546771E-02  0.1084018E+00
         21   -1    0    0  502  501  0.00000000000E+00  0.00000000000E+00  0.21883070210E+03  0.21883070210E+03  0.00000000000E+00 0.  1.
         21   -1    0    0  501  502 -0.00000000000E+00 -0.00000000000E+00 -0.41804693091E+03  0.41804693091E+03  0.00000000000E+00 0.  1.
         25    1    1    2    0    0  0.30909157934E+02 -0.86997615438E+01 -0.19478068276E+03  0.23365696282E+03  0.12500000000E+03 0.  0.
         25    1    1    2    0    0 -0.13824686500E+03  0.10285523640E+03  0.81885089953E+01  0.21303391049E+03  0.12500000000E+03 0.  0.
         25    1    1    2    0    0  0.10733770707E+03 -0.94155474857E+02 -0.12624055046E+02  0.19018675971E+03  0.12500000000E+03 0.  0.
</event>
<event>
 5    0  0.5670250E-005  0.4829770E+03  0.7546771E-02  0.1018320E+00
         21   -1    0    0  502  501  0.00000000000E+00  0.00000000000E+00  0.18452306060E+03  0.18452306060E+03  0.00000000000E+00 0.  1.
         21   -1    0    0  501  502 -0.00000000000E+00 -0.00000000000E+00 -0.12641603818E+04  0.12641603818E+04  0.00000000000E+00 0. -1.
         25    1    1    2    0    0 -0.28581707862E+03  0.38534750061E+02 -0.25530067530E+03  0.40494414949E+03  0.12500000000E+03 0.  0.
         25    1    1    2    0    0  0.91910157325E+02 -0.13975663017E+03 -0.75369709299E+03  0.78208931758E+03  0.12500000000E+03 0.  0.
         25    1    1    2    0    0  0.19390692129E+03  0.10122188011E+03 -0.70639552865E+02  0.26164997529E+03  0.12500000000E+03 0.  0.
</event>
<event>
 5    0  0.5670250E-005  0.2352872E+03  0.7546771E-02  0.1122973E+00
         21   -1    0    0  502  501  0.00000000000E+00  0.00000000000E+00  0.41938857243E+03  0.41938857243E+03  0.00000000000E+00 0. -1.
         21   -1    0    0  501  502 -0.00000000000E+00 -0.00000000000E+00 -0.13200184003E+03  0.13200184003E+03  0.00000000000E+00 0. -1.
         25    1    1    2    0    0  0.89308342795E+02  0.37960303941E+02  0.17741252645E+03  0.23773339965E+03  0.12500000000E+03 0.  0.
         25    1    1    2    0    0 -0.66557409364E+02  0.30225327512E+02  0.83178862223E+02  0.16699455765E+03  0.12500000000E+03 0.  0.
         25    1    1    2    0    0 -0.22750933432E+02 -0.68185631453E+02  0.26795343724E+02  0.14666245516E+03  0.12500000000E+03 0.  0.
</event>
<event>
 5    0  0.5670250E-005  0.5463373E+03  0.7546771E-02  0.1002345E+00
         21   -1    0    0  502  501  0.00000000000E+00  0.00000000000E+00  0.50692692069E+03  0.50692692069E+03  0.00000000000E+00 0. -1.
         21   -1    0    0  501  502 -0.00000000000E+00 -0.00000000000E+00 -0.58881169092E+03  0.58881169092E+03  0.00000000000E+00 0. -1.
         25    1    1    2    0    0  0.18912060659E+03 -0.28395354532E+03  0.59187840505E+02  0.36813641520E+03  0.12500000000E+03 0.  0.
         25    1    1    2    0    0 -0.36356600676E+03  0.31487842627E+03 -0.95304570997E+02  0.50600061843E+03  0.12500000000E+03 0.  0.
         25    1    1    2    0    0  0.17444540017E+03 -0.30924880951E+02 -0.45768039733E+02  0.22160157798E+03  0.12500000000E+03 0.  0.
</event>
<event>
 5    0  0.5670250E-005  0.3126967E+03  0.7546771E-02  0.1079060E+00
         21   -1    0    0  502  501  0.00000000000E+00  0.00000000000E+00  0.40715680564E+02  0.40715680564E+02  0.00000000000E+00 0. -1.
         21   -1    0    0  501  502 -0.00000000000E+00 -0.00000000000E+00 -0.24015121594E+04  0.24015121594E+04  0.00000000000E+00 0. -1.
         25    1    1    2    0    0 -0.19096743578E+02 -0.19609340418E+02 -0.14422840227E+03  0.19281090184E+03  0.12500000000E+03 0.  0.
         25    1    1    2    0    0  0.16100364184E+02  0.14694486778E+03 -0.14178102294E+04  0.14309657097E+04  0.12500000000E+03 0.  0.
         25    1    1    2    0    0  0.29963793948E+01 -0.12733552736E+03 -0.79875784721E+03  0.81845122842E+03  0.12500000000E+03 0.  0.
</event>
<event>
 5    0  0.5670250E-005  0.3774228E+03  0.7546771E-02  0.1051890E+00
         21   -1    0    0  502  501  0.00000000000E+00  0.00000000000E+00  0.64758556929E+03  0.64758556929E+03  0.00000000000E+00 0. -1.
         21   -1    0    0  501  502 -0.00000000000E+00 -0.00000000000E+00 -0.21996779544E+03  0.21996779544E+03  0.00000000000E+00 0. -1.
         25    1    1    2    0    0 -0.13439582595E+03  0.10819686976E+03  0.33732661857E+03  0.39897750344E+03  0.12500000000E+03 0.  0.
         25    1    1    2    0    0  0.21206609653E+03 -0.38612367799E+02 -0.49452667197E+02  0.25403446722E+03  0.12500000000E+03 0.  0.
         25    1    1    2    0    0 -0.77670270575E+02 -0.69584501966E+02  0.13974382248E+03  0.21454139406E+03  0.12500000000E+03 0.  0.
</event>
<event>
 5    0  0.5670250E-005  0.3306138E+03  0.7546771E-02  0.1070866E+00
         21   -1    0    0  502  501  0.00000000000E+00  0.00000000000E+00  0.23945002151E+03  0.23945002151E+03  0.00000000000E+00 0.  1.
         21   -1    0    0  501  502 -0.00000000000E+00 -0.00000000000E+00 -0.45648559471E+03  0.45648559471E+03  0.00000000000E+00 0.  1.
         25    1    1    2    0    0 -0.51194806674E+02  0.88962948814E+01  0.16176724198E+01  0.13537972210E+03  0.12500000000E+03 0.  0.
         25    1    1    2    0    0 -0.11101934566E+03  0.63823276336E+01 -0.29690150306E+03  0.34079543972E+03  0.12500000000E+03 0.  0.
         25    1    1    2    0    0  0.16221415233E+03 -0.15278622515E+02  0.78248257436E+02  0.21976045439E+03  0.12500000000E+03 0.  0.
</event>
<event>
 5    0  0.5670250E-005  0.2764060E+03  0.7546771E-02  0.1097668E+00
         21   -1    0    0  502  501  0.00000000000E+00  0.00000000000E+00  0.48382833141E+02  0.48382833141E+02  0.00000000000E+00 0.  1.
         21   -1    0    0  501  502 -0.00000000000E+00 -0.00000000000E+00 -0.15790777207E+04  0.15790777207E+04  0.00000000000E+00 0.  1.
         25    1    1    2    0    0 -0.76138079220E+02 -0.28967147806E+02 -0.18044383587E+03  0.23413901995E+03  0.12500000000E+03 0.  0.
         25    1    1    2    0    0  0.18701784132E+02 -0.17761065175E+02 -0.10706195774E+04  0.10782005805E+04  0.12500000000E+03 0.  0.
         25    1    1    2    0    0  0.57436295088E+02  0.46728212981E+02 -0.27963147424E+03  0.31512095339E+03  0.12500000000E+03 0.  0.
</event>
<event>
 5    0  0.5670250E-005  0.4026996E+03  0.7546771E-02  0.1042849E+00
         21   -1    0    0  502  501  0.00000000000E+00  0.00000000000E+00  0.84425121426E+03  0.84425121426E+03  0.00000000000E+00 0. -1.
         21   -1    0    0  501  502 -0.00000000000E+00 -0.00000000000E+00 -0.19208381320E+03  0.19208381320E+03  0.00000000000E+00 0. -1.
         25    1    1    2    0    0 -0.18599317057E+03  0.11165095472E+03  0.45834970142E+03  0.52227276779E+03  0.12500000000E+03 0.  0.
         25    1    1    2    0    0  0.22232813294E+03 -0.18162382068E+03  0.18994005096E+03  0.36622292923E+03  0.12500000000E+03 0.  0.
         25    1    1    2    0    0 -0.36334962374E+02  0.69972865967E+02  0.38776486820E+01  0.14783933043E+03  0.12500000000E+03 0.  0.
</event>
<event>
 5    0  0.5670250E-005  0.2402245E+03  0.7546771E-02  0.1119643E+00
         21   -1    0    0  502  501  0.00000000000E+00  0.00000000000E+00  0.16267098283E+03  0.16267098283E+03  0.00000000000E+00 0. -1.
         21   -1    0    0  501  502 -0.00000000000E+00 -0.00000000000E+00 -0.35475160103E+03  0.35475160103E+03  0.00000000000E+00 0. -1.
         25    1    1    2    0    0 -0.10397459947E+03 -0.50105029547E+02 -0.11816267252E+03  0.20714402839E+03  0.12500000000E+03 0.  0.
         25    1    1    2    0    0  0.10099995223E+03 -0.12427578256E+02 -0.32014290672E+02  0.16433304555E+03  0.12500000000E+03 0.  0.
         25    1    1    2    0    0  0.29746472374E+01  0.62532607803E+02 -0.41903655006E+02  0.14594550993E+03  0.12500000000E+03 0.  0.
</event>
<event>
 5    0  0.5670250E-005  0.2852671E+03  0.7546771E-02  0.1092846E+00
         21   -1    0    0  502  501  0.00000000000E+00  0.00000000000E+00  0.12378145678E+03  0.12378145678E+03  0.00000000000E+00 0.  1.
         21   -1    0    0  501  502 -0.00000000000E+00 -0.00000000000E+00 -0.65742734938E+03  0.65742734938E+03  0.00000000000E+00 0.  1.
         25    1    1    2    0    0 -0.26509716476E+02 -0.89793196560E+01 -0.40521861743E+02  0.13435183113E+03  0.12500000000E+03 0.  0.
         25    1    1    2    0    0  0.12855441705E+03  0.12496030853E+03 -0.23221878509E+03  0.31889164460E+03  0.12500000000E+03 0.  0.
         25    1    1    2    0    0 -0.10204470057E+03 -0.11598098887E+03 -0.26090524576E+03  0.32796533043E+03  0.12500000000E+03 0.  0.
</event>
<event>
 5    0  0.5670250E-005  0.2820928E+03  0.7546771E-02  0.1094551E+00
         21   -1    0    0  502  501  0.00000000000E+00  0.00000000000E+00  0.35886652591E+03  0.35886652591E+03  0.00000000000E+00 0. -1.
         21   -1    0    0  501  502 -0.00000000000E+00 -0.00000000000E+00 -0.22174356014E+03  0.22174356014E+03  0.00000000000E+00 0. -1.
         25    1    1    2    0    0  0.48879931629E+02  0.12132860176E+03  0.71447183460E+02  0.19452397627E+03  0.12500000000E+03 0.  0.
         25    1    1    2    0    0  0.12442553879E+02  0.70018231196E+02  0.23935819007E+02  0.14579195204E+03  0.12500000000E+03 0.  0.
         25    1    1    2    0    0 -0.61322485508E+02 -0.19134683295E+03  0.41739963309E+02  0.24029415774E+03  0.12500000000E+03 0.  0.
</event>
<event>
 5    0  0.6258998E-005  0.3515553E+03  0.7546771E-02  0.1061978E+00
         21   -1    0    0  502  501  0.00000000000E+00  0.00000000000E+00  0.22112889559E+03  0.22112889559E+03  0.00000000000E+00 0. -1.
         21   -1    0    0  501  502 -0.00000000000E+00 -0.00000000000E+00 -0.55891000369E+03  0.55891000369E+03  0.00000000000E+00 0. -1.
         25    1    1    2    0    0  0.92233744831E+02 -0.87658901510E+02 -0.46075131979E+00  0.17837140744E+03  0.12500000000E+03 0.  0.
         25    1    1    2    0    0  0.90085334800E+02  0.19808990869E+03 -0.16249261249E+03  0.29897128388E+03  0.12500000000E+03 0.  0.
         25    1    1    2    0    0 -0.18231907963E+03 -0.11043100718E+03 -0.17482774429E+03  0.30269620797E+03  0.12500000000E+03 0.  0.
</event>
<event>
 5    0  0.6456010E-005  0.2995435E+03  0.7546771E-02  0.1085469E+00
         21   -1    0    0  502  501  0.00000000000E+00  0.00000000000E+00  0.53787437215E+03  0.53787437215E+03  0.00000000000E+00 0. -1.
         21   -1    0    0  501  502 -0.00000000000E+00 -0.00000000000E+00 -0.16681652105E+03  0.16681652105E+03  0.00000000000E+00 0. -1.
         25    1    1    2    0    0  0.70998899824E+02  0.59161263681E+02  0.37047202354E+03  0.40176537820E+03  0.12500000000E+03 0.  0.
         25    1    1    2    0    0  0.14503087341E+02 -0.64685946564E+02 -0.38078945409E+02  0.14652514224E+03  0.12500000000E+03 0.  0.
         25    1    1    2    0    0 -0.85501987165E+02  0.55246828829E+01  0.38664772961E+02  0.15640037276E+03  0.12500000000E+03 0.  0.
</event>
<event>
 5    0  0.6232455E-005  0.3434655E+03  0.7546771E-02  0.1065329E+00
         21   -1    0    0  502  501  0.00000000000E+00  0.00000000000E+00  0.51290073370E+03  0.51290073370E+03  0.00000000000E+00 0.  1.
         21   -1    0    0  501  502 -0.00000000000E+00 -0.00000000000E+00 -0.23000274733E+03  0.23000274733E+03  0.00000000000E+00 0.  1.
         25    1    1    2    0    0  0.16029625385E+02  0.23998175551E+02  0.29788030081E+03  0.32433090345E+03  0.12500000000E+03 0.  0.
         25    1    1    2    0    0  0.14837555236E+03 -0.53293516400E+02  0.34634280450E+02  0.20415689264E+03  0.12500000000E+03 0.  0.
         25    1    1    2    0    0 -0.16440517774E+03  0.29295340848E+02 -0.49616594892E+02  0.21441568495E+03  0.12500000000E+03 0.  0.
</event>
<event>
 5    0  0.5670250E-005  0.2822799E+03  0.7546771E-02  0.1094450E+00
         21   -1    0    0  502  501  0.00000000000E+00  0.00000000000E+00  0.28090828885E+03  0.28090828885E+03  0.00000000000E+00 0.  1.
         21   -1    0    0  501  502 -0.00000000000E+00 -0.00000000000E+00 -0.28365830495E+03  0.28365830495E+03  0.00000000000E+00 0.  1.
         25    1    1    2    0    0 -0.30121662097E+02 -0.55909265961E+02  0.15497901493E+03  0.20898960648E+03  0.12500000000E+03 0.  0.
         25    1    1    2    0    0  0.55213721580E+02  0.88290605841E+02 -0.18020395492E+02  0.16368726519E+03  0.12500000000E+03 0.  0.
         25    1    1    2    0    0 -0.25092059484E+02 -0.32381339880E+02 -0.13970863553E+03  0.19188972214E+03  0.12500000000E+03 0.  0.
</event>
<event>
 5    0  0.5670250E-005  0.2351957E+03  0.7546771E-02  0.1123035E+00
         21   -1    0    0  502  501  0.00000000000E+00  0.00000000000E+00  0.10301920994E+03  0.10301920994E+03  0.00000000000E+00 0. -1.
         21   -1    0    0  501  502 -0.00000000000E+00 -0.00000000000E+00 -0.53695812588E+03  0.53695812588E+03  0.00000000000E+00 0. -1.
         25    1    1    2    0    0  0.30512596333E+02 -0.40048051429E+02 -0.88548306198E+02  0.16124722475E+03  0.12500000000E+03 0.  0.
         25    1    1    2    0    0 -0.88089216859E+02 -0.86898299509E+01 -0.27914503726E+03  0.31840567692E+03  0.12500000000E+03 0.  0.
         25    1    1    2    0    0  0.57576620526E+02  0.48737881380E+02 -0.66245572481E+02  0.16032443415E+03  0.12500000000E+03 0.  0.
</event>
<event>
 5    0  0.5670250E-005  0.4126358E+03  0.7546771E-02  0.1039490E+00
         21   -1    0    0  502  501  0.00000000000E+00  0.00000000000E+00  0.49326359129E+03  0.49326359129E+03  0.00000000000E+00 0. -1.
         21   -1    0    0  501  502 -0.00000000000E+00 -0.00000000000E+00 -0.34518723387E+03  0.34518723387E+03  0.00000000000E+00 0. -1.
         25    1    1    2    0    0  0.17286133251E+03 -0.47572529403E+02 -0.73255447023E+00  0.21856285702E+03  0.12500000000E+03 0.  0.
         25    1    1    2    0    0 -0.10690816522E+03 -0.23430716147E+03  0.63711717534E+02  0.29328038574E+03  0.12500000000E+03 0.  0.
         25    1    1    2    0    0 -0.65953167293E+02  0.28187969087E+03  0.85097194350E+02  0.32660758241E+03  0.12500000000E+03 0.  0.
</event>
<event>
 5    0  0.5670250E-005  0.3098540E+03  0.7546771E-02  0.1080416E+00
         21   -1    0    0  502  501  0.00000000000E+00  0.00000000000E+00  0.30988831978E+03  0.30988831978E+03  0.00000000000E+00 0. -1.
         21   -1    0    0  501  502 -0.00000000000E+00 -0.00000000000E+00 -0.30981964274E+03  0.30981964274E+03  0.00000000000E+00 0. -1.
         25    1    1    2    0    0  0.35574847361E+02  0.15212619470E+02  0.83633938683E+02  0.15529529695E+03  0.12500000000E+03 0.  0.
         25    1    1    2    0    0 -0.32096527297E+02 -0.19119700379E+03 -0.92035468011E+02  0.24835862920E+03  0.12500000000E+03 0.  0.
         25    1    1    2    0    0 -0.34783200641E+01  0.17598438432E+03  0.84702063758E+01  0.21605403637E+03  0.12500000000E+03 0.  0.
</event>
<event>
 5    0  0.5670250E-005  0.2614914E+03  0.7546771E-02  0.1106250E+00
         21   -1    0    0  502  501  0.00000000000E+00  0.00000000000E+00  0.54221975316E+02  0.54221975316E+02  0.00000000000E+00 0.  1.
         21   -1    0    0  501  502 -0.00000000000E+00 -0.00000000000E+00 -0.12610713230E+04  0.12610713230E+04  0.00000000000E+00 0.  1.
         25    1    1    2    0    0 -0.52189777237E+02  0.56877191617E+02 -0.44017684434E+03  0.46404681021E+03  0.12500000000E+03 0.  0.
         25    1    1    2    0    0 -0.20494179842E+02  0.31649982288E+02 -0.59801336154E+03  0.61210024781E+03  0.12500000000E+03 0.  0.
         25    1    1    2    0    0  0.72683957080E+02 -0.88527173905E+02 -0.16865914182E+03  0.23914624031E+03  0.12500000000E+03 0.  0.
</event>
<event>
 5    0  0.5670250E-005  0.4219662E+03  0.7546771E-02  0.1036428E+00
         21   -1    0    0  502  501  0.00000000000E+00  0.00000000000E+00  0.60295701293E+03  0.60295701293E+03  0.00000000000E+00 0. -1.
         21   -1    0    0  501  502 -0.00000000000E+00 -0.00000000000E+00 -0.29530371711E+03  0.29530371711E+03  0.00000000000E+00 0. -1.
         25    1    1    2    0    0  0.27146383976E+02 -0.12913331185E+03 -0.16205212193E+03  0.24351227610E+03  0.12500000000E+03 0.  0.
         25    1    1    2    0    0 -0.10112019407E+03  0.39967148674E+02  0.45436308544E+03  0.48362535090E+03  0.12500000000E+03 0.  0.
         25    1    1    2    0    0  0.73973810089E+02  0.89166163171E+02  0.15342332303E+02  0.17112310304E+03  0.12500000000E+03 0.  0.
</event>
<event>
 5    0  0.5670250E-005  0.3009599E+03  0.7546771E-02  0.1084762E+00
         21   -1    0    0  502  501  0.00000000000E+00  0.00000000000E+00  0.91882779375E+03  0.91882779375E+03  0.00000000000E+00 0.  1.
         21   -1    0    0  501  502 -0.00000000000E+00 -0.00000000000E+00 -0.98578683743E+02  0.98578683743E+02  0.00000000000E+00 0.  1.
         25    1    1    2    0    0 -0.74507274829E+02  0.15728796153E+03  0.20820120180E+03  0.29877010774E+03  0.12500000000E+03 0.  0.
         25    1    1    2    0    0  0.14626124453E+03 -0.58011354832E+02  0.34801313792E+03  0.40186541666E+03  0.12500000000E+03 0.  0.
         25    1    1    2    0    0 -0.71753969704E+02 -0.99276606701E+02  0.26403477030E+03  0.31677095311E+03  0.12500000000E+03 0.  0.
</event>
<event>
 5    0  0.5670250E-005  0.2492366E+03  0.7546771E-02  0.1113788E+00
         21   -1    0    0  502  501  0.00000000000E+00  0.00000000000E+00  0.12408424991E+04  0.12408424991E+04  0.00000000000E+00 0.  1.
         21   -1    0    0  501  502 -0.00000000000E+00 -0.00000000000E+00 -0.50061860040E+02  0.50061860040E+02  0.00000000000E+00 0.  1.
         25    1    1    2    0    0 -0.10964781979E+03 -0.89309201744E+02  0.40887602570E+03  0.45033696527E+03  0.12500000000E+03 0.  0.
         25    1    1    2    0    0  0.58276402679E+02  0.37002554990E+02  0.54015921341E+03  0.55871486826E+03  0.12500000000E+03 0.  0.
         25    1    1    2    0    0  0.51371417112E+02  0.52306646754E+02  0.24174539994E+03  0.28185252559E+03  0.12500000000E+03 0.  0.
</event>
<event>
 5    0  0.5670250E-005  0.2734048E+03  0.7546771E-02  0.1099347E+00
         21   -1    0    0  502  501  0.00000000000E+00  0.00000000000E+00  0.23068150894E+03  0.23068150894E+03  0.00000000000E+00 0.  1.
         21   -1    0    0  501  502 -0.00000000000E+00 -0.00000000000E+00 -0.32404067999E+03  0.32404067999E+03  0.00000000000E+00 0.  1.
         25    1    1    2    0    0  0.13781454533E+03  0.46947320206E+02 -0.16417993157E+03  0.25254098619E+03  0.12500000000E+03 0.  0.
         25    1    1    2    0    0 -0.73466069191E+02 -0.48467406745E+02  0.43586477302E+02  0.15896897132E+03  0.12500000000E+03 0.  0.
         25    1    1    2    0    0 -0.64348476139E+02  0.15200865389E+01  0.27234283209E+02  0.14321223141E+03  0.12500000000E+03 0.  0.
</event>
<event>
 5    0  0.5850745E-005  0.3017384E+03  0.7546771E-02  0.1084375E+00
         21   -1    0    0  502  501  0.00000000000E+00  0.00000000000E+00  0.25251789697E+03  0.25251789697E+03  0.00000000000E+00 0.  1.
         21   -1    0    0  501  502 -0.00000000000E+00 -0.00000000000E+00 -0.36055286791E+03  0.36055286791E+03  0.00000000000E+00 0.  1.
         25    1    1    2    0    0  0.18136422871E+03 -0.95482189045E+02 -0.83325671461E+01  0.24021711753E+03  0.12500000000E+03 0.  0.
         25    1    1    2    0    0 -0.59545264211E+02  0.40801077103E+02 -0.12147285690E+03  0.18865582775E+03  0.12500000000E+03 0.  0.
         25    1    1    2    0    0 -0.12181896450E+03  0.54681111942E+02  0.21770453108E+02  0.18419781960E+03  0.12500000000E+03 0.  0.
</event>
<event>
 5    0  0.5670250E-005  0.5849976E+03  0.7546771E-02  0.9937029E-01
         21   -1    0    0  502  501  0.00000000000E+00  0.00000000000E+00  0.83699008548E+03  0.83699008548E+03  0.00000000000E+00 0. -1.
         21   -1    0    0  501  502 -0.00000000000E+00 -0.00000000000E+00 -0.40887251459E+03  0.40887251459E+03  0.00000000000E+00 0. -1.
         25    1    1    2    0    0 -0.40083692225E+03  0.12426898435E+03  0.37160123834E+03  0.57430436098E+03  0.12500000000E+03 0.  0.
         25    1    1    2    0    0  0.24223574565E+03 -0.56888560918E+02 -0.19656470582E+03  0.34084769092E+03  0.12500000000E+03 0.  0.
         25    1    1    2    0    0  0.15860117660E+03 -0.67380423436E+02  0.25308103837E+03  0.33071054816E+03  0.12500000000E+03 0.  0.
</event>
<event>
 5    0  0.5670250E-005  0.5269165E+03  0.7546771E-02  0.1006983E+00
         21   -1    0    0  502  501  0.00000000000E+00  0.00000000000E+00  0.12612773124E+04  0.12612773124E+04  0.00000000000E+00 0. -1.
         21   -1    0    0  501  502 -0.00000000000E+00 -0.00000000000E+00 -0.22012688386E+03  0.22012688386E+03  0.00000000000E+00 0. -1.
         25    1    1    2    0    0 -0.16228156286E+02  0.26834733782E+02  0.17213700037E+03  0.21503395753E+03  0.12500000000E+03 0.  0.
         25    1    1    2    0    0 -0.36976443471E+03 -0.14782793408E+03  0.17323702112E+03  0.45190142814E+03  0.12500000000E+03 0.  0.
         25    1    1    2    0    0  0.38599259100E+03  0.12099320030E+03  0.69577640706E+03  0.81446881060E+03  0.12500000000E+03 0.  0.
</event>
<event>
 5    0  0.5670250E-005  0.3026687E+03  0.7546771E-02  0.1083914E+00
         21   -1    0    0  502  501  0.00000000000E+00  0.00000000000E+00  0.24351220217E+03  0.24351220217E+03  0.00000000000E+00 0. -1.
         21   -1    0    0  501  502 -0.00000000000E+00 -0.00000000000E+00 -0.37619601866E+03  0.37619601866E+03  0.00000000000E+00 0. -1.
         25    1    1    2    0    0 -0.16341078031E+03 -0.83695529678E+02  0.51265281924E+02  0.22794989349E+03  0.12500000000E+03 0.  0.
         25    1    1    2    0    0  0.10783099770E+02 -0.12685714095E+02 -0.60479559337E+02  0.13985699725E+03  0.12500000000E+03 0.  0.
         25    1    1    2    0    0  0.15262768054E+03  0.96381243773E+02 -0.12346953907E+03  0.25190133008E+03  0.12500000000E+03 0.  0.
</event>
<event>
 5    0  0.5670250E-005  0.2000893E+03  0.7546771E-02  0.1149664E+00
         21   -1    0    0  502  501  0.00000000000E+00  0.00000000000E+00  0.35392819447E+03  0.35392819447E+03  0.00000000000E+00 0.  1.
         21   -1    0    0  501  502 -0.00000000000E+00 -0.00000000000E+00 -0.11311820859E+03  0.11311820859E+03  0.00000000000E+00 0.  1.
         25    1    1    2    0    0  0.48439003549E+02  0.13360999787E+02  0.61266055962E+02  0.14799791550E+03  0.12500000000E+03 0.  0.
         25    1    1    2    0    0 -0.52191112740E+02  0.71713417752E+01  0.76644737503E+02  0.15580358205E+03  0.12500000000E+03 0.  0.
         25    1    1    2    0    0  0.37521091919E+01 -0.20532341562E+02  0.10289919242E+03  0.16324490550E+03  0.12500000000E+03 0.  0.
</event>
<event>
 5    0  0.5670250E-005  0.3375256E+03  0.7546771E-02  0.1067855E+00
         21   -1    0    0  502  501  0.00000000000E+00  0.00000000000E+00  0.50182540360E+03  0.50182540360E+03  0.00000000000E+00 0.  1.
         21   -1    0    0  501  502 -0.00000000000E+00 -0.00000000000E+00 -0.22701828033E+03  0.22701828033E+03  0.00000000000E+00 0.  1.
         25    1    1    2    0    0  0.10466638919E+03 -0.43952620820E+02  0.29003254058E+03  0.33560506626E+03  0.12500000000E+03 0.  0.
         25    1    1    2    0    0 -0.42044062173E+02  0.13087059010E+03 -0.96813062417E+02  0.20950556931E+03  0.12500000000E+03 0.  0.
         25    1    1    2    0    0 -0.62622327015E+02 -0.86917969283E+02  0.81587645103E+02  0.18373304836E+03  0.12500000000E+03 0.  0.
</event>
<event>
 5    0  0.6156553E-005  0.3355365E+03  0.7546771E-02  0.1068713E+00
         21   -1    0    0  502  501  0.00000000000E+00  0.00000000000E+00  0.34401599487E+03  0.34401599487E+03  0.00000000000E+00 0.  1.
         21   -1    0    0  501  502 -0.00000000000E+00 -0.00000000000E+00 -0.32726604014E+03  0.32726604014E+03  0.00000000000E+00 0.  1.
         25    1    1    2    0    0  0.86905203979E+02  0.41682567089E+02  0.15724689037E+03  0.22280380474E+03  0.12500000000E+03 0.  0.
         25    1    1    2    0    0 -0.14255294559E+03  0.66080979423E+01  0.61802182232E+02  0.19952322918E+03  0.12500000000E+03 0.  0.
         25    1    1    2    0    0  0.55647741613E+02 -0.48290665031E+02 -0.20229911786E+03  0.24895500108E+03  0.12500000000E+03 0.  0.
</event>
<event>
 5    0  0.5670250E-005  0.5068163E+03  0.7546771E-02  0.1012015E+00
         21   -1    0    0  502  501  0.00000000000E+00  0.00000000000E+00  0.39721612152E+03  0.39721612152E+03  0.00000000000E+00 0.  1.
         21   -1    0    0  501  502 -0.00000000000E+00 -0.00000000000E+00 -0.64665742762E+03  0.64665742762E+03  0.00000000000E+00 0.  1.
         25    1    1    2    0    0  0.22949684461E+03  0.20642282522E+03  0.21577566083E+03  0.39681648184E+03  0.12500000000E+03 0.  0.
         25    1    1    2    0    0 -0.22916368434E+03 -0.17197767617E+03 -0.27200544563E+03  0.41437214889E+03  0.12500000000E+03 0.  0.
         25    1    1    2    0    0 -0.33316026930E+00 -0.34445149045E+02 -0.19321152131E+03  0.23268491841E+03  0.12500000000E+03 0.  0.
</event>
<event>
 5    0  0.5670250E-005  0.3127172E+03  0.7546771E-02  0.1079051E+00
         21   -1    0    0  502  501  0.00000000000E+00  0.00000000000E+00  0.62975237288E+03  0.62975237288E+03  0.00000000000E+00 0. -1.
         21   -1    0    0  501  502 -0.00000000000E+00 -0.00000000000E+00 -0.15528651808E+03  0.15528651808E+03  0.00000000000E+00 0. -1.
         25    1    1    2    0    0 -0.10197582699E+03  0.19107036331E+03  0.29386823482E+03  0.38586330800E+03  0.12500000000E+03 0.  0.
         25    1    1    2    0    0  0.85497222257E+02 -0.17026884590E+03  0.12386109059E+03  0.25936041460E+03  0.12500000000E+03 0.  0.
         25    1    1    2    0    0  0.16478604730E+02 -0.20801517405E+02  0.56736529395E+02  0.13981516838E+03  0.12500000000E+03 0.  0.
</event>
<event>
 5    0  0.5670250E-005  0.2307738E+03  0.7546771E-02  0.1126096E+00
         21   -1    0    0  502  501  0.00000000000E+00  0.00000000000E+00  0.75448525024E+03  0.75448525024E+03  0.00000000000E+00 0. -1.
         21   -1    0    0  501  502 -0.00000000000E+00 -0.00000000000E+00 -0.70586597795E+02  0.70586597795E+02  0.00000000000E+00 0. -1.
         25    1    1    2    0    0  0.75653762968E+02 -0.69296608048E+01  0.36135248809E+03  0.38983603309E+03  0.12500000000E+03 0.  0.
         25    1    1    2    0    0 -0.75170048893E+02  0.24757038833E+02  0.24750968694E+03  0.28835653686E+03  0.12500000000E+03 0.  0.
         25    1    1    2    0    0 -0.48371407524E+00 -0.17827378029E+02  0.75036477421E+02  0.14687927808E+03  0.12500000000E+03 0.  0.
</event>
<event>
 5    0  0.5670250E-005  0.3124503E+03  0.7546771E-02  0.1079177E+00
         21   -1    0    0  502  501  0.00000000000E+00  0.00000000000E+00  0.29849230821E+03  0.29849230821E+03  0.00000000000E+00 0.  1.
         21   -1    0    0  501  502 -0.00000000000E+00 -0.00000000000E+00 -0.32706105127E+03  0.32706105127E+03  0.00000000000E+00 0.  1.
         25    1    1    2    0    0  0.57948569906E+02 -0.10347389539E+03  0.68475794657E+02  0.18541525891E+03  0.12500000000E+03 0.  0.
         25    1    1    2    0    0 -0.85640388586E+02  0.16043204806E+03  0.60966637399E+02  0.22894245801E+03  0.12500000000E+03 0.  0.
         25    1    1    2    0    0  0.27691818680E+02 -0.56958152674E+02 -0.15801117511E+03  0.21119564256E+03  0.12500000000E+03 0.  0.
</event>
<event>
 5    0  0.5670250E-005  0.3205298E+03  0.7546771E-02  0.1075406E+00
         21   -1    0    0  502  501  0.00000000000E+00  0.00000000000E+00  0.74335974463E+03  0.74335974463E+03  0.00000000000E+00 0.  1.
         21   -1    0    0  501  502 -0.00000000000E+00 -0.00000000000E+00 -0.13820943621E+03  0.13820943621E+03  0.00000000000E+00 0.  1.
         25    1    1    2    0    0  0.14221630546E+03  0.92775221819E+02  0.20019160577E+03  0.29074799800E+03  0.12500000000E+03 0.  0.
         25    1    1    2    0    0 -0.18487191519E+03 -0.14834150713E+03  0.17559360308E+03  0.32037624944E+03  0.12500000000E+03 0.  0.
         25    1    1    2    0    0  0.42655609723E+02  0.55566285309E+02  0.22936509957E+03  0.27044493341E+03  0.12500000000E+03 0.  0.
</event>
<event>
 5    0  0.5670250E-005  0.2690467E+03  0.7546771E-02  0.1101826E+00
         21   -1    0    0  502  501  0.00000000000E+00  0.00000000000E+00  0.66202546721E+02  0.66202546721E+02  0.00000000000E+00 0.  1.
         21   -1    0    0  501  502 -0.00000000000E+00 -0.00000000000E+00 -0.10934037298E+04  0.10934037298E+04  0.00000000000E+00 0.  1.
         25    1    1    2    0    0 -0.84180861023E+02 -0.53542007822E+02 -0.16125201033E+03  0.22711313216E+03  0.12500000000E+03 0.  0.
         25    1    1    2    0    0 -0.13055031093E+02 -0.71061069796E+02 -0.35332540513E+03  0.38168567093E+03  0.12500000000E+03 0.  0.
         25    1    1    2    0    0  0.97235892116E+02  0.12460307762E+03 -0.51262376761E+03  0.55080747343E+03  0.12500000000E+03 0.  0.
</event>
<event>
 5    0  0.5670250E-005  0.4258843E+03  0.7546771E-02  0.1035168E+00
         21   -1    0    0  502  501  0.00000000000E+00  0.00000000000E+00  0.17459918901E+03  0.17459918901E+03  0.00000000000E+00 0. -1.
         21   -1    0    0  501  502 -0.00000000000E+00 -0.00000000000E+00 -0.10388215496E+04  0.10388215496E+04  0.00000000000E+00 0. -1.
         25    1    1    2    0    0 -0.37616175743E+02 -0.84606931729E+01  0.40753975988E+02  0.13701257813E+03  0.12500000000E+03 0.  0.
         25    1    1    2    0    0  0.75460427664E+02  0.23213860476E+03 -0.68041039936E+03  0.73359792770E+03  0.12500000000E+03 0.  0.
         25    1    1    2    0    0 -0.37844251921E+02 -0.22367791159E+03 -0.22456593719E+03  0.34281023276E+03  0.12500000000E+03 0.  0.
</event>
<event>
 5    0  0.5670250E-005  0.3571950E+03  0.7546771E-02  0.1059700E+00
         21   -1    0    0  502  501  0.00000000000E+00  0.00000000000E+00  0.21886788257E+04  0.21886788257E+04  0.00000000000E+00 0.  1.
         21   -1    0    0  501  502 -0.00000000000E+00 -0.00000000000E+00 -0.58294661455E+02  0.58294661455E+02  0.00000000000E+00 0.  1.
         25    1    1    2    0    0 -0.18573232039E+03 -0.96412570099E+02  0.61180353926E+03  0.65857455854E+03  0.12500000000E+03 0.  0.
         25    1    1    2    0    0  0.97344804566E+02 -0.11618330874E+03  0.51547512367E+03  0.55164678493E+03  0.12500000000E+03 0.  0.
         25    1    1    2    0    0  0.88387515820E+02  0.21259587884E+03  0.10031055013E+04  0.10367521437E+04  0.12500000000E+03 0.  0.
</event>
<event>
 5    0  0.5670250E-005  0.2782709E+03  0.7546771E-02  0.1096637E+00
         21   -1    0    0  502  501  0.00000000000E+00  0.00000000000E+00  0.38938154357E+03  0.38938154357E+03  0.00000000000E+00 0.  1.
         21   -1    0    0  501  502 -0.00000000000E+00 -0.00000000000E+00 -0.19886590339E+03  0.19886590339E+03  0.00000000000E+00 0.  1.
         25    1    1    2    0    0  0.13340774059E+03  0.74818483053E+01  0.38899608223E+02  0.18706090672E+03  0.12500000000E+03 0.  0.
         25    1    1    2    0    0 -0.64032356221E+02  0.11625695318E+03  0.71535869057E+02  0.19585250156E+03  0.12500000000E+03 0.  0.
         25    1    1    2    0    0 -0.69375384365E+02 -0.12373880149E+03  0.80080162894E+02  0.20533403868E+03  0.12500000000E+03 0.  0.
</event>
<event>
 5    0  0.5670250E-005  0.2579348E+03  0.7546771E-02  0.1108390E+00
         21   -1    0    0  502  501  0.00000000000E+00  0.00000000000E+00  0.35329881315E+03  0.35329881315E+03  0.00000000000E+00 0. -1.
         21   -1    0    0  501  502 -0.00000000000E+00 -0.00000000000E+00 -0.18831190492E+03  0.18831190492E+03  0.00000000000E+00 0. -1.
         25    1    1    2    0    0  0.11679060343E+03 -0.40025177904E+00  0.88609889384E+02  0.19265751412E+03  0.12500000000E+03 0.  0.
         25    1    1    2    0    0 -0.92078441216E+02  0.62156105595E+02 -0.32469504921E+02  0.17035577345E+03  0.12500000000E+03 0.  0.
         25    1    1    2    0    0 -0.24712162210E+02 -0.61755853816E+02  0.10884652378E+03  0.17859743050E+03  0.12500000000E+03 0.  0.
</event>
<event>
 5    0  0.5670250E-005  0.2439010E+03  0.7546771E-02  0.1117221E+00
         21   -1    0    0  502  501  0.00000000000E+00  0.00000000000E+00  0.63431328900E+02  0.63431328900E+02  0.00000000000E+00 0.  1.
         21   -1    0    0  501  502 -0.00000000000E+00 -0.00000000000E+00 -0.93782866989E+03  0.93782866989E+03  0.00000000000E+00 0.  1.
         25    1    1    2    0    0  0.27494714943E+02 -0.44188565691E+02 -0.16330112926E+03  0.21213403193E+03  0.12500000000E+03 0.  0.
         25    1    1    2    0    0  0.98099935356E+02  0.41629079785E+02 -0.31751597056E+03  0.35748841822E+03  0.12500000000E+03 0.  0.
         25    1    1    2    0    0 -0.12559465030E+03  0.25594859058E+01 -0.39358024117E+03  0.43163754864E+03  0.12500000000E+03 0.  0.
</event>
<event>
 5    0  0.5670250E-005  0.2681186E+03  0.7546771E-02  0.1102361E+00
         21   -1    0    0  502  501  0.00000000000E+00  0.00000000000E+00  0.11276175050E+03  0.11276175050E+03  0.00000000000E+00 0.  1.
         21   -1    0    0  501  502 -0.00000000000E+00 -0.00000000000E+00 -0.63751736142E+03  0.63751736142E+03  0.00000000000E+00 0.  1.
         25    1    1    2    0    0  0.46063760637E+01  0.10497758183E+03 -0.11320128115E+03  0.19869836799E+03  0.12500000000E+03 0.  0.
         25    1    1    2    0    0 -0.78499080136E+01 -0.16473253758E+03 -0.15001741276E+03  0.25559470676E+03  0.12500000000E+03 0.  0.
         25    1    1    2    0    0  0.32435319499E+01  0.59754955757E+02 -0.26153691701E+03  0.29598603717E+03  0.12500000000E+03 0.  0.
</event>
<event>
 5    0  0.6675296E-005  0.4544613E+03  0.7546771E-02  0.1026400E+00
         21   -1    0    0  502  501  0.00000000000E+00  0.00000000000E+00  0.25267580611E+03  0.25267580611E+03  0.00000000000E+00 0.  1.
         21   -1    0    0  501  502 -0.00000000000E+00 -0.00000000000E+00 -0.81739151238E+03  0.81739151238E+03  0.00000000000E+00 0.  1.
         25    1    1    2    0    0 -0.13866119322E+03 -0.16059131507E+03 -0.21516689553E+03  0.32701420445E+03  0.12500000000E+03 0.  0.
         25    1    1    2    0    0  0.61721307939E+01  0.16867610292E+02  0.14770510953E+03  0.19433067400E+03  0.12500000000E+03 0.  0.
         25    1    1    2    0    0  0.13248906243E+03  0.14372370478E+03 -0.49725392027E+03  0.54872244004E+03  0.12500000000E+03 0.  0.
</event>
<event>
 5    0  0.5670250E-005  0.3027318E+03  0.7546771E-02  0.1083883E+00
         21   -1    0    0  502  501  0.00000000000E+00  0.00000000000E+00  0.16288912553E+04  0.16288912553E+04  0.00000000000E+00 0.  1.
         21   -1    0    0  501  502 -0.00000000000E+00 -0.00000000000E+00 -0.56263130889E+02  0.56263130889E+02  0.00000000000E+00 0.  1.
         25    1    1    2    0    0 -0.63545920600E+02 -0.19741870652E+03  0.47309808186E+03  0.53146874299E+03  0.12500000000E+03 0.  0.
         25    1    1    2    0    0 -0.32591906223E+02  0.72438667268E+02  0.46775470189E+03  0.49064147196E+03  0.12500000000E+03 0.  0.
         25    1    1    2    0    0  0.96137826824E+02  0.12498003925E+03  0.63177534065E+03  0.66304417124E+03  0.12500000000E+03 0.  0.
</event>
<event>
 5    0  0.5670250E-005  0.2935006E+03  0.7546771E-02  0.1088535E+00
         21   -1    0    0  502  501  0.00000000000E+00  0.00000000000E+00  0.20360776268E+03  0.20360776268E+03  0.00000000000E+00 0. -1.
         21   -1    0    0  501  502 -0.00000000000E+00 -0.00000000000E+00 -0.42308117641E+03  0.42308117641E+03  0.00000000000E+00 0. -1.
         25    1    1    2    0    0  0.20276692186E+02 -0.14696343140E+03  0.15131997253E+02  0.19458512727E+03  0.12500000000E+03 0.  0.
         25    1    1    2    0    0 -0.66876352631E+02  0.16498895255E+03 -0.92555059468E+02  0.23640059230E+03  0.12500000000E+03 0.  0.
         25    1    1    2    0    0  0.46599660445E+02 -0.18025521156E+02 -0.14205035152E+03  0.19570321952E+03  0.12500000000E+03 0.  0.
</event>
<event>
 5    0  0.5670250E-005  0.3250273E+03  0.7546771E-02  0.1073359E+00
         21   -1    0    0  502  501  0.00000000000E+00  0.00000000000E+00  0.63760821530E+03  0.63760821530E+03  0.00000000000E+00 0.  1.
         21   -1    0    0  501  502 -0.00000000000E+00 -0.00000000000E+00 -0.16568598403E+03  0.16568598403E+03  0.00000000000E+00 0.  1.
         25    1    1    2    0    0  0.15248405967E+03 -0.98861088236E+02  0.14083429072E+03  0.26169486175E+03  0.12500000000E+03 0.  0.
         25    1    1    2    0    0  0.11654585903E+02  0.11298434043E+02  0.28660503871E+03  0.31309891759E+03  0.12500000000E+03 0.  0.
         25    1    1    2    0    0 -0.16413864558E+03  0.87562654193E+02  0.44482901843E+02  0.22850041999E+03  0.12500000000E+03 0.  0.
</event>
<event>
 5    0  0.5670250E-005  0.3538738E+03  0.7546771E-02  0.1061036E+00
         21   -1    0    0  502  501  0.00000000000E+00  0.00000000000E+00  0.98983331817E+02  0.98983331817E+02  0.00000000000E+00 0.  1.
         21   -1    0    0  501  502 -0.00000000000E+00 -0.00000000000E+00 -0.12651286972E+04  0.12651286972E+04  0.00000000000E+00 0.  1.
         25    1    1    2    0    0 -0.16070410158E+03  0.19781976929E+02 -0.83869446561E+03  0.86327894768E+03  0.12500000000E+03 0.  0.
         25    1    1    2    0    0  0.26841800759E+02  0.97723562013E+02 -0.15110876889E+03  0.22074699743E+03  0.12500000000E+03 0.  0.
         25    1    1    2    0    0  0.13386230082E+03 -0.11750553894E+03 -0.17634213086E+03  0.28008608387E+03  0.12500000000E+03 0.  0.
</event>
<event>
 5    0  0.5670250E-005  0.2656308E+03  0.7546771E-02  0.1103807E+00
         21   -1    0    0  502  501  0.00000000000E+00  0.00000000000E+00  0.10141378756E+04  0.10141378756E+04  0.00000000000E+00 0. -1.
         21   -1    0    0  501  502 -0.00000000000E+00 -0.00000000000E+00 -0.69576057551E+02  0.69576057551E+02  0.00000000000E+00 0. -1.
         25    1    1    2    0    0 -0.36765954945E+02 -0.33721434466E+02  0.26883896273E+03  0.30064640105E+03  0.12500000000E+03 0.  0.
         25    1    1    2    0    0  0.87042490309E+02  0.32538393526E+02  0.61653135445E+03  0.63590176379E+03  0.12500000000E+03 0.  0.
         25    1    1    2    0    0 -0.50276535364E+02  0.11830409402E+01  0.59191500918E+02  0.14716576835E+03  0.12500000000E+03 0.  0.
</event>
<event>
 5    0  0.5670250E-005  0.2766165E+03  0.7546771E-02  0.1097551E+00
         21   -1    0    0  502  501  0.00000000000E+00  0.00000000000E+00  0.15597521916E+03  0.15597521916E+03  0.00000000000E+00 0.  1.
         21   -1    0    0  501  502 -0.00000000000E+00 -0.00000000000E+00 -0.49056966142E+03  0.49056966142E+03  0.00000000000E+00 0.  1.
         25    1    1    2    0    0  0.73809896322E+02  0.98093401140E+02 -0.12639720302E+02  0.17565585294E+03  0.12500000000E+03 0.  0.
         25    1    1    2    0    0  0.56298121374E+02 -0.71260225643E+02 -0.10200153928E+03  0.18513998014E+03  0.12500000000E+03 0.  0.
         25    1    1    2    0    0 -0.13010801770E+03 -0.26833175497E+02 -0.21995318268E+03  0.28574904750E+03  0.12500000000E+03 0.  0.
</event>
<event>
 5    0  0.5670250E-005  0.2475624E+03  0.7546771E-02  0.1114855E+00
         21   -1    0    0  502  501  0.00000000000E+00  0.00000000000E+00  0.45023789860E+02  0.45023789860E+02  0.00000000000E+00 0.  1.
         21   -1    0    0  501  502 -0.00000000000E+00 -0.00000000000E+00 -0.13612172790E+04  0.13612172790E+04  0.00000000000E+00 0.  1.
         25    1    1    2    0    0 -0.14800225371E+02 -0.13287632418E+03 -0.41713229874E+03  0.45552115083E+03  0.12500000000E+03 0.  0.
         25    1    1    2    0    0 -0.32194731798E+02  0.11072947320E+03 -0.57216625702E+03  0.59690597473E+03  0.12500000000E+03 0.  0.
         25    1    1    2    0    0  0.46994957169E+02  0.22146850976E+02 -0.32689493335E+03  0.35381394328E+03  0.12500000000E+03 0.  0.
</event>
<event>
 5    0  0.5670250E-005  0.3145317E+03  0.7546771E-02  0.1078194E+00
         21   -1    0    0  502  501  0.00000000000E+00  0.00000000000E+00  0.17721715014E+03  0.17721715014E+03  0.00000000000E+00 0. -1.
         21   -1    0    0  501  502 -0.00000000000E+00 -0.00000000000E+00 -0.55824268082E+03  0.55824268082E+03  0.00000000000E+00 0. -1.
         25    1    1    2    0    0 -0.14413968295E+02  0.15542026700E+03 -0.85375858484E+02  0.21743334401E+03  0.12500000000E+03 0.  0.
         25    1    1    2    0    0 -0.77905267539E+02  0.21817161092E+02 -0.12231519840E+02  0.14939822391E+03  0.12500000000E+03 0.  0.
         25    1    1    2    0    0  0.92319235834E+02 -0.17723742809E+03 -0.28341815236E+03  0.36862826304E+03  0.12500000000E+03 0.  0.
</event>
<event>
 5    0  0.5670250E-005  0.2378474E+03  0.7546771E-02  0.1121235E+00
         21   -1    0    0  502  501  0.00000000000E+00  0.00000000000E+00  0.47908427000E+02  0.47908427000E+02  0.00000000000E+00 0.  1.
         21   -1    0    0  501  502 -0.00000000000E+00 -0.00000000000E+00 -0.11808228950E+04  0.11808228950E+04  0.00000000000E+00 0.  1.
         25    1    1    2    0    0  0.43660129522E+02  0.11405848491E+03 -0.52094765163E+03  0.54947884457E+03  0.12500000000E+03 0.  0.
         25    1    1    2    0    0 -0.47227784859E+02 -0.92978843403E+02 -0.27993830963E+03  0.32383018108E+03  0.12500000000E+03 0.  0.
         25    1    1    2    0    0  0.35676553375E+01 -0.21079641510E+02 -0.33202850673E+03  0.35542229633E+03  0.12500000000E+03 0.  0.
</event>
<event>
 5    0  0.5670250E-005  0.2337880E+03  0.7546771E-02  0.1124002E+00
         21   -1    0    0  502  501  0.00000000000E+00  0.00000000000E+00  0.48130164126E+03  0.48130164126E+03  0.00000000000E+00 0.  1.
         21   -1    0    0  501  502 -0.00000000000E+00 -0.00000000000E+00 -0.11356045906E+03  0.11356045906E+03  0.00000000000E+00 0.  1.
         25    1    1    2    0    0  0.70297994047E+02 -0.21762484197E+02  0.79080932568E+02  0.16520958683E+03  0.12500000000E+03 0.  0.
         25    1    1    2    0    0  0.43579048181E+02  0.37945734261E+02  0.75374001808E+02  0.15698806432E+03  0.12500000000E+03 0.  0.
         25    1    1    2    0    0 -0.11387704223E+03 -0.16183250064E+02  0.21328624783E+03  0.27266444917E+03  0.12500000000E+03 0.  0.
</event>
<event>
 5    0  0.5670250E-005  0.3236348E+03  0.7546771E-02  0.1073989E+00
         21   -1    0    0  502  501  0.00000000000E+00  0.00000000000E+00  0.57654245655E+03  0.57654245655E+03  0.00000000000E+00 0.  1.
         21   -1    0    0  501  502 -0.00000000000E+00 -0.00000000000E+00 -0.18166826178E+03  0.18166826178E+03  0.00000000000E+00 0.  1.
         25    1    1    2    0    0 -0.58971408507E+02 -0.14992285303E+03  0.21817325676E+03  0.29862863032E+03  0.12500000000E+03 0.  0.
         25    1    1    2    0    0  0.73440923233E+02  0.15763369042E+02 -0.61804118359E+02  0.15838813736E+03  0.12500000000E+03 0.  0.
         25    1    1    2    0    0 -0.14469514727E+02  0.13415948399E+03  0.23850505637E+03  0.30119395066E+03  0.12500000000E+03 0.  0.
</event>
<event>
 5    0  0.5670250E-005  0.2157948E+03  0.7546771E-02  0.1137058E+00
         21   -1    0    0  502  501  0.00000000000E+00  0.00000000000E+00  0.34703923971E+03  0.34703923971E+03  0.00000000000E+00 0. -1.
         21   -1    0    0  501  502 -0.00000000000E+00 -0.00000000000E+00 -0.13418476304E+03  0.13418476304E+03  0.00000000000E+00 0. -1.
         25    1    1    2    0    0  0.47249027594E+02 -0.22163972261E+02  0.83441043098E+02  0.15909468862E+03  0.12500000000E+03 0.  0.
         25    1    1    2    0    0  0.28295031284E+02  0.36003048610E+02  0.10967014257E+02  0.13357433775E+03  0.12500000000E+03 0.  0.
         25    1    1    2    0    0 -0.75544058878E+02 -0.13839076349E+02  0.11844641931E+03  0.18855497637E+03  0.12500000000E+03 0.  0.
</event>
<event>
 5    0  0.5670250E-005  0.3031200E+03  0.7546771E-02  0.1083691E+00
         21   -1    0    0  502  501  0.00000000000E+00  0.00000000000E+00  0.14438313353E+04  0.14438313353E+04  0.00000000000E+00 0. -1.
         21   -1    0    0  501  502 -0.00000000000E+00 -0.00000000000E+00 -0.63637437308E+02  0.63637437308E+02  0.00000000000E+00 0. -1.
         25    1    1    2    0    0 -0.31627894543E+02 -0.12239546777E+03  0.23437860545E+03  0.29417563620E+03  0.12500000000E+03 0.  0.
         25    1    1    2    0    0 -0.11398661177E+03  0.92507294872E+02  0.71831487320E+03  0.74374175916E+03  0.12500000000E+03 0.  0.
         25    1    1    2    0    0  0.14561450632E+03  0.29888172897E+02  0.42750041936E+03  0.46955137725E+03  0.12500000000E+03 0.  0.
</event>
<event>
 5    0  0.5670250E-005  0.4487735E+03  0.7546771E-02  0.1028088E+00
         21   -1    0    0  502  501  0.00000000000E+00  0.00000000000E+00  0.12337266991E+03  0.12337266991E+03  0.00000000000E+00 0.  1.
         21   -1    0    0  501  502 -0.00000000000E+00 -0.00000000000E+00 -0.16324331337E+04  0.16324331337E+04  0.00000000000E+00 0.  1.
         25    1    1    2    0    0 -0.65735760787E+02 -0.16692851271E+03 -0.63506171696E+03  0.67165072988E+03  0.12500000000E+03 0.  0.
         25    1    1    2    0    0  0.15912651486E+03  0.33660291980E+03 -0.66854601700E+03  0.77537187865E+03  0.12500000000E+03 0.  0.
         25    1    1    2    0    0 -0.93390754075E+02 -0.16967440709E+03 -0.20545272983E+03  0.30878319507E+03  0.12500000000E+03 0.  0.
</event>
<event>
 5    0  0.5670250E-005  0.3049786E+03  0.7546771E-02  0.1082778E+00
         21   -1    0    0  502  501  0.00000000000E+00  0.00000000000E+00  0.40212495151E+03  0.40212495151E+03  0.00000000000E+00 0.  1.
         21   -1    0    0  501  502 -0.00000000000E+00 -0.00000000000E+00 -0.23130108919E+03  0.23130108919E+03  0.00000000000E+00 0.  1.
         25    1    1    2    0    0 -0.10201742381E+03  0.28380900081E+02 -0.46463579800E+02  0.17028474535E+03  0.12500000000E+03 0.  0.
         25    1    1    2    0    0  0.17826906147E+03 -0.96735928181E+02  0.17643547959E+03  0.29646614737E+03  0.12500000000E+03 0.  0.
         25    1    1    2    0    0 -0.76251637656E+02  0.68355028100E+02  0.40851962524E+02  0.16667514798E+03  0.12500000000E+03 0.  0.
</event>
<event>
 5    0  0.5670250E-005  0.3595304E+03  0.7546771E-02  0.1058770E+00
         21   -1    0    0  502  501  0.00000000000E+00  0.00000000000E+00  0.80781770782E+03  0.80781770782E+03  0.00000000000E+00 0. -1.
         21   -1    0    0  501  502 -0.00000000000E+00 -0.00000000000E+00 -0.16001394841E+03  0.16001394841E+03  0.00000000000E+00 0. -1.
         25    1    1    2    0    0 -0.10746433108E+02  0.35026429839E+02  0.26589671067E+02  0.13294490295E+03  0.12500000000E+03 0.  0.
         25    1    1    2    0    0 -0.13409360026E+03 -0.21864004970E+03  0.38891081653E+03  0.48234965345E+03  0.12500000000E+03 0.  0.
         25    1    1    2    0    0  0.14484003337E+03  0.18361361986E+03  0.23230327181E+03  0.35253709983E+03  0.12500000000E+03 0.  0.
</event>
<event>
 5    0  0.5670250E-005  0.3706604E+03  0.7546771E-02  0.1054441E+00
         21   -1    0    0  502  501  0.00000000000E+00  0.00000000000E+00  0.72108508955E+03  0.72108508955E+03  0.00000000000E+00 0. -1.
         21   -1    0    0  501  502 -0.00000000000E+00 -0.00000000000E+00 -0.19053109683E+03  0.19053109683E+03  0.00000000000E+00 0. -1.
         25    1    1    2    0    0  0.10044596669E+03 -0.11192493022E+03  0.27376822371E+03  0.33643814073E+03  0.12500000000E+03 0.  0.
         25    1    1    2    0    0  0.41910681619E+02 -0.16208233379E+02 -0.89507986304E+02  0.16017456626E+03  0.12500000000E+03 0.  0.
         25    1    1    2    0    0 -0.14235664831E+03  0.12813316360E+03  0.34629375532E+03  0.41500347939E+03  0.12500000000E+03 0.  0.
</event>
<event>
 5    0  0.5670250E-005  0.3235872E+03  0.7546771E-02  0.1074010E+00
         21   -1    0    0  502  501  0.00000000000E+00  0.00000000000E+00  0.59532956744E+03  0.59532956744E+03  0.00000000000E+00 0. -1.
         21   -1    0    0  501  502 -0.00000000000E+00 -0.00000000000E+00 -0.17588359704E+03  0.17588359704E+03  0.00000000000E+00 0. -1.
         25    1    1    2    0    0 -0.11658168518E+02 -0.97342735354E+02 -0.44027069706E+02  0.16484812370E+03  0.12500000000E+03 0.  0.
         25    1    1    2    0    0  0.43589083253E+01  0.11501590233E+03  0.44778626917E+03  0.47894175087E+03  0.12500000000E+03 0.  0.
         25    1    1    2    0    0  0.72992601929E+01 -0.17673166972E+02  0.15686770926E+02  0.12742328991E+03  0.12500000000E+03 0.  0.
</event>
<event>
 5    0  0.5670250E-005  0.2945052E+03  0.7546771E-02  0.1088020E+00
         21   -1    0    0  502  501  0.00000000000E+00  0.00000000000E+00  0.29516109998E+03  0.29516109998E+03  0.00000000000E+00 0. -1.
         21   -1    0    0  501  502 -0.00000000000E+00 -0.00000000000E+00 -0.29385082963E+03  0.29385082963E+03  0.00000000000E+00 0. -1.
         25    1    1    2    0    0 -0.10425450394E+03  0.90463755057E+02  0.15002105081E+03  0.23913178010E+03  0.12500000000E+03 0.  0.
         25    1    1    2    0    0 -0.67284036900E+01 -0.57380999897E+02 -0.10715402950E+03  0.17448448815E+03  0.12500000000E+03 0.  0.
         25    1    1    2    0    0  0.11098290763E+03 -0.33082755160E+02 -0.41556750951E+02  0.17539566136E+03  0.12500000000E+03 0.  0.
</event>
<event>
 5    0  0.5670250E-005  0.2373071E+03  0.7546771E-02  0.1121600E+00
         21   -1    0    0  502  501  0.00000000000E+00  0.00000000000E+00  0.13438324904E+03  0.13438324904E+03  0.00000000000E+00 0. -1.
         21   -1    0    0  501  502 -0.00000000000E+00 -0.00000000000E+00 -0.41906001447E+03  0.41906001447E+03  0.00000000000E+00 0. -1.
         25    1    1    2    0    0 -0.39956467243E+01 -0.89707623153E+01  0.27926918627E+02  0.12845759049E+03  0.12500000000E+03 0.  0.
         25    1    1    2    0    0 -0.30784434437E+02 -0.45452356451E+01 -0.63105155966E+02  0.14344197879E+03  0.12500000000E+03 0.  0.
         25    1    1    2    0    0  0.34780081161E+02  0.13515997960E+02 -0.24949852809E+03  0.28154369424E+03  0.12500000000E+03 0.  0.
</event>
<event>
 5    0  0.5670250E-005  0.3758178E+03  0.7546771E-02  0.1052490E+00
         21   -1    0    0  502  501  0.00000000000E+00  0.00000000000E+00  0.24578229684E+03  0.24578229684E+03  0.00000000000E+00 0. -1.
         21   -1    0    0  501  502 -0.00000000000E+00 -0.00000000000E+00 -0.57465078612E+03  0.57465078612E+03  0.00000000000E+00 0. -1.
         25    1    1    2    0    0 -0.90923477628E+02  0.16557026826E+03  0.14306737909E+02  0.22695875235E+03  0.12500000000E+03 0.  0.
         25    1    1    2    0    0  0.47847056149E+02 -0.20109982111E+03 -0.38128095271E+03  0.45136531073E+03  0.12500000000E+03 0.  0.
         25    1    1    2    0    0  0.43076421478E+02  0.35529552848E+02  0.38105725528E+02  0.14210901988E+03  0.12500000000E+03 0.  0.
</event>
<event>
 5    0  0.5670250E-005  0.2451765E+03  0.7546771E-02  0.1116392E+00
         21   -1    0    0  502  501  0.00000000000E+00  0.00000000000E+00  0.77360789314E+03  0.77360789314E+03  0.00000000000E+00 0.  1.
         21   -1    0    0  501  502 -0.00000000000E+00 -0.00000000000E+00 -0.77702819871E+02  0.77702819871E+02  0.00000000000E+00 0.  1.
         25    1    1    2    0    0 -0.43162733572E+02 -0.28075628679E+02  0.41427232021E+03  0.43577266756E+03  0.12500000000E+03 0.  0.
         25    1    1    2    0    0  0.65284977185E+02  0.81727426206E+02  0.11593507533E+03  0.20001860446E+03  0.12500000000E+03 0.  0.
         25    1    1    2    0    0 -0.22122243612E+02 -0.53651797527E+02  0.16569767772E+03  0.21551944099E+03  0.12500000000E+03 0.  0.
</event>
<event>
 5    0  0.5670250E-005  0.4250066E+03  0.7546771E-02  0.1035449E+00
         21   -1    0    0  502  501  0.00000000000E+00  0.00000000000E+00  0.19906965168E+03  0.19906965168E+03  0.00000000000E+00 0. -1.
         21   -1    0    0  501  502 -0.00000000000E+00 -0.00000000000E+00 -0.90737389241E+03  0.90737389241E+03  0.00000000000E+00 0. -1.
         25    1    1    2    0    0 -0.70488914739E+02  0.14957864596E+02 -0.28459972582E+03  0.31908373314E+03  0.12500000000E+03 0.  0.
         25    1    1    2    0    0  0.94971145292E+02  0.42977781885E+02 -0.56531283750E+03  0.58827732611E+03  0.12500000000E+03 0.  0.
         25    1    1    2    0    0 -0.24482230553E+02 -0.57935646481E+02  0.14160832258E+03  0.19908248484E+03  0.12500000000E+03 0.  0.
</event>
<event>
 5    0  0.5670250E-005  0.2511963E+03  0.7546771E-02  0.1112551E+00
         21   -1    0    0  502  501  0.00000000000E+00  0.00000000000E+00  0.80438177213E+03  0.80438177213E+03  0.00000000000E+00 0. -1.
         21   -1    0    0  501  502 -0.00000000000E+00 -0.00000000000E+00 -0.78444844794E+02  0.78444844794E+02  0.00000000000E+00 0. -1.
         25    1    1    2    0    0  0.15384746538E+03 -0.66057530819E+01  0.23086351242E+03  0.30436103552E+03  0.12500000000E+03 0.  0.
         25    1    1    2    0    0 -0.59504826612E+02  0.14337256014E+02  0.27542232439E+03  0.30859170124E+03  0.12500000000E+03 0.  0.
         25    1    1    2    0    0 -0.94342638765E+02 -0.77315029320E+01  0.21965109054E+03  0.26987388017E+03  0.12500000000E+03 0.  0.
</event>
<event>
 5    0  0.5670250E-005  0.2857611E+03  0.7546771E-02  0.1092583E+00
         21   -1    0    0  502  501  0.00000000000E+00  0.00000000000E+00  0.10516107814E+03  0.10516107814E+03  0.00000000000E+00 0.  1.
         21   -1    0    0  501  502 -0.00000000000E+00 -0.00000000000E+00 -0.77651746281E+03  0.77651746281E+03  0.00000000000E+00 0.  1.
         25    1    1    2    0    0 -0.54676156048E+02  0.16558631522E+03 -0.36178664800E+03  0.42062202570E+03  0.12500000000E+03 0.  0.
         25    1    1    2    0    0  0.28859871346E+02  0.52772632442E+01 -0.11686998874E+03  0.17362124280E+03  0.12500000000E+03 0.  0.
         25    1    1    2    0    0  0.25816284702E+02 -0.17086357846E+03 -0.19269974793E+03  0.28743527245E+03  0.12500000000E+03 0.  0.
</event>
<event>
 5    0  0.5670250E-005  0.3408481E+03  0.7546771E-02  0.1066435E+00
         21   -1    0    0  502  501  0.00000000000E+00  0.00000000000E+00  0.65177998367E+03  0.65177998367E+03  0.00000000000E+00 0.  1.
         21   -1    0    0  501  502 -0.00000000000E+00 -0.00000000000E+00 -0.17824641827E+03  0.17824641827E+03  0.00000000000E+00 0.  1.
         25    1    1    2    0    0  0.52985851009E+01 -0.16083304126E+02  0.18551099643E+03  0.22433474424E+03  0.12500000000E+03 0.  0.
         25    1    1    2    0    0 -0.76765878145E+01  0.11911015089E+03  0.38137933278E+03  0.41871392802E+03  0.12500000000E+03 0.  0.
         25    1    1    2    0    0  0.23780027137E+01 -0.10302684676E+03 -0.93356763810E+02  0.18697772969E+03  0.12500000000E+03 0.  0.
</event>
<event>
 5    0  0.5670250E-005  0.4582135E+03  0.7546771E-02  0.1025301E+00
         21   -1    0    0  502  501  0.00000000000E+00  0.00000000000E+00  0.61242651763E+03  0.61242651763E+03  0.00000000000E+00 0. -1.
         21   -1    0    0  501  502 -0.00000000000E+00 -0.00000000000E+00 -0.34283237325E+03  0.34283237325E+03  0.00000000000E+00 0. -1.
         25    1    1    2    0    0 -0.22948213560E+03  0.13874784280E+03 -0.14244473121E+03  0.32837252609E+03  0.12500000000E+03 0.  0.
         25    1    1    2    0    0  0.25826930904E+03 -0.89874290494E+02  0.38240698094E+03  0.48645711338E+03  0.12500000000E+03 0.  0.
         25    1    1    2    0    0 -0.28787173446E+02 -0.48873552311E+02  0.29631894650E+02  0.14042925141E+03  0.12500000000E+03 0.  0.
</event>
<event>
 5    0  0.5670250E-005  0.4011434E+03  0.7546771E-02  0.1043384E+00
         21   -1    0    0  502  501  0.00000000000E+00  0.00000000000E+00  0.18212499223E+03  0.18212499223E+03  0.00000000000E+00 0.  1.
         21   -1    0    0  501  502 -0.00000000000E+00 -0.00000000000E+00 -0.88354719727E+03  0.88354719727E+03  0.00000000000E+00 0.  1.
         25    1    1    2    0    0 -0.11048915632E+02 -0.45301849427E+02 -0.52456096268E+03  0.54126106424E+03  0.12500000000E+03 0.  0.
         25    1    1    2    0    0 -0.67672969729E+02  0.14922671576E+03  0.70775183826E+02  0.21790449783E+03  0.12500000000E+03 0.  0.
         25    1    1    2    0    0  0.78721885361E+02 -0.10392486634E+03 -0.24763642619E+03  0.30650662742E+03  0.12500000000E+03 0.  0.
</event>
<event>
 5    0  0.5670250E-005  0.3022503E+03  0.7546771E-02  0.1084121E+00
         21   -1    0    0  502  501  0.00000000000E+00  0.00000000000E+00  0.12980430183E+04  0.12980430183E+04  0.00000000000E+00 0. -1.
         21   -1    0    0  501  502 -0.00000000000E+00 -0.00000000000E+00 -0.70379200976E+02  0.70379200976E+02  0.00000000000E+00 0. -1.
         25    1    1    2    0    0 -0.16697665223E+03 -0.84073282404E+02  0.47165751025E+03  0.52252782335E+03  0.12500000000E+03 0.  0.
         25    1    1    2    0    0  0.14683448343E+03  0.11554851448E+03  0.60992246616E+03  0.65003249107E+03  0.12500000000E+03 0.  0.
         25    1    1    2    0    0  0.20142168800E+02 -0.31475232076E+02  0.14608384095E+03  0.19586190488E+03  0.12500000000E+03 0.  0.
</event>
<event>
 5    0  0.5670250E-005  0.5066572E+03  0.7546771E-02  0.1012056E+00
         21   -1    0    0  502  501  0.00000000000E+00  0.00000000000E+00  0.18369586533E+03  0.18369586533E+03  0.00000000000E+00 0.  1.
         21   -1    0    0  501  502 -0.00000000000E+00 -0.00000000000E+00 -0.13974267240E+04  0.13974267240E+04  0.00000000000E+00 0.  1.
         25    1    1    2    0    0  0.50279638279E+02 -0.93412599467E+02 -0.35525272002E+03  0.39125880290E+03  0.12500000000E+03 0.  0.
         25    1    1    2    0    0 -0.85088719062E+02  0.35872470763E+03 -0.79871574835E+03  0.88853551006E+03  0.12500000000E+03 0.  0.
         25    1    1    2    0    0  0.34809080783E+02 -0.26531210816E+03 -0.59762390304E+02  0.30132827637E+03  0.12500000000E+03 0.  0.
</event>
<event>
 5    0  0.5670250E-005  0.2278130E+03  0.7546771E-02  0.1128189E+00
         21   -1    0    0  502  501  0.00000000000E+00  0.00000000000E+00  0.45859121302E+02  0.45859121302E+02  0.00000000000E+00 0. -1.
         21   -1    0    0  501  502 -0.00000000000E+00 -0.00000000000E+00 -0.11316998602E+04  0.11316998602E+04  0.00000000000E+00 0. -1.
         25    1    1    2    0    0  0.19842701224E+02 -0.20254322659E+02 -0.52262529342E+03  0.53811352678E+03  0.12500000000E+03 0.  0.
         25    1    1    2    0    0 -0.80858528983E+02  0.42855573290E+02 -0.36234324903E+03  0.39407148081E+03  0.12500000000E+03 0.  0.
         25    1    1    2    0    0  0.61015827760E+02 -0.22601250632E+02 -0.20087219643E+03  0.24537397390E+03  0.12500000000E+03 0.  0.
</event>
<event>
 5    0  0.5670250E-005  0.2419972E+03  0.7546771E-02  0.1118469E+00
         21   -1    0    0  502  501  0.00000000000E+00  0.00000000000E+00  0.26124570303E+03  0.26124570303E+03  0.00000000000E+00 0. -1.
         21   -1    0    0  501  502 -0.00000000000E+00 -0.00000000000E+00 -0.22416690053E+03  0.22416690053E+03  0.00000000000E+00 0. -1.
         25    1    1    2    0    0  0.98167694682E+02 -0.58785420869E+02 -0.16243560167E+02  0.17023946438E+03  0.12500000000E+03 0.  0.
         25    1    1    2    0    0  0.91380038373E+01  0.67805558718E+02  0.47051697968E+02  0.15006651588E+03  0.12500000000E+03 0.  0.
         25    1    1    2    0    0 -0.10730569852E+03 -0.90201378494E+01  0.62706646920E+01  0.16510662330E+03  0.12500000000E+03 0.  0.
</event>
<event>
 5    0  0.5670250E-005  0.2711815E+03  0.7546771E-02  0.1100605E+00
         21   -1    0    0  502  501  0.00000000000E+00  0.00000000000E+00  0.10329179518E+04  0.10329179518E+04  0.00000000000E+00 0. -1.
         21   -1    0    0  501  502 -0.00000000000E+00 -0.00000000000E+00 -0.71195800196E+02  0.71195800196E+02  0.00000000000E+00 0. -1.
         25    1    1    2    0    0  0.30499480371E+02 -0.21958300501E+02  0.23129045796E+03  0.26557985843E+03  0.12500000000E+03 0.  0.
         25    1    1    2    0    0  0.97891461745E+02  0.37346579612E+02  0.58478838434E+03  0.60710786500E+03  0.12500000000E+03 0.  0.
         25    1    1    2    0    0 -0.12839094212E+03 -0.15388279110E+02  0.14564330933E+03  0.23142602858E+03  0.12500000000E+03 0.  0.
</event>
<event>
 5    0  0.5670250E-005  0.2523311E+03  0.7546771E-02  0.1111840E+00
         21   -1    0    0  502  501  0.00000000000E+00  0.00000000000E+00  0.56660611637E+02  0.56660611637E+02  0.00000000000E+00 0. -1.
         21   -1    0    0  501  502 -0.00000000000E+00 -0.00000000000E+00 -0.11237257390E+04  0.11237257390E+04  0.00000000000E+00 0. -1.
         25    1    1    2    0    0 -0.66429824105E+02 -0.16001344102E+01 -0.43377171277E+03  0.45628760750E+03  0.12500000000E+03 0.  0.
         25    1    1    2    0    0  0.11520978332E+03  0.66049006120E+02 -0.22570218780E+03  0.29017622742E+03  0.12500000000E+03 0.  0.
         25    1    1    2    0    0 -0.48779959211E+02 -0.64448871710E+02 -0.40759122675E+03  0.43392251567E+03  0.12500000000E+03 0.  0.
</event>
<event>
 5    0  0.5670250E-005  0.3977188E+03  0.7546771E-02  0.1044572E+00
         21   -1    0    0  502  501  0.00000000000E+00  0.00000000000E+00  0.64550983985E+03  0.64550983985E+03  0.00000000000E+00 0.  1.
         21   -1    0    0  501  502 -0.00000000000E+00 -0.00000000000E+00 -0.24504703024E+03  0.24504703024E+03  0.00000000000E+00 0.  1.
         25    1    1    2    0    0  0.35182937883E+02 -0.31704310038E+02  0.57970910600E+02  0.14570047656E+03  0.12500000000E+03 0.  0.
         25    1    1    2    0    0 -0.20557415361E+03  0.16683597147E+03 -0.31570781759E+02  0.29447697409E+03  0.12500000000E+03 0.  0.
         25    1    1    2    0    0  0.17039121572E+03 -0.13513166143E+03  0.37406268077E+03  0.45037941945E+03  0.12500000000E+03 0.  0.
</event>
<event>
 5    0  0.5670250E-005  0.3665290E+03  0.7546771E-02  0.1056028E+00
         21   -1    0    0  502  501  0.00000000000E+00  0.00000000000E+00  0.42890267943E+03  0.42890267943E+03  0.00000000000E+00 0.  1.
         21   -1    0    0  501  502 -0.00000000000E+00 -0.00000000000E+00 -0.31322614945E+03  0.31322614945E+03  0.00000000000E+00 0.  1.
         25    1    1    2    0    0 -0.48621281537E+02  0.12359566689E+03 -0.15530764272E+03  0.23955246144E+03  0.12500000000E+03 0.  0.
         25    1    1    2    0    0 -0.84950934422E+02 -0.13581455325E+03  0.24356274518E+03  0.31719089674E+03  0.12500000000E+03 0.  0.
         25    1    1    2    0    0  0.13357221596E+03  0.12218886359E+02  0.27421427530E+02  0.18538547070E+03  0.12500000000E+03 0.  0.
</event>
<event>
 5    0  0.5670250E-005  0.2925089E+03  0.7546771E-02  0.1089046E+00
         21   -1    0    0  502  501  0.00000000000E+00  0.00000000000E+00  0.46225502688E+03  0.46225502688E+03  0.00000000000E+00 0. -1.
         21   -1    0    0  501  502 -0.00000000000E+00 -0.00000000000E+00 -0.18509575462E+03  0.18509575462E+03  0.00000000000E+00 0. -1.
         25    1    1    2    0    0 -0.74723064130E+02  0.61029265978E+02  0.30289143812E+03  0.34157917224E+03  0.12500000000E+03 0.  0.
         25    1    1    2    0    0  0.10159013303E+03 -0.51964624297E+02 -0.47432882661E+02  0.17577188531E+03  0.12500000000E+03 0.  0.
         25    1    1    2    0    0 -0.26867068901E+02 -0.90646416812E+01  0.21700716796E+02  0.12999972396E+03  0.12500000000E+03 0.  0.
</event>
<event>
 5    0  0.5670250E-005  0.3990764E+03  0.7546771E-02  0.1044100E+00
         21   -1    0    0  502  501  0.00000000000E+00  0.00000000000E+00  0.13557859416E+03  0.13557859416E+03  0.00000000000E+00 0.  1.
         21   -1    0    0  501  502 -0.00000000000E+00 -0.00000000000E+00 -0.11746837380E+04  0.11746837380E+04  0.00000000000E+00 0.  1.
         25    1    1    2    0    0  0.64869143304E+02 -0.15528215554E+03 -0.43834927367E+03  0.48589673729E+03  0.12500000000E+03 0.  0.
         25    1    1    2    0    0 -0.17758865638E+03 -0.50811112426E+02 -0.75347629838E+02  0.23541827742E+03  0.12500000000E+03 0.  0.
         25    1    1    2    0    0  0.11271951307E+03  0.20609326797E+03 -0.52540824030E+03  0.58894731742E+03  0.12500000000E+03 0.  0.
</event>
<event>
 5    0  0.5836252E-005  0.3175955E+03  0.7546771E-02  0.1076761E+00
         21   -1    0    0  502  501  0.00000000000E+00  0.00000000000E+00  0.33186950857E+03  0.33186950857E+03  0.00000000000E+00 0.  1.
         21   -1    0    0  501  502 -0.00000000000E+00 -0.00000000000E+00 -0.30393541380E+03  0.30393541380E+03  0.00000000000E+00 0.  1.
         25    1    1    2    0    0  0.77690307364E+02 -0.10675756916E+03  0.17683803722E+03  0.25363291158E+03  0.12500000000E+03 0.  0.
         25    1    1    2    0    0 -0.13653028354E+03  0.29128015691E+02 -0.45129746406E+02  0.19274504827E+03  0.12500000000E+03 0.  0.
         25    1    1    2    0    0  0.58839976178E+02  0.77629553465E+02 -0.10377419604E+03  0.18942696252E+03  0.12500000000E+03 0.  0.
</event>
<event>
 5    0  0.5670250E-005  0.4235164E+03  0.7546771E-02  0.1035928E+00
         21   -1    0    0  502  501  0.00000000000E+00  0.00000000000E+00  0.10149782426E+04  0.10149782426E+04  0.00000000000E+00 0.  1.
         21   -1    0    0  501  502 -0.00000000000E+00 -0.00000000000E+00 -0.17671916066E+03  0.17671916066E+03  0.00000000000E+00 0.  1.
         25    1    1    2    0    0 -0.25005949688E+03 -0.16322142474E+03  0.60992243572E+03  0.69050804707E+03  0.12500000000E+03 0.  0.
         25    1    1    2    0    0  0.77359478081E+02  0.11783694199E+03  0.40623636642E+01  0.18844504914E+03  0.12500000000E+03 0.  0.
         25    1    1    2    0    0  0.17270001880E+03  0.45384482754E+02  0.22427428251E+03  0.31274430700E+03  0.12500000000E+03 0.  0.
</event>
<event>
 5    0  0.5670250E-005  0.2548872E+03  0.7546771E-02  0.1110255E+00
         21   -1    0    0  502  501  0.00000000000E+00  0.00000000000E+00  0.64835852770E+03  0.64835852770E+03  0.00000000000E+00 0.  1.
         21   -1    0    0  501  502 -0.00000000000E+00 -0.00000000000E+00 -0.10020301301E+03  0.10020301301E+03  0.00000000000E+00 0.  1.
         25    1    1    2    0    0  0.87223965268E+02  0.70900829240E+02  0.10492522147E+03  0.19816470373E+03  0.12500000000E+03 0.  0.
         25    1    1    2    0    0 -0.10198424031E+03 -0.10706835925E+03  0.29175502407E+03  0.35015769717E+03  0.12500000000E+03 0.  0.
         25    1    1    2    0    0  0.14760275037E+02  0.36167530011E+02  0.15147526914E+03  0.20023913980E+03  0.12500000000E+03 0.  0.
</event>
<event>
 5    0  0.5670250E-005  0.2587532E+03  0.7546771E-02  0.1107895E+00
         21   -1    0    0  502  501  0.00000000000E+00  0.00000000000E+00  0.89676170569E+02  0.89676170569E+02  0.00000000000E+00 0.  1.
         21   -1    0    0  501  502 -0.00000000000E+00 -0.00000000000E+00 -0.74661128224E+03  0.74661128224E+03  0.00000000000E+00 0.  1.
         25    1    1    2    0    0 -0.11957374296E+03  0.10534397607E+03 -0.33571896909E+03  0.39208093489E+03  0.12500000000E+03 0.  0.
         25    1    1    2    0    0  0.57005858235E+02 -0.79230048649E+02 -0.21275530716E+03  0.26536180811E+03  0.12500000000E+03 0.  0.
         25    1    1    2    0    0  0.62567884723E+02 -0.26113927422E+02 -0.10846083543E+03  0.17884470981E+03  0.12500000000E+03 0.  0.
</event>
<event>
 5    0  0.5670250E-005  0.3660276E+03  0.7546771E-02  0.1056222E+00
         21   -1    0    0  502  501  0.00000000000E+00  0.00000000000E+00  0.45512783036E+03  0.45512783036E+03  0.00000000000E+00 0.  1.
         21   -1    0    0  501  502 -0.00000000000E+00 -0.00000000000E+00 -0.29437050459E+03  0.29437050459E+03  0.00000000000E+00 0.  1.
         25    1    1    2    0    0  0.82465095989E+02  0.19275605405E+03  0.85400214855E+02  0.25859927518E+03  0.12500000000E+03 0.  0.
         25    1    1    2    0    0  0.80998145556E+02 -0.37356574344E+02 -0.96175670206E+02  0.18119319184E+03  0.12500000000E+03 0.  0.
         25    1    1    2    0    0 -0.16346324155E+03 -0.15539947970E+03  0.17153278112E+03  0.30970586792E+03  0.12500000000E+03 0.  0.
</event>
<event>
 5    0  0.5670250E-005  0.2478049E+03  0.7546771E-02  0.1114700E+00
         21   -1    0    0  502  501  0.00000000000E+00  0.00000000000E+00  0.21407886674E+03  0.21407886674E+03  0.00000000000E+00 0. -1.
         21   -1    0    0  501  502 -0.00000000000E+00 -0.00000000000E+00 -0.28684403693E+03  0.28684403693E+03  0.00000000000E+00 0. -1.
         25    1    1    2    0    0  0.11143578329E+02  0.25564164844E+02  0.64364028561E+02  0.14333678535E+03  0.12500000000E+03 0.  0.
         25    1    1    2    0    0 -0.10177289142E+03 -0.26712914750E+01 -0.20020014701E+02  0.16245201819E+03  0.12500000000E+03 0.  0.
         25    1    1    2    0    0  0.90629313094E+02 -0.22892873369E+02 -0.11710918406E+03  0.19513410013E+03  0.12500000000E+03 0.  0.
</event>
<event>
 5    0  0.5670250E-005  0.2508934E+03  0.7546771E-02  0.1112742E+00
         21   -1    0    0  502  501  0.00000000000E+00  0.00000000000E+00  0.63602009066E+03  0.63602009066E+03  0.00000000000E+00 0.  1.
         21   -1    0    0  501  502 -0.00000000000E+00 -0.00000000000E+00 -0.98970915408E+02  0.98970915408E+02  0.00000000000E+00 0.  1.
         25    1    1    2    0    0  0.68028626890E+02 -0.73412694030E+00  0.31232795210E+03  0.34322322573E+03  0.12500000000E+03 0.  0.
         25    1    1    2    0    0  0.39394270712E+02  0.31097176370E+02  0.36107445537E+02  0.13945497684E+03  0.12500000000E+03 0.  0.
         25    1    1    2    0    0 -0.10742289760E+03 -0.30363049429E+02  0.18861377761E+03  0.25231280349E+03  0.12500000000E+03 0.  0.
</event>
<event>
 5    0  0.5670250E-005  0.2103273E+03  0.7546771E-02  0.1141307E+00
         21   -1    0    0  502  501  0.00000000000E+00  0.00000000000E+00  0.68835726360E+02  0.68835726360E+02  0.00000000000E+00 0. -1.
         21   -1    0    0  501  502 -0.00000000000E+00 -0.00000000000E+00 -0.64265416651E+03  0.64265416651E+03  0.00000000000E+00 0. -1.
         25    1    1    2    0    0  0.12015008228E+02 -0.58943620823E+02 -0.26168679897E+03  0.29618185565E+03  0.12500000000E+03 0.  0.
         25    1    1    2    0    0  0.29276120572E+02  0.47926516205E+02 -0.12004894235E+03  0.18218339867E+03  0.12500000000E+03 0.  0.
         25    1    1    2    0    0 -0.41291128800E+02  0.11017104618E+02 -0.19208269883E+03  0.23312463856E+03  0.12500000000E+03 0.  0.
</event>
<event>
 5    0  0.5670250E-005  0.2627410E+03  0.7546771E-02  0.1105507E+00
         21   -1    0    0  502  501  0.00000000000E+00  0.00000000000E+00  0.40172111297E+02  0.40172111297E+02  0.00000000000E+00 0.  1.
         21   -1    0    0  501  502 -0.00000000000E+00 -0.00000000000E+00 -0.17184274232E+04  0.17184274232E+04  0.00000000000E+00 0.  1.
         25    1    1    2    0    0  0.24185662791E+02  0.26193243509E+00 -0.41356949064E+03  0.43272362829E+03  0.12500000000E+03 0.  0.
         25    1    1    2    0    0  0.66965939877E+02  0.90372765308E+02 -0.29333532658E+03  0.33811579027E+03  0.12500000000E+03 0.  0.
         25    1    1    2    0    0 -0.91151602668E+02 -0.90634697743E+02 -0.97135049471E+03  0.98776011596E+03  0.12500000000E+03 0.  0.
</event>
<event>
 5    0  0.5670250E-005  0.2428133E+03  0.7546771E-02  0.1117933E+00
         21   -1    0    0  502  501  0.00000000000E+00  0.00000000000E+00  0.43780501324E+03  0.43780501324E+03  0.00000000000E+00 0.  1.
         21   -1    0    0  501  502 -0.00000000000E+00 -0.00000000000E+00 -0.13466799167E+03  0.13466799167E+03  0.00000000000E+00 0.  1.
         25    1    1    2    0    0  0.11811638439E+02 -0.11287892403E+03  0.14028667533E+03  0.21951427646E+03  0.12500000000E+03 0.  0.
         25    1    1    2    0    0  0.51646871711E+01 -0.23174069691E+02  0.57813246769E+02  0.13975365112E+03  0.12500000000E+03 0.  0.
         25    1    1    2    0    0 -0.16976325610E+02  0.13605299372E+03  0.10503709947E+03  0.21320507733E+03  0.12500000000E+03 0.  0.
</event>
<event>
 5    0  0.5670250E-005  0.2609098E+03  0.7546771E-02  0.1106598E+00
         21   -1    0    0  502  501  0.00000000000E+00  0.00000000000E+00  0.20937417142E+04  0.20937417142E+04  0.00000000000E+00 0. -1.
         21   -1    0    0  501  502 -0.00000000000E+00 -0.00000000000E+00 -0.32513053723E+02  0.32513053723E+02  0.00000000000E+00 0. -1.
         25    1    1    2    0    0  0.13792451903E+03  0.31090391809E+02  0.59470997404E+03  0.62393488333E+03  0.12500000000E+03 0.  0.
         25    1    1    2    0    0 -0.98608740513E+02  0.42131550619E+02  0.96009303523E+03  0.97411620845E+03  0.12500000000E+03 0.  0.
         25    1    1    2    0    0 -0.39315778520E+02 -0.73221942428E+02  0.50642565121E+03  0.52820367615E+03  0.12500000000E+03 0.  0.
</event>
<event>
 5    0  0.5670250E-005  0.3297363E+03  0.7546771E-02  0.1071254E+00
         21   -1    0    0  502  501  0.00000000000E+00  0.00000000000E+00  0.90027537457E+02  0.90027537457E+02  0.00000000000E+00 0.  1.
         21   -1    0    0  501  502 -0.00000000000E+00 -0.00000000000E+00 -0.12076972054E+04  0.12076972054E+04  0.00000000000E+00 0.  1.
         25    1    1    2    0    0 -0.65514792831E+02 -0.11033760228E+03 -0.36218736450E+03  0.40406838723E+03  0.12500000000E+03 0.  0.
         25    1    1    2    0    0  0.17907085920E+03  0.11315161527E+03 -0.64886976464E+03  0.69392120022E+03  0.12500000000E+03 0.  0.
         25    1    1    2    0    0 -0.11355606637E+03 -0.28140129879E+01 -0.10661253883E+03  0.19973515543E+03  0.12500000000E+03 0.  0.
</event>
<event>
 5    0  0.5670250E-005  0.6949207E+03  0.7546771E-02  0.9725958E-01
         21   -1    0    0  502  501  0.00000000000E+00  0.00000000000E+00  0.66767600097E+03  0.66767600097E+03  0.00000000000E+00 0.  1.
         21   -1    0    0  501  502 -0.00000000000E+00 -0.00000000000E+00 -0.72327713658E+03  0.72327713658E+03  0.00000000000E+00 0.  1.
         25    1    1    2    0    0  0.60651667244E+03  0.64461370138E+02  0.10384230408E+03  0.63120992253E+03  0.12500000000E+03 0.  0.
         25    1    1    2    0    0 -0.47880282079E+03 -0.92933673936E+02 -0.24457380823E+03  0.55975901656E+03  0.12500000000E+03 0.  0.
         25    1    1    2    0    0 -0.12771385165E+03  0.28472303798E+02  0.85130368533E+02  0.19998419846E+03  0.12500000000E+03 0.  0.
</event>
<event>
 5    0  0.5670250E-005  0.2647264E+03  0.7546771E-02  0.1104336E+00
         21   -1    0    0  502  501  0.00000000000E+00  0.00000000000E+00  0.17247906528E+03  0.17247906528E+03  0.00000000000E+00 0. -1.
         21   -1    0    0  501  502 -0.00000000000E+00 -0.00000000000E+00 -0.40631052107E+03  0.40631052107E+03  0.00000000000E+00 0. -1.
         25    1    1    2    0    0  0.12970492491E+03  0.17542659758E+02 -0.18969782750E+03  0.26218577043E+03  0.12500000000E+03 0.  0.
         25    1    1    2    0    0 -0.72932634055E+02  0.31721678302E+01 -0.89915164534E+02  0.17040824092E+03  0.12500000000E+03 0.  0.
         25    1    1    2    0    0 -0.56772290854E+02 -0.20714827588E+02  0.45781536241E+02  0.14619557501E+03  0.12500000000E+03 0.  0.
</event>
<event>
 5    0  0.5670250E-005  0.2780493E+03  0.7546771E-02  0.1096759E+00
         21   -1    0    0  502  501  0.00000000000E+00  0.00000000000E+00  0.53943452301E+02  0.53943452301E+02  0.00000000000E+00 0. -1.
         21   -1    0    0  501  502 -0.00000000000E+00 -0.00000000000E+00 -0.14331931934E+04  0.14331931934E+04  0.00000000000E+00 0. -1.
         25    1    1    2    0    0 -0.10511309502E+03 -0.33696349409E+02 -0.34503882591E+03  0.38322447481E+03  0.12500000000E+03 0.  0.
         25    1    1    2    0    0  0.10683928476E+03 -0.27492904586E+02 -0.88216527572E+03  0.89778119064E+03  0.12500000000E+03 0.  0.
         25    1    1    2    0    0 -0.17261897452E+01  0.61189253995E+02 -0.15204563943E+03  0.20613098022E+03  0.12500000000E+03 0.  0.
</event>
<event>
 5    0  0.5670250E-005  0.2864093E+03  0.7546771E-02  0.1092239E+00
         21   -1    0    0  502  501  0.00000000000E+00  0.00000000000E+00  0.67168376690E+02  0.67168376690E+02  0.00000000000E+00 0. -1.
         21   -1    0    0  501  502 -0.00000000000E+00 -0.00000000000E+00 -0.12212631550E+04  0.12212631550E+04  0.00000000000E+00 0. -1.
         25    1    1    2    0    0 -0.11450179389E+03 -0.93686300301E+01 -0.78941373199E+03  0.80746360431E+03  0.12500000000E+03 0.  0.
         25    1    1    2    0    0  0.87543541167E+02 -0.59103069122E+02 -0.15078248013E+03  0.22252505633E+03  0.12500000000E+03 0.  0.
         25    1    1    2    0    0  0.26958252724E+02  0.68471699152E+02 -0.21389856615E+03  0.25844287101E+03  0.12500000000E+03 0.  0.
</event>
<event>
 5    0  0.5670250E-005  0.2674009E+03  0.7546771E-02  0.1102776E+00
         21   -1    0    0  502  501  0.00000000000E+00  0.00000000000E+00  0.86514706305E+03  0.86514706305E+03  0.00000000000E+00 0. -1.
         21   -1    0    0  501  502 -0.00000000000E+00 -0.00000000000E+00 -0.82648683166E+02  0.82648683166E+02  0.00000000000E+00 0. -1.
         25    1    1    2    0    0  0.15409921198E+02  0.12959017668E+03  0.31829388073E+03  0.36601512821E+03  0.12500000000E+03 0.  0.
         25    1    1    2    0    0  0.85343576302E+02 -0.62774004633E+02  0.30394081193E+03  0.34529569767E+03  0.12500000000E+03 0.  0.
         25    1    1    2    0    0 -0.10075349750E+03 -0.66816172050E+02  0.16026368722E+03  0.23648492034E+03  0.12500000000E+03 0.  0.
</event>
<event>
 5    0  0.5670250E-005  0.2926979E+03  0.7546771E-02  0.1088949E+00
         21   -1    0    0  502  501  0.00000000000E+00  0.00000000000E+00  0.14393668137E+03  0.14393668137E+03  0.00000000000E+00 0.  1.
         21   -1    0    0  501  502 -0.00000000000E+00 -0.00000000000E+00 -0.59520659227E+03  0.59520659227E+03  0.00000000000E+00 0.  1.
         25    1    1    2    0    0 -0.57088319987E+02  0.36904727940E+02 -0.19131080043E+03  0.23842369342E+03  0.12500000000E+03 0.  0.
         25    1    1    2    0    0 -0.77974845333E+02 -0.15080763367E+03 -0.14254815422E+03  0.25449557000E+03  0.12500000000E+03 0.  0.
         25    1    1    2    0    0  0.13506316532E+03  0.11390290573E+03 -0.11741095624E+03  0.24622401021E+03  0.12500000000E+03 0.  0.
</event>
<event>
 5    0  0.5670250E-005  0.2870817E+03  0.7546771E-02  0.1091883E+00
         21   -1    0    0  502  501  0.00000000000E+00  0.00000000000E+00  0.21959931757E+03  0.21959931757E+03  0.00000000000E+00 0.  1.
         21   -1    0    0  501  502 -0.00000000000E+00 -0.00000000000E+00 -0.37530134089E+03  0.37530134089E+03  0.00000000000E+00 0.  1.
         25    1    1    2    0    0 -0.82930615742E+02 -0.35029003832E+02  0.90242520886E+02  0.17853075565E+03  0.12500000000E+03 0.  0.
         25    1    1    2    0    0  0.53781748969E+02  0.75493579569E+02 -0.24925637341E+02  0.15760090252E+03  0.12500000000E+03 0.  0.
         25    1    1    2    0    0  0.29148866773E+02 -0.40464575737E+02 -0.22101890686E+03  0.25876900030E+03  0.12500000000E+03 0.  0.
</event>
<event>
 5    0  0.6362281E-005  0.4384590E+03  0.7546771E-02  0.1031221E+00
         21   -1    0    0  502  501  0.00000000000E+00  0.00000000000E+00  0.24307805859E+03  0.24307805859E+03  0.00000000000E+00 0. -1.
         21   -1    0    0  501  502 -0.00000000000E+00 -0.00000000000E+00 -0.79088287762E+03  0.79088287762E+03  0.00000000000E+00 0. -1.
         25    1    1    2    0    0 -0.20089505569E+03 -0.20834670012E+02 -0.26136214009E+03  0.35316862141E+03  0.12500000000E+03 0.  0.
         25    1    1    2    0    0  0.13355759526E+03 -0.23347664424E+03 -0.24874247924E+03  0.38710049811E+03  0.12500000000E+03 0.  0.
         25    1    1    2    0    0  0.67337460429E+02  0.25431131425E+03 -0.37700199700E+02  0.29369181669E+03  0.12500000000E+03 0.  0.
</event>
<event>
 5    0  0.5670250E-005  0.3570739E+03  0.7546771E-02  0.1059749E+00
         21   -1    0    0  502  501  0.00000000000E+00  0.00000000000E+00  0.14738142017E+04  0.14738142017E+04  0.00000000000E+00 0.  1.
         21   -1    0    0  501  502 -0.00000000000E+00 -0.00000000000E+00 -0.86511406088E+02  0.86511406088E+02  0.00000000000E+00 0.  1.
         25    1    1    2    0    0  0.62729744515E+02 -0.56097330630E+02  0.12210882105E+03  0.19395230220E+03  0.12500000000E+03 0.  0.
         25    1    1    2    0    0 -0.20438374845E+03  0.15309512955E+03  0.90089328243E+03  0.94469282926E+03  0.12500000000E+03 0.  0.
         25    1    1    2    0    0  0.14165400394E+03 -0.96997798916E+02  0.36430069211E+03  0.42168047630E+03  0.12500000000E+03 0.  0.
</event>
<event>
 5    0  0.5670250E-005  0.2611535E+03  0.7546771E-02  0.1106452E+00
         21   -1    0    0  502  501  0.00000000000E+00  0.00000000000E+00  0.99147155445E+03  0.99147155445E+03  0.00000000000E+00 0. -1.
         21   -1    0    0  501  502 -0.00000000000E+00 -0.00000000000E+00 -0.68787809985E+02  0.68787809985E+02  0.00000000000E+00 0. -1.
         25    1    1    2    0    0  0.10002374868E+02  0.13846114793E+03  0.21896073463E+03  0.28781997898E+03  0.12500000000E+03 0.  0.
         25    1    1    2    0    0  0.44654264137E+02 -0.59811895368E+02  0.45803127743E+03  0.48061327202E+03  0.12500000000E+03 0.  0.
         25    1    1    2    0    0 -0.54656639005E+02 -0.78649252559E+02  0.24569173240E+03  0.29182611344E+03  0.12500000000E+03 0.  0.
</event>
<event>
 5    0  0.5670250E-005  0.2659208E+03  0.7546771E-02  0.1103637E+00
         21   -1    0    0  502  501  0.00000000000E+00  0.00000000000E+00  0.45618885228E+03  0.45618885228E+03  0.00000000000E+00 0. -1.
         21   -1    0    0  501  502 -0.00000000000E+00 -0.00000000000E+00 -0.15501003081E+03  0.15501003081E+03  0.00000000000E+00 0. -1.
         25    1    1    2    0    0 -0.36104597584E+02 -0.71918378126E+02  0.96092278423E+02  0.17701559550E+03  0.12500000000E+03 0.  0.
         25    1    1    2    0    0  0.60372547976E+02  0.85545422732E+02  0.24999888449E+03  0.29847496737E+03  0.12500000000E+03 0.  0.
         25    1    1    2    0    0 -0.24267950391E+02 -0.13627044606E+02 -0.44912341440E+02  0.13570832021E+03  0.12500000000E+03 0.  0.
</event>
<event>
 5    0  0.5670250E-005  0.2877534E+03  0.7546771E-02  0.1091528E+00
         21   -1    0    0  502  501  0.00000000000E+00  0.00000000000E+00  0.30617942538E+03  0.30617942538E+03  0.00000000000E+00 0.  1.
         21   -1    0    0  501  502 -0.00000000000E+00 -0.00000000000E+00 -0.27043633581E+03  0.27043633581E+03  0.00000000000E+00 0.  1.
         25    1    1    2    0    0 -0.51365298784E+02 -0.73302320509E+02 -0.88662782457E+02  0.17747595078E+03  0.12500000000E+03 0.  0.
         25    1    1    2    0    0  0.75825945998E+02 -0.66699948763E+02  0.13456137648E+03  0.20959537517E+03  0.12500000000E+03 0.  0.
         25    1    1    2    0    0 -0.24460647214E+02  0.14000226927E+03 -0.10155504445E+02  0.18954443525E+03  0.12500000000E+03 0.  0.
</event>
<event>
 5    0  0.5670250E-005  0.2906391E+03  0.7546771E-02  0.1090016E+00
         21   -1    0    0  502  501  0.00000000000E+00  0.00000000000E+00  0.26811486735E+03  0.26811486735E+03  0.00000000000E+00 0. -1.
         21   -1    0    0  501  502 -0.00000000000E+00 -0.00000000000E+00 -0.31505564596E+03  0.31505564596E+03  0.00000000000E+00 0. -1.
         25    1    1    2    0    0  0.43555006524E+02  0.13666264665E+03 -0.12422763775E+03  0.22722505048E+03  0.12500000000E+03 0.  0.
         25    1    1    2    0    0 -0.40168781328E+02 -0.42328905574E+02 -0.57350240307E+02  0.14939651035E+03  0.12500000000E+03 0.  0.
         25    1    1    2    0    0 -0.33862251968E+01 -0.94333741074E+02  0.13463709945E+03  0.20654895249E+03  0.12500000000E+03 0.  0.
</event>
<event>
 5    0  0.5670250E-005  0.4465189E+03  0.7546771E-02  0.1028765E+00
         21   -1    0    0  502  501  0.00000000000E+00  0.00000000000E+00  0.60444185823E+03  0.60444185823E+03  0.00000000000E+00 0.  1.
         21   -1    0    0  501  502 -0.00000000000E+00 -0.00000000000E+00 -0.32985660626E+03  0.32985660626E+03  0.00000000000E+00 0.  1.
         25    1    1    2    0    0 -0.19524991249E+03  0.28843511964E+03  0.11323177332E+03  0.38699325712E+03  0.12500000000E+03 0.  0.
         25    1    1    2    0    0  0.10415194645E+03 -0.15088844909E+03  0.23909685426E+03  0.32620125342E+03  0.12500000000E+03 0.  0.
         25    1    1    2    0    0  0.91097966044E+02 -0.13754667055E+03 -0.77743375617E+02  0.22110395394E+03  0.12500000000E+03 0.  0.
</event>
<event>
 5    0  0.5670250E-005  0.2855099E+03  0.7546771E-02  0.1092717E+00
         21   -1    0    0  502  501  0.00000000000E+00  0.00000000000E+00  0.25105626278E+03  0.25105626278E+03  0.00000000000E+00 0.  1.
         21   -1    0    0  501  502 -0.00000000000E+00 -0.00000000000E+00 -0.32469183098E+03  0.32469183098E+03  0.00000000000E+00 0.  1.
         25    1    1    2    0    0 -0.64167138925E+02 -0.76360520340E+02  0.12452352840E+03  0.20268068460E+03  0.12500000000E+03 0.  0.
         25    1    1    2    0    0  0.26888136783E+01 -0.38302890491E+02 -0.51437759268E+02  0.14051755840E+03  0.12500000000E+03 0.  0.
         25    1    1    2    0    0  0.61478325247E+02  0.11466341083E+03 -0.14672133734E+03  0.23254985076E+03  0.12500000000E+03 0.  0.
</event>
<event>
 5    0  0.5670250E-005  0.5648990E+03  0.7546771E-02  0.9981030E-01
         21   -1    0    0  502  501  0.00000000000E+00  0.00000000000E+00  0.53170157208E+03  0.53170157208E+03  0.00000000000E+00 0.  1.
         21   -1    0    0  501  502 -0.00000000000E+00 -0.00000000000E+00 -0.60016919802E+03  0.60016919802E+03  0.00000000000E+00 0.  1.
         25    1    1    2    0    0 -0.75350740975E+02 -0.24418611420E+03 -0.28612159454E+03  0.40347882150E+03  0.12500000000E+03 0.  0.
         25    1    1    2    0    0 -0.52341524183E+02  0.33096939540E+02 -0.19003916305E+03  0.23574334784E+03  0.12500000000E+03 0.  0.
         25    1    1    2    0    0  0.12769226516E+03  0.21108917466E+03  0.40769313165E+03  0.49264860076E+03  0.12500000000E+03 0.  0.
</event>
<event>
 5    0  0.5932289E-005  0.3360852E+03  0.7546771E-02  0.1068476E+00
         21   -1    0    0  502  501  0.00000000000E+00  0.00000000000E+00  0.38012354500E+03  0.38012354500E+03  0.00000000000E+00 0. -1.
         21   -1    0    0  501  502 -0.00000000000E+00 -0.00000000000E+00 -0.29714885799E+03  0.29714885799E+03  0.00000000000E+00 0. -1.
         25    1    1    2    0    0 -0.11632691131E+02 -0.15258274798E+03  0.41154759557E+02  0.20183044547E+03  0.12500000000E+03 0.  0.
         25    1    1    2    0    0  0.15577861264E+03 -0.36116879215E+02 -0.50491933519E+01  0.20303176962E+03  0.12500000000E+03 0.  0.
         25    1    1    2    0    0 -0.14414592151E+03  0.18869962720E+03  0.46869120803E+02  0.27241018791E+03  0.12500000000E+03 0.  0.
</event>
<event>
 5    0  0.5670250E-005  0.3165866E+03  0.7546771E-02  0.1077231E+00
         21   -1    0    0  502  501  0.00000000000E+00  0.00000000000E+00  0.22913088395E+03  0.22913088395E+03  0.00000000000E+00 0. -1.
         21   -1    0    0  501  502 -0.00000000000E+00 -0.00000000000E+00 -0.43742278216E+03  0.43742278216E+03  0.00000000000E+00 0. -1.
         25    1    1    2    0    0 -0.19855889864E+03 -0.10802500559E+03 -0.11102774574E+03  0.28115333608E+03  0.12500000000E+03 0.  0.
         25    1    1    2    0    0  0.68713907600E+02  0.36923310303E+02 -0.12038942406E+03  0.19027229269E+03  0.12500000000E+03 0.  0.
         25    1    1    2    0    0  0.12984499104E+03  0.71101695286E+02  0.23125271598E+02  0.19512803734E+03  0.12500000000E+03 0.  0.
</event>
<event>
 5    0  0.5670250E-005  0.3743982E+03  0.7546771E-02  0.1053024E+00
         21   -1    0    0  502  501  0.00000000000E+00  0.00000000000E+00  0.15505819829E+03  0.15505819829E+03  0.00000000000E+00 0.  1.
         21   -1    0    0  501  502 -0.00000000000E+00 -0.00000000000E+00 -0.90400920971E+03  0.90400920971E+03  0.00000000000E+00 0. -1.
         25    1    1    2    0    0 -0.83582644838E+02 -0.18713703560E+02 -0.40949211853E+03  0.43662919778E+03  0.12500000000E+03 0.  0.
         25    1    1    2    0    0  0.23930043550E+03  0.11489220365E+03 -0.14362295644E+03  0.32667640029E+03  0.12500000000E+03 0.  0.
         25    1    1    2    0    0 -0.15571779066E+03 -0.96178500093E+02 -0.19583593645E+03  0.29576180993E+03  0.12500000000E+03 0.  0.
</event>
<event>
 5    0  0.5849152E-005  0.3054788E+03  0.7546771E-02  0.1082533E+00
         21   -1    0    0  502  501  0.00000000000E+00  0.00000000000E+00  0.17271738023E+03  0.17271738023E+03  0.00000000000E+00 0. -1.
         21   -1    0    0  501  502 -0.00000000000E+00 -0.00000000000E+00 -0.54028909946E+03  0.54028909946E+03  0.00000000000E+00 0. -1.
         25    1    1    2    0    0  0.88809650710E+02 -0.10507670754E+03  0.15609485501E+02  0.18653933784E+03  0.12500000000E+03 0.  0.
         25    1    1    2    0    0 -0.84931784659E+02  0.13336966356E+03 -0.12225172354E+03  0.23573578242E+03  0.12500000000E+03 0.  0.
         25    1    1    2    0    0 -0.38778660507E+01 -0.28292956026E+02 -0.26092948119E+03  0.29073135944E+03  0.12500000000E+03 0.  0.
</event>
<event>
 5    0  0.5670250E-005  0.2615858E+03  0.7546771E-02  0.1106194E+00
         21   -1    0    0  502  501  0.00000000000E+00  0.00000000000E+00  0.36248697329E+03  0.36248697329E+03  0.00000000000E+00 0.  1.
         21   -1    0    0  501  502 -0.00000000000E+00 -0.00000000000E+00 -0.18877132256E+03  0.18877132256E+03  0.00000000000E+00 0.  1.
         25    1    1    2    0    0  0.15048552736E+03  0.90014571419E+01  0.62617080203E+02  0.20560354790E+03  0.12500000000E+03 0.  0.
         25    1    1    2    0    0 -0.91708414199E+02  0.60666398671E+02  0.90777484292E+02  0.18962172032E+03  0.12500000000E+03 0.  0.
         25    1    1    2    0    0 -0.58777113164E+02 -0.69667855813E+02  0.20321086235E+02  0.15603302763E+03  0.12500000000E+03 0.  0.
</event>
<event>
 5    0  0.5670250E-005  0.3788266E+03  0.7546771E-02  0.1051368E+00
         21   -1    0    0  502  501  0.00000000000E+00  0.00000000000E+00  0.83731153272E+03  0.83731153272E+03  0.00000000000E+00 0.  1.
         21   -1    0    0  501  502 -0.00000000000E+00 -0.00000000000E+00 -0.17139334957E+03  0.17139334957E+03  0.00000000000E+00 0.  1.
         25    1    1    2    0    0 -0.17111698466E+03  0.98534482175E+02  0.36509530001E+03  0.43348546078E+03  0.12500000000E+03 0.  0.
         25    1    1    2    0    0  0.19779631948E+03 -0.20995877500E+03  0.23834143879E+03  0.39450945824E+03  0.12500000000E+03 0.  0.
         25    1    1    2    0    0 -0.26679334817E+02  0.11142429282E+03  0.62481444355E+02  0.18070996327E+03  0.12500000000E+03 0.  0.
</event>
<event>
 5    0  0.5670250E-005  0.3110301E+03  0.7546771E-02  0.1079853E+00
         21   -1    0    0  502  501  0.00000000000E+00  0.00000000000E+00  0.93454117181E+02  0.93454117181E+02  0.00000000000E+00 0. -1.
         21   -1    0    0  501  502 -0.00000000000E+00 -0.00000000000E+00 -0.10351571423E+04  0.10351571423E+04  0.00000000000E+00 0. -1.
         25    1    1    2    0    0 -0.67182341504E+02  0.15756286637E+03 -0.23120379387E+03  0.31371917086E+03  0.12500000000E+03 0.  0.
         25    1    1    2    0    0 -0.77838267546E+02 -0.51120646299E+02 -0.44014025063E+03  0.46692671438E+03  0.12500000000E+03 0.  0.
         25    1    1    2    0    0  0.14502060905E+03 -0.10644222007E+03 -0.27035898057E+03  0.34796537420E+03  0.12500000000E+03 0.  0.
</event>
<event>
 5    0  0.5670250E-005  0.3577616E+03  0.7546771E-02  0.1059474E+00
         21   -1    0    0  502  501  0.00000000000E+00  0.00000000000E+00  0.24082801573E+03  0.24082801573E+03  0.00000000000E+00 0. -1.
         21   -1    0    0  501  502 -0.00000000000E+00 -0.00000000000E+00 -0.53147220655E+03  0.53147220655E+03  0.00000000000E+00 0. -1.
         25    1    1    2    0    0  0.54339443074E+02  0.22282265572E+02 -0.25343551752E+03  0.28862403914E+03  0.12500000000E+03 0.  0.
         25    1    1    2    0    0 -0.76690938272E+00 -0.48544339239E+02 -0.21799037991E+03  0.25593348111E+03  0.12500000000E+03 0.  0.
         25    1    1    2    0    0 -0.53572533692E+02  0.26262073667E+02  0.18078170661E+03  0.22774270202E+03  0.12500000000E+03 0.  0.
</event>
<event>
 5    0  0.5670250E-005  0.2509325E+03  0.7546771E-02  0.1112717E+00
         21   -1    0    0  502  501  0.00000000000E+00  0.00000000000E+00  0.36389803966E+03  0.36389803966E+03  0.00000000000E+00 0. -1.
         21   -1    0    0  501  502 -0.00000000000E+00 -0.00000000000E+00 -0.17303508891E+03  0.17303508891E+03  0.00000000000E+00 0. -1.
         25    1    1    2    0    0 -0.73843133301E+02 -0.37635034093E+02  0.43316355657E+02  0.15611057233E+03  0.12500000000E+03 0.  0.
         25    1    1    2    0    0 -0.66256459837E+01 -0.53878072721E+02 -0.21327679294E+02  0.13793699942E+03  0.12500000000E+03 0.  0.
         25    1    1    2    0    0  0.80468779285E+02  0.91513106814E+02  0.16887427439E+03  0.24288555681E+03  0.12500000000E+03 0.  0.
</event>
<event>
 5    0  0.5670250E-005  0.2728388E+03  0.7546771E-02  0.1099666E+00
         21   -1    0    0  502  501  0.00000000000E+00  0.00000000000E+00  0.35982366608E+03  0.35982366608E+03  0.00000000000E+00 0.  1.
         21   -1    0    0  501  502 -0.00000000000E+00 -0.00000000000E+00 -0.20688194670E+03  0.20688194670E+03  0.00000000000E+00 0.  1.
         25    1    1    2    0    0 -0.97872887013E+02 -0.15352165450E+03  0.60489528017E+02  0.22898031228E+03  0.12500000000E+03 0.  0.
         25    1    1    2    0    0  0.10469076276E+02  0.10832749316E+03  0.46348042833E+02  0.17209761302E+03  0.12500000000E+03 0.  0.
         25    1    1    2    0    0  0.87403810737E+02  0.45194161338E+02  0.46104148525E+02  0.16562768748E+03  0.12500000000E+03 0.  0.
</event>
<event>
 5    0  0.5670250E-005  0.2888451E+03  0.7546771E-02  0.1090954E+00
         21   -1    0    0  502  501  0.00000000000E+00  0.00000000000E+00  0.94113256211E+02  0.94113256211E+02  0.00000000000E+00 0.  1.
         21   -1    0    0  501  502 -0.00000000000E+00 -0.00000000000E+00 -0.88650106301E+03  0.88650106301E+03  0.00000000000E+00 0.  1.
         25    1    1    2    0    0  0.24583760154E+02 -0.16659956298E+03 -0.34012521000E+03  0.39958720466E+03  0.12500000000E+03 0.  0.
         25    1    1    2    0    0 -0.31830712998E+02  0.18655452430E+03 -0.21764038356E+03  0.31433759143E+03  0.12500000000E+03 0.  0.
         25    1    1    2    0    0  0.72469528438E+01 -0.19954961325E+02 -0.23462221323E+03  0.26668952314E+03  0.12500000000E+03 0.  0.
</event>
<event>
 5    0  0.5670250E-005  0.2581552E+03  0.7546771E-02  0.1108257E+00
         21   -1    0    0  502  501  0.00000000000E+00  0.00000000000E+00  0.28996834951E+03  0.28996834951E+03  0.00000000000E+00 0.  1.
         21   -1    0    0  501  502 -0.00000000000E+00 -0.00000000000E+00 -0.22983227317E+03  0.22983227317E+03  0.00000000000E+00 0.  1.
         25    1    1    2    0    0 -0.43489702400E+02 -0.10239209980E+01  0.18286527919E+03  0.22573682235E+03  0.12500000000E+03 0.  0.
         25    1    1    2    0    0  0.32543542066E+02  0.25985835748E+02 -0.96885499695E+02  0.16354248941E+03  0.12500000000E+03 0.  0.
         25    1    1    2    0    0  0.10946160334E+02 -0.24961914750E+02 -0.25843703155E+02  0.13052131093E+03  0.12500000000E+03 0.  0.
</event>
<event>
 5    0  0.5670250E-005  0.3234798E+03  0.7546771E-02  0.1074059E+00
         21   -1    0    0  502  501  0.00000000000E+00  0.00000000000E+00  0.20888640603E+04  0.20888640603E+04  0.00000000000E+00 0.  1.
         21   -1    0    0  501  502 -0.00000000000E+00 -0.00000000000E+00 -0.50093822271E+02  0.50093822271E+02  0.00000000000E+00 0.  1.
         25    1    1    2    0    0  0.56993624128E+02 -0.13745344482E+03  0.36245988102E+03  0.41127106394E+03  0.12500000000E+03 0.  0.
         25    1    1    2    0    0 -0.69318773279E+02  0.12503400637E+02  0.23364478615E+03  0.27418299264E+03  0.12500000000E+03 0.  0.
         25    1    1    2    0    0  0.12325149151E+02  0.12495004418E+03  0.14426655709E+04  0.14535038260E+04  0.12500000000E+03 0.  0.
</event>
<event>
 5    0  0.5670250E-005  0.2441253E+03  0.7546771E-02  0.1117075E+00
         21   -1    0    0  502  501  0.00000000000E+00  0.00000000000E+00  0.71242800330E+02  0.71242800330E+02  0.00000000000E+00 0. -1.
         21   -1    0    0  501  502 -0.00000000000E+00 -0.00000000000E+00 -0.83653598393E+03  0.83653598393E+03  0.00000000000E+00 0. -1.
         25    1    1    2    0    0  0.19671906304E+02  0.77602681995E+02 -0.12845355709E+03  0.19630200325E+03  0.12500000000E+03 0.  0.
         25    1    1    2    0    0  0.25378338965E+02  0.37596163431E+02 -0.35708280352E+03  0.38103892211E+03  0.12500000000E+03 0.  0.
         25    1    1    2    0    0 -0.45050245269E+02 -0.11519884543E+03 -0.27975682298E+03  0.33043785889E+03  0.12500000000E+03 0.  0.
</event>
<event>
 5    0  0.5670250E-005  0.2888730E+03  0.7546771E-02  0.1090939E+00
         21   -1    0    0  502  501  0.00000000000E+00  0.00000000000E+00  0.12258496291E+03  0.12258496291E+03  0.00000000000E+00 0. -1.
         21   -1    0    0  501  502 -0.00000000000E+00 -0.00000000000E+00 -0.68073262243E+03  0.68073262243E+03  0.00000000000E+00 0. -1.
         25    1    1    2    0    0  0.50912671214E+02  0.15706990110E+03 -0.13903394602E+03  0.24943634873E+03  0.12500000000E+03 0.  0.
         25    1    1    2    0    0 -0.11965788561E+03 -0.12122555076E+03 -0.28542408605E+03  0.35511343631E+03  0.12500000000E+03 0.  0.
         25    1    1    2    0    0  0.68745214397E+02 -0.35844350338E+02 -0.13368962745E+03  0.19876780031E+03  0.12500000000E+03 0.  0.
</event>
<event>
 5    0  0.5670250E-005  0.2715642E+03  0.7546771E-02  0.1100388E+00
         21   -1    0    0  502  501  0.00000000000E+00  0.00000000000E+00  0.13536967237E+03  0.13536967237E+03  0.00000000000E+00 0.  1.
         21   -1    0    0  501  502 -0.00000000000E+00 -0.00000000000E+00 -0.54478300142E+03  0.54478300142E+03  0.00000000000E+00 0.  1.
         25    1    1    2    0    0 -0.14694297932E+03 -0.39909156150E+02 -0.17704954098E+03  0.26487076071E+03  0.12500000000E+03 0.  0.
         25    1    1    2    0    0  0.10219288125E+03  0.10721353008E+03 -0.15063662179E+03  0.24546795684E+03  0.12500000000E+03 0.  0.
         25    1    1    2    0    0  0.44750098074E+02 -0.67304373929E+02 -0.81727166273E+02  0.16981395624E+03  0.12500000000E+03 0.  0.
</event>
<event>
 5    0  0.5670250E-005  0.3316851E+03  0.7546771E-02  0.1070394E+00
         21   -1    0    0  502  501  0.00000000000E+00  0.00000000000E+00  0.12012840538E+04  0.12012840538E+04  0.00000000000E+00 0. -1.
         21   -1    0    0  501  502 -0.00000000000E+00 -0.00000000000E+00 -0.91581185117E+02  0.91581185117E+02  0.00000000000E+00 0. -1.
         25    1    1    2    0    0  0.19479713151E+03  0.51731934165E+02  0.51211706788E+03  0.56436779379E+03  0.12500000000E+03 0.  0.
         25    1    1    2    0    0 -0.39940005739E+02 -0.13709148845E+03  0.19961905573E+03  0.27543065856E+03  0.12500000000E+03 0.  0.
         25    1    1    2    0    0 -0.15485712577E+03  0.85359554282E+02  0.39796674508E+03  0.45306678658E+03  0.12500000000E+03 0.  0.
</event>
<event>
 5    0  0.5670250E-005  0.2091829E+03  0.7546771E-02  0.1142215E+00
         21   -1    0    0  502  501  0.00000000000E+00  0.00000000000E+00  0.36415612259E+03  0.36415612259E+03  0.00000000000E+00 0. -1.
         21   -1    0    0  501  502 -0.00000000000E+00 -0.00000000000E+00 -0.12016136190E+03  0.12016136190E+03  0.00000000000E+00 0. -1.
         25    1    1    2    0    0  0.40275032154E+02 -0.10458933475E+02  0.32971195963E+02  0.13580709579E+03  0.12500000000E+03 0.  0.
         25    1    1    2    0    0 -0.22865517900E+01 -0.44659239683E+02  0.77397799886E+02  0.15367203856E+03  0.12500000000E+03 0.  0.
         25    1    1    2    0    0 -0.37988480364E+02  0.55118173158E+02  0.13362576484E+03  0.19483835013E+03  0.12500000000E+03 0.  0.
</event>
<event>
 5    0  0.5670250E-005  0.2300903E+03  0.7546771E-02  0.1126576E+00
         21   -1    0    0  502  501  0.00000000000E+00  0.00000000000E+00  0.77183492378E+02  0.77183492378E+02  0.00000000000E+00 0. -1.
         21   -1    0    0  501  502 -0.00000000000E+00 -0.00000000000E+00 -0.68591817142E+03  0.68591817142E+03  0.00000000000E+00 0. -1.
         25    1    1    2    0    0  0.48761124448E+02 -0.51022438653E+02 -0.11633563548E+03  0.18476990173E+03  0.12500000000E+03 0.  0.
         25    1    1    2    0    0 -0.43116498997E+02  0.15268495812E+01 -0.38212149425E+03  0.40435528947E+03  0.12500000000E+03 0.  0.
         25    1    1    2    0    0 -0.56446254507E+01  0.49495589072E+02 -0.11027754931E+03  0.17397647259E+03  0.12500000000E+03 0.  0.
</event>
<event>
 5    0  0.5670250E-005  0.3243478E+03  0.7546771E-02  0.1073666E+00
         21   -1    0    0  502  501  0.00000000000E+00  0.00000000000E+00  0.30782622941E+03  0.30782622941E+03  0.00000000000E+00 0. -1.
         21   -1    0    0  501  502 -0.00000000000E+00 -0.00000000000E+00 -0.34175605732E+03  0.34175605732E+03  0.00000000000E+00 0. -1.
         25    1    1    2    0    0  0.79406653085E+02 -0.11445962850E+03  0.39016063611E+02  0.19119015752E+03  0.12500000000E+03 0.  0.
         25    1    1    2    0    0  0.45368003891E+02 -0.35698052002E+02 -0.15970933650E+03  0.21086649535E+03  0.12500000000E+03 0.  0.
         25    1    1    2    0    0 -0.12477465698E+03  0.15015768051E+03  0.86763444982E+02  0.24752563387E+03  0.12500000000E+03 0.  0.
</event>
<event>
 5    0  0.5670250E-005  0.2718802E+03  0.7546771E-02  0.1100208E+00
         21   -1    0    0  502  501  0.00000000000E+00  0.00000000000E+00  0.71117002633E+03  0.71117002633E+03  0.00000000000E+00 0.  1.
         21   -1    0    0  501  502 -0.00000000000E+00 -0.00000000000E+00 -0.10393976129E+03  0.10393976129E+03  0.00000000000E+00 0.  1.
         25    1    1    2    0    0  0.69286959557E+02  0.26334080283E+02  0.27852375520E+03  0.31415704474E+03  0.12500000000E+03 0.  0.
         25    1    1    2    0    0 -0.14920104544E+03  0.63112170156E+02  0.18547219461E+03  0.27616848654E+03  0.12500000000E+03 0.  0.
         25    1    1    2    0    0  0.79914085887E+02 -0.89446250439E+02  0.14323431523E+03  0.22478425634E+03  0.12500000000E+03 0.  0.
</event>
<event>
 5    0  0.5670250E-005  0.2781268E+03  0.7546771E-02  0.1096716E+00
         21   -1    0    0  502  501  0.00000000000E+00  0.00000000000E+00  0.79381068347E+02  0.79381068347E+02  0.00000000000E+00 0. -1.
         21   -1    0    0  501  502 -0.00000000000E+00 -0.00000000000E+00 -0.97447064407E+03  0.97447064407E+03  0.00000000000E+00 0. -1.
         25    1    1    2    0    0  0.10236869662E+03 -0.14690503314E+03 -0.24442428355E+03  0.32776312971E+03  0.12500000000E+03 0.  0.
         25    1    1    2    0    0 -0.52208882752E+02  0.56442080782E+02 -0.41320655869E+03  0.43849302853E+03  0.12500000000E+03 0.  0.
         25    1    1    2    0    0 -0.50159813871E+02  0.90462952355E+02 -0.23745873348E+03  0.28759555417E+03  0.12500000000E+03 0.  0.
</event>
<event>
 5    0  0.5670250E-005  0.3474080E+03  0.7546771E-02  0.1063684E+00
         21   -1    0    0  502  501  0.00000000000E+00  0.00000000000E+00  0.84213308744E+03  0.84213308744E+03  0.00000000000E+00 0. -1.
         21   -1    0    0  501  502 -0.00000000000E+00 -0.00000000000E+00 -0.14331740996E+03  0.14331740996E+03  0.00000000000E+00 0. -1.
         25    1    1    2    0    0 -0.80495606853E+02 -0.51350956440E+02  0.10133470195E+03  0.18711008864E+03  0.12500000000E+03 0.  0.
         25    1    1    2    0    0 -0.14159669531E+03 -0.10588678266E+03  0.34162228023E+03  0.40446559460E+03  0.12500000000E+03 0.  0.
         25    1    1    2    0    0  0.22209230216E+03  0.15723773910E+03  0.25585869529E+03  0.39387481417E+03  0.12500000000E+03 0.  0.
</event>
<event>
 5    0  0.5670250E-005  0.2497662E+03  0.7546771E-02  0.1113453E+00
         21   -1    0    0  502  501  0.00000000000E+00  0.00000000000E+00  0.56983075932E+02  0.56983075932E+02  0.00000000000E+00 0.  1.
         21   -1    0    0  501  502 -0.00000000000E+00 -0.00000000000E+00 -0.10947664079E+04  0.10947664079E+04  0.00000000000E+00 0.  1.
         25    1    1    2    0    0 -0.12615342027E+03 -0.19985023896E+02 -0.24553247232E+03  0.30368615640E+03  0.12500000000E+03 0.  0.
         25    1    1    2    0    0  0.11878691333E+02  0.34576132626E+02 -0.29224570332E+03  0.31995181413E+03  0.12500000000E+03 0.  0.
         25    1    1    2    0    0  0.11427472894E+03 -0.14591108730E+02 -0.50000515634E+03  0.52811151331E+03  0.12500000000E+03 0.  0.
</event>
<event>
 5    0  0.5670250E-005  0.3650489E+03  0.7546771E-02  0.1056602E+00
         21   -1    0    0  502  501  0.00000000000E+00  0.00000000000E+00  0.53626146634E+03  0.53626146634E+03  0.00000000000E+00 0. -1.
         21   -1    0    0  501  502 -0.00000000000E+00 -0.00000000000E+00 -0.24849954064E+03  0.24849954064E+03  0.00000000000E+00 0. -1.
         25    1    1    2    0    0 -0.66858185848E+02  0.48158958456E+02  0.46311263891E+02  0.15671322681E+03  0.12500000000E+03 0.  0.
         25    1    1    2    0    0 -0.10783515474E+03 -0.14436860300E+03  0.31287276903E+03  0.38207994416E+03  0.12500000000E+03 0.  0.
         25    1    1    2    0    0  0.17469334059E+03  0.96209644544E+02 -0.71422107225E+02  0.24596783601E+03  0.12500000000E+03 0.  0.
</event>
<event>
 5    0  0.5670250E-005  0.3541183E+03  0.7546771E-02  0.1060937E+00
         21   -1    0    0  502  501  0.00000000000E+00  0.00000000000E+00  0.10506976948E+03  0.10506976948E+03  0.00000000000E+00 0.  1.
         21   -1    0    0  501  502 -0.00000000000E+00 -0.00000000000E+00 -0.11934903688E+04  0.11934903688E+04  0.00000000000E+00 0.  1.
         25    1    1    2    0    0 -0.19204030365E+03 -0.63377134931E+02 -0.14329354902E+03  0.27758634810E+03  0.12500000000E+03 0.  0.
         25    1    1    2    0    0 -0.92057026070E+01  0.53813285485E+02 -0.22821480486E+03  0.26587141970E+03  0.12500000000E+03 0.  0.
         25    1    1    2    0    0  0.20124600625E+03  0.95638494462E+01 -0.71691224546E+03  0.75510237051E+03  0.12500000000E+03 0.  0.
</event>
<event>
 5    0  0.5670250E-005  0.2940456E+03  0.7546771E-02  0.1088256E+00
         21   -1    0    0  502  501  0.00000000000E+00  0.00000000000E+00  0.11411555865E+03  0.11411555865E+03  0.00000000000E+00 0.  1.
         21   -1    0    0  501  502 -0.00000000000E+00 -0.00000000000E+00 -0.75767765012E+03  0.75767765012E+03  0.00000000000E+00 0.  1.
         25    1    1    2    0    0  0.10663927891E+02  0.12690934745E+03 -0.49706334714E+03  0.52812562227E+03  0.12500000000E+03 0.  0.
         25    1    1    2    0    0  0.51459712189E+02 -0.10062752158E+03 -0.87243770043E+02  0.18976426294E+03  0.12500000000E+03 0.  0.
         25    1    1    2    0    0 -0.62123640080E+02 -0.26281825865E+02 -0.59254974289E+02  0.15390332357E+03  0.12500000000E+03 0.  0.
</event>
<event>
 5    0  0.5670250E-005  0.2311417E+03  0.7546771E-02  0.1125839E+00
         21   -1    0    0  502  501  0.00000000000E+00  0.00000000000E+00  0.46040785519E+03  0.46040785519E+03  0.00000000000E+00 0. -1.
         21   -1    0    0  501  502 -0.00000000000E+00 -0.00000000000E+00 -0.11604162756E+03  0.11604162756E+03  0.00000000000E+00 0. -1.
         25    1    1    2    0    0  0.24894936637E+02  0.21483915965E+02  0.18531574000E+03  0.22593857574E+03  0.12500000000E+03 0.  0.
         25    1    1    2    0    0 -0.27521489867E+02 -0.77013856592E+02  0.12298254256E+02  0.14988266601E+03  0.12500000000E+03 0.  0.
         25    1    1    2    0    0  0.26265532298E+01  0.55529940627E+02  0.14675223338E+03  0.20062824101E+03  0.12500000000E+03 0.  0.
</event>
<event>
 5    0  0.5670250E-005  0.4262848E+03  0.7546771E-02  0.1035040E+00
         21   -1    0    0  502  501  0.00000000000E+00  0.00000000000E+00  0.30610496185E+03  0.30610496185E+03  0.00000000000E+00 0.  1.
         21   -1    0    0  501  502 -0.00000000000E+00 -0.00000000000E+00 -0.59364844185E+03  0.59364844185E+03  0.00000000000E+00 0.  1.
         25    1    1    2    0    0 -0.49023657389E+02  0.49788666472E+02 -0.29930397214E+03  0.33179827913E+03  0.12500000000E+03 0.  0.
         25    1    1    2    0    0  0.12805140549E+03 -0.22159342007E+03  0.12907780622E+03  0.31270894827E+03  0.12500000000E+03 0.  0.
         25    1    1    2    0    0 -0.79027748098E+02  0.17180475360E+03 -0.11731731408E+03  0.25524617630E+03  0.12500000000E+03 0.  0.
</event>
<event>
 5    0  0.5670250E-005  0.3033705E+03  0.7546771E-02  0.1083568E+00
         21   -1    0    0  502  501  0.00000000000E+00  0.00000000000E+00  0.24211496223E+03  0.24211496223E+03  0.00000000000E+00 0.  1.
         21   -1    0    0  501  502 -0.00000000000E+00 -0.00000000000E+00 -0.38012377238E+03  0.38012377238E+03  0.00000000000E+00 0.  1.
         25    1    1    2    0    0 -0.15092608541E+03 -0.90816323099E+02 -0.34299258970E+02  0.21869551199E+03  0.12500000000E+03 0.  0.
         25    1    1    2    0    0  0.17534979492E+03  0.71956535634E+02 -0.14372721312E+03  0.26871510079E+03  0.12500000000E+03 0.  0.
         25    1    1    2    0    0 -0.24423709504E+02  0.18859787465E+02  0.40017661951E+02  0.13482812183E+03  0.12500000000E+03 0.  0.
</event>
<event>
 5    0  0.5670250E-005  0.4298181E+03  0.7546771E-02  0.1033917E+00
         21   -1    0    0  502  501  0.00000000000E+00  0.00000000000E+00  0.99115951074E+03  0.99115951074E+03  0.00000000000E+00 0. -1.
         21   -1    0    0  501  502 -0.00000000000E+00 -0.00000000000E+00 -0.18639141627E+03  0.18639141627E+03  0.00000000000E+00 0. -1.
         25    1    1    2    0    0  0.29556956344E+03 -0.18212551297E+03  0.30430254121E+03  0.47828454490E+03  0.12500000000E+03 0.  0.
         25    1    1    2    0    0 -0.25744219650E+03  0.19878598431E+03  0.30230484850E+03  0.46130854482E+03  0.12500000000E+03 0.  0.
         25    1    1    2    0    0 -0.38127366936E+02 -0.16660471344E+02  0.19816070475E+03  0.23795783728E+03  0.12500000000E+03 0.  0.
</event>
<event>
 5    0  0.5670250E-005  0.3253230E+03  0.7546771E-02  0.1073225E+00
         21   -1    0    0  502  501  0.00000000000E+00  0.00000000000E+00  0.16830097267E+03  0.16830097267E+03  0.00000000000E+00 0. -1.
         21   -1    0    0  501  502 -0.00000000000E+00 -0.00000000000E+00 -0.62884394754E+03  0.62884394754E+03  0.00000000000E+00 0. -1.
         25    1    1    2    0    0  0.71638962935E+02  0.88981475205E+02 -0.20471018437E+03  0.26567104382E+03  0.12500000000E+03 0.  0.
         25    1    1    2    0    0 -0.48901205500E+02  0.55622893926E+02 -0.30057736794E+03  0.33385174606E+03  0.12500000000E+03 0.  0.
         25    1    1    2    0    0 -0.22737757435E+02 -0.14460436913E+03  0.44744577445E+02  0.19762213033E+03  0.12500000000E+03 0.  0.
</event>
<event>
 5    0  0.5670250E-005  0.3142496E+03  0.7546771E-02  0.1078327E+00
         21   -1    0    0  502  501  0.00000000000E+00  0.00000000000E+00  0.57538765846E+02  0.57538765846E+02  0.00000000000E+00 0.  1.
         21   -1    0    0  501  502 -0.00000000000E+00 -0.00000000000E+00 -0.17162831350E+04  0.17162831350E+04  0.00000000000E+00 0.  1.
         25    1    1    2    0    0 -0.44421541984E+02 -0.25696430835E+02 -0.54748198265E+03  0.56391054368E+03  0.12500000000E+03 0.  0.
         25    1    1    2    0    0 -0.14293752895E+03  0.13019170535E+03 -0.53511983947E+03  0.58254550030E+03  0.12500000000E+03 0.  0.
         25    1    1    2    0    0  0.18735907093E+03 -0.10449527452E+03 -0.57614254702E+03  0.62736585685E+03  0.12500000000E+03 0.  0.
</event>
<event>
 5    0  0.5670250E-005  0.3191075E+03  0.7546771E-02  0.1076061E+00
         21   -1    0    0  502  501  0.00000000000E+00  0.00000000000E+00  0.97455920481E+02  0.97455920481E+02  0.00000000000E+00 0.  1.
         21   -1    0    0  501  502 -0.00000000000E+00 -0.00000000000E+00 -0.10448784359E+04  0.10448784359E+04  0.00000000000E+00 0.  1.
         25    1    1    2    0    0 -0.13923866655E+03 -0.15385518183E+03 -0.63239440798E+03  0.67720492503E+03  0.12500000000E+03 0.  0.
         25    1    1    2    0    0  0.11149097785E+03  0.46098978357E+02 -0.14158397489E+03  0.22411241798E+03  0.12500000000E+03 0.  0.
         25    1    1    2    0    0  0.27747688697E+02  0.10775620347E+03 -0.17344413252E+03  0.24101701334E+03  0.12500000000E+03 0.  0.
</event>
<event>
 5    0  0.6094572E-005  0.4648096E+03  0.7546771E-02  0.1023395E+00
         21   -1    0    0  502  501  0.00000000000E+00  0.00000000000E+00  0.38148235915E+03  0.38148235915E+03  0.00000000000E+00 0.  1.
         21   -1    0    0  501  502 -0.00000000000E+00 -0.00000000000E+00 -0.56633807386E+03  0.56633807386E+03  0.00000000000E+00 0.  1.
         25    1    1    2    0    0  0.29763843705E+03  0.93090009607E+02 -0.76653032135E+02  0.34460858439E+03  0.12500000000E+03 0.  0.
         25    1    1    2    0    0 -0.26285963141E+03 -0.11024265004E+03 -0.25801476696E+03  0.40428362282E+03  0.12500000000E+03 0.  0.
         25    1    1    2    0    0 -0.34778805645E+02  0.17152640434E+02  0.14981208437E+03  0.19892822580E+03  0.12500000000E+03 0.  0.
</event>
<event>
 5    0  0.5670250E-005  0.7541883E+03  0.7546771E-02  0.9628802E-01
         21   -1    0    0  502  501  0.00000000000E+00  0.00000000000E+00  0.47323041917E+03  0.47323041917E+03  0.00000000000E+00 0.  1.
         21   -1    0    0  501  502 -0.00000000000E+00 -0.00000000000E+00 -0.12019513671E+04  0.12019513671E+04  0.00000000000E+00 0.  1.
         25    1    1    2    0    0 -0.78904481186E+02 -0.16388634669E+02 -0.45999693581E+03  0.48344253584E+03  0.12500000000E+03 0.  0.
         25    1    1    2    0    0  0.62201275324E+01 -0.54298644439E+03 -0.25756199311E+03  0.61386981443E+03  0.12500000000E+03 0.  0.
         25    1    1    2    0    0  0.72684353653E+02  0.55937507906E+03 -0.11162018969E+02  0.57786943595E+03  0.12500000000E+03 0.  0.
</event>
<event>
 5    0  0.5670250E-005  0.4000819E+03  0.7546771E-02  0.1043751E+00
         21   -1    0    0  502  501  0.00000000000E+00  0.00000000000E+00  0.50698724334E+03  0.50698724334E+03  0.00000000000E+00 0. -1.
         21   -1    0    0  501  502 -0.00000000000E+00 -0.00000000000E+00 -0.31571897537E+03  0.31571897537E+03  0.00000000000E+00 0. -1.
         25    1    1    2    0    0 -0.46207386207E+02 -0.10325408911E+03  0.73640675185E+02  0.18396868891E+03  0.12500000000E+03 0.  0.
         25    1    1    2    0    0  0.26960427416E+03  0.15440368049E+03 -0.34386749006E+02  0.33665176325E+03  0.12500000000E+03 0.  0.
         25    1    1    2    0    0 -0.22339688795E+03 -0.51149591382E+02  0.15201434180E+03  0.30208576655E+03  0.12500000000E+03 0.  0.
</event>
<event>
 5    0  0.5670250E-005  0.2519905E+03  0.7546771E-02  0.1112053E+00
         21   -1    0    0  502  501  0.00000000000E+00  0.00000000000E+00  0.19273311532E+03  0.19273311532E+03  0.00000000000E+00 0. -1.
         21   -1    0    0  501  502 -0.00000000000E+00 -0.00000000000E+00 -0.32946707548E+03  0.32946707548E+03  0.00000000000E+00 0. -1.
         25    1    1    2    0    0 -0.25317341113E+02 -0.10357905555E+03  0.51628938025E+02  0.17222118264E+03  0.12500000000E+03 0.  0.
         25    1    1    2    0    0 -0.34051900326E+02  0.37535353922E+02 -0.51281367877E+02  0.14430250657E+03  0.12500000000E+03 0.  0.
         25    1    1    2    0    0  0.59369241439E+02  0.66043701626E+02 -0.13708153031E+03  0.20567650159E+03  0.12500000000E+03 0.  0.
</event>
<event>
 5    0  0.5670250E-005  0.2383000E+03  0.7546771E-02  0.1120930E+00
         21   -1    0    0  502  501  0.00000000000E+00  0.00000000000E+00  0.27521473746E+04  0.27521473746E+04  0.00000000000E+00 0. -1.
         21   -1    0    0  501  502 -0.00000000000E+00 -0.00000000000E+00 -0.20633674609E+02  0.20633674609E+02  0.00000000000E+00 0. -1.
         25    1    1    2    0    0  0.78667217161E-01 -0.85787832562E+02  0.67086965646E+03  0.68778677972E+03  0.12500000000E+03 0.  0.
         25    1    1    2    0    0  0.37537618348E+01 -0.33390970227E+02  0.12156881042E+04  0.12225594523E+04  0.12500000000E+03 0.  0.
         25    1    1    2    0    0 -0.38324290520E+01  0.11917880279E+03  0.84495593929E+03  0.86243481718E+03  0.12500000000E+03 0.  0.
</event>
<event>
 5    0  0.5670250E-005  0.5391299E+03  0.7546771E-02  0.1004042E+00
         21   -1    0    0  502  501  0.00000000000E+00  0.00000000000E+00  0.14943052354E+03  0.14943052354E+03  0.00000000000E+00 0. -1.
         21   -1    0    0  501  502 -0.00000000000E+00 -0.00000000000E+00 -0.19451247168E+04  0.19451247168E+04  0.00000000000E+00 0. -1.
         25    1    1    2    0    0  0.24585541750E+03 -0.99114843182E+02 -0.48878488730E+03  0.56991605040E+03  0.12500000000E+03 0.  0.
         25    1    1    2    0    0 -0.17036608462E+03 -0.27738732691E+03 -0.39247067079E+03  0.52500148510E+03  0.12500000000E+03 0.  0.
         25    1    1    2    0    0 -0.75489332883E+02  0.37650217009E+03 -0.91443863521E+03  0.99963770489E+03  0.12500000000E+03 0.  0.
</event>
<event>
 5    0  0.5670250E-005  0.9619430E+03  0.7546771E-02  0.9351299E-01
         21   -1    0    0  502  501  0.00000000000E+00  0.00000000000E+00  0.13976625928E+04  0.13976625928E+04  0.00000000000E+00 0. -1.
         21   -1    0    0  501  502 -0.00000000000E+00 -0.00000000000E+00 -0.66205847554E+03  0.66205847554E+03  0.00000000000E+00 0. -1.
         25    1    1    2    0    0 -0.13163641318E+03  0.22679291021E+03  0.47465715285E+02  0.29434871075E+03  0.12500000000E+03 0.  0.
         25    1    1    2    0    0 -0.33555572643E+03  0.26086514964E+03 -0.31929646507E+03  0.54609843842E+03  0.12500000000E+03 0.  0.
         25    1    1    2    0    0  0.46719213961E+03 -0.48765805984E+03  0.10074348671E+04  0.12192739192E+04  0.12500000000E+03 0.  0.
</event>
<event>
 5    0  0.5670250E-005  0.2603748E+03  0.7546771E-02  0.1106918E+00
         21   -1    0    0  502  501  0.00000000000E+00  0.00000000000E+00  0.32406464082E+02  0.32406464082E+02  0.00000000000E+00 0. -1.
         21   -1    0    0  501  502 -0.00000000000E+00 -0.00000000000E+00 -0.20920218236E+04  0.20920218236E+04  0.00000000000E+00 0. -1.
         25    1    1    2    0    0 -0.74357597062E+01  0.75029748090E+02 -0.91715275972E+03  0.92869744173E+03  0.12500000000E+03 0.  0.
         25    1    1    2    0    0  0.68601013189E+02 -0.12808637892E+03 -0.79339856791E+03  0.81622209419E+03  0.12500000000E+03 0.  0.
         25    1    1    2    0    0 -0.61165253483E+02  0.53056630828E+02 -0.34906403193E+03  0.37950875180E+03  0.12500000000E+03 0.  0.
</event>
<event>
 5    0  0.5670250E-005  0.3287525E+03  0.7546771E-02  0.1071690E+00
         21   -1    0    0  502  501  0.00000000000E+00  0.00000000000E+00  0.21737148803E+03  0.21737148803E+03  0.00000000000E+00 0.  1.
         21   -1    0    0  501  502 -0.00000000000E+00 -0.00000000000E+00 -0.49720492879E+03  0.49720492879E+03  0.00000000000E+00 0.  1.
         25    1    1    2    0    0  0.11618167483E+02  0.25730463767E+02  0.11661019803E+03  0.17326273940E+03  0.12500000000E+03 0.  0.
         25    1    1    2    0    0 -0.12562545437E+03  0.62651254482E+01 -0.11492293768E+03  0.21131324660E+03  0.12500000000E+03 0.  0.
         25    1    1    2    0    0  0.11400728688E+03 -0.31995589215E+02 -0.28152070110E+03  0.33000043082E+03  0.12500000000E+03 0.  0.
</event>
<event>
 5    0  0.5670250E-005  0.2764512E+03  0.7546771E-02  0.1097643E+00
         21   -1    0    0  502  501  0.00000000000E+00  0.00000000000E+00  0.11565215455E+03  0.11565215455E+03  0.00000000000E+00 0. -1.
         21   -1    0    0  501  502 -0.00000000000E+00 -0.00000000000E+00 -0.66082013887E+03  0.66082013887E+03  0.00000000000E+00 0.  1.
         25    1    1    2    0    0  0.11192381883E+02  0.90090243475E+02 -0.64071405005E+01  0.15462073868E+03  0.12500000000E+03 0.  0.
         25    1    1    2    0    0 -0.32462394334E+02  0.20974595401E+02 -0.31976055870E+03  0.34549320630E+03  0.12500000000E+03 0.  0.
         25    1    1    2    0    0  0.21270012450E+02 -0.11106483888E+03 -0.21900028512E+03  0.27635834843E+03  0.12500000000E+03 0.  0.
</event>
<event>
 5    0  0.5670250E-005  0.2539710E+03  0.7546771E-02  0.1110821E+00
         21   -1    0    0  502  501  0.00000000000E+00  0.00000000000E+00  0.17703461749E+04  0.17703461749E+04  0.00000000000E+00 0. -1.
         21   -1    0    0  501  502 -0.00000000000E+00 -0.00000000000E+00 -0.36434269078E+02  0.36434269078E+02  0.00000000000E+00 0. -1.
         25    1    1    2    0    0 -0.51905549700E+02 -0.55707863741E+02  0.63099678063E+03  0.64774955757E+03  0.12500000000E+03 0.  0.
         25    1    1    2    0    0  0.28046548249E+02  0.24351681693E+02  0.94435421466E+03  0.95331500356E+03  0.12500000000E+03 0.  0.
         25    1    1    2    0    0  0.23859001451E+02  0.31356182049E+02  0.15856091051E+03  0.20571588282E+03  0.12500000000E+03 0.  0.
</event>
<event>
 5    0  0.5670250E-005  0.2540757E+03  0.7546771E-02  0.1110756E+00
         21   -1    0    0  502  501  0.00000000000E+00  0.00000000000E+00  0.21603452975E+03  0.21603452975E+03  0.00000000000E+00 0.  1.
         21   -1    0    0  501  502 -0.00000000000E+00 -0.00000000000E+00 -0.29881545360E+03  0.29881545360E+03  0.00000000000E+00 0.  1.
         25    1    1    2    0    0 -0.72771780313E+02  0.16809502433E+02 -0.10604612773E+03  0.18013626117E+03  0.12500000000E+03 0.  0.
         25    1    1    2    0    0 -0.66191079670E+02  0.10710413748E+02  0.32640043753E+02  0.14555529687E+03  0.12500000000E+03 0.  0.
         25    1    1    2    0    0  0.13896285998E+03 -0.27519916182E+02 -0.93748398746E+01  0.18915842531E+03  0.12500000000E+03 0.  0.
</event>
<event>
 5    0  0.5670250E-005  0.3265198E+03  0.7546771E-02  0.1072687E+00
         21   -1    0    0  502  501  0.00000000000E+00  0.00000000000E+00  0.84460576960E+02  0.84460576960E+02  0.00000000000E+00 0.  1.
         21   -1    0    0  501  502 -0.00000000000E+00 -0.00000000000E+00 -0.12623071755E+04  0.12623071755E+04  0.00000000000E+00 0.  1.
         25    1    1    2    0    0 -0.94961695911E+02  0.25537958328E+01 -0.96862155679E+02  0.18447634744E+03  0.12500000000E+03 0.  0.
         25    1    1    2    0    0  0.16377054964E+03 -0.88131545768E+02 -0.84051459120E+03  0.86987225517E+03  0.12500000000E+03 0.  0.
         25    1    1    2    0    0 -0.68808853731E+02  0.85577749935E+02 -0.24046985161E+03  0.29241914980E+03  0.12500000000E+03 0.  0.
</event>
<event>
 5    0  0.5670250E-005  0.2994502E+03  0.7546771E-02  0.1085516E+00
         21   -1    0    0  502  501  0.00000000000E+00  0.00000000000E+00  0.21093001233E+04  0.21093001233E+04  0.00000000000E+00 0. -1.
         21   -1    0    0  501  502 -0.00000000000E+00 -0.00000000000E+00 -0.42511928504E+02  0.42511928504E+02  0.00000000000E+00 0. -1.
         25    1    1    2    0    0 -0.62375858102E+02 -0.10991032149E+03  0.80238158734E+03  0.82183467812E+03  0.12500000000E+03 0.  0.
         25    1    1    2    0    0 -0.61966794795E+02  0.14279281617E+03  0.39871174468E+03  0.44589878600E+03  0.12500000000E+03 0.  0.
         25    1    1    2    0    0  0.12434265290E+03 -0.32882494682E+02  0.86569486279E+03  0.88407858771E+03  0.12500000000E+03 0.  0.
</event>
<event>
 5    0  0.5670250E-005  0.3069805E+03  0.7546771E-02  0.1081802E+00
         21   -1    0    0  502  501  0.00000000000E+00  0.00000000000E+00  0.11721961852E+03  0.11721961852E+03  0.00000000000E+00 0. -1.
         21   -1    0    0  501  502 -0.00000000000E+00 -0.00000000000E+00 -0.80393566538E+03  0.80393566538E+03  0.00000000000E+00 0. -1.
         25    1    1    2    0    0  0.16520163533E+02 -0.15888448791E+03 -0.43693025951E+03  0.48171594117E+03  0.12500000000E+03 0.  0.
         25    1    1    2    0    0 -0.70156659745E+02  0.91055842134E+02 -0.23038820529E+03  0.28621119550E+03  0.12500000000E+03 0.  0.
         25    1    1    2    0    0  0.53636496212E+02  0.67828645775E+02 -0.19397582060E+02  0.15322814723E+03  0.12500000000E+03 0.  0.
</event>
<event>
 5    0  0.5670250E-005  0.2164638E+03  0.7546771E-02  0.1136547E+00
         21   -1    0    0  502  501  0.00000000000E+00  0.00000000000E+00  0.40061324682E+03  0.40061324682E+03  0.00000000000E+00 0. -1.
         21   -1    0    0  501  502 -0.00000000000E+00 -0.00000000000E+00 -0.11696216990E+03  0.11696216990E+03  0.00000000000E+00 0. -1.
         25    1    1    2    0    0 -0.57918197605E+02 -0.38446556858E+01  0.18052037522E+03  0.22711650064E+03  0.12500000000E+03 0.  0.
         25    1    1    2    0    0 -0.40021457403E+01  0.21527631777E+02  0.73859809380E+02  0.14683231096E+03  0.12500000000E+03 0.  0.
         25    1    1    2    0    0  0.61920343346E+02 -0.17682976092E+02  0.29270892318E+02  0.14362660513E+03  0.12500000000E+03 0.  0.
</event>
<event>
 5    0  0.5670250E-005  0.2941864E+03  0.7546771E-02  0.1088183E+00
         21   -1    0    0  502  501  0.00000000000E+00  0.00000000000E+00  0.26700720881E+03  0.26700720881E+03  0.00000000000E+00 0.  1.
         21   -1    0    0  501  502 -0.00000000000E+00 -0.00000000000E+00 -0.32413217931E+03  0.32413217931E+03  0.00000000000E+00 0.  1.
         25    1    1    2    0    0  0.56536374311E+02 -0.25041462472E+02 -0.10629979293E+03  0.17535131149E+03  0.12500000000E+03 0.  0.
         25    1    1    2    0    0  0.11899167980E+03 -0.32007175650E+02  0.75994911496E+02  0.19126867420E+03  0.12500000000E+03 0.  0.
         25    1    1    2    0    0 -0.17552805411E+03  0.57048638121E+02 -0.26820089061E+02  0.22451940243E+03  0.12500000000E+03 0.  0.
</event>
<event>
 5    0  0.5670250E-005  0.5774325E+03  0.7546771E-02  0.9953365E-01
         21   -1    0    0  502  501  0.00000000000E+00  0.00000000000E+00  0.16703800890E+04  0.16703800890E+04  0.00000000000E+00 0.  1.
         21   -1    0    0  501  502 -0.00000000000E+00 -0.00000000000E+00 -0.19961223585E+03  0.19961223585E+03  0.00000000000E+00 0.  1.
         25    1    1    2    0    0  0.56258246125E+02 -0.13315715662E+03  0.81899098225E+02  0.20791411906E+03  0.12500000000E+03 0.  0.
         25    1    1    2    0    0 -0.12479840304E+03  0.48583334638E+03  0.94796995595E+03  0.10797595655E+04  0.12500000000E+03 0.  0.
         25    1    1    2    0    0  0.68540156915E+02 -0.35267618976E+03  0.44089879901E+03  0.58231864035E+03  0.12500000000E+03 0.  0.
</event>
<event>
 5    0  0.5670250E-005  0.3361757E+03  0.7546771E-02  0.1068437E+00
         21   -1    0    0  502  501  0.00000000000E+00  0.00000000000E+00  0.16815706651E+03  0.16815706651E+03  0.00000000000E+00 0.  1.
         21   -1    0    0  501  502 -0.00000000000E+00 -0.00000000000E+00 -0.67207471367E+03  0.67207471367E+03  0.00000000000E+00 0.  1.
         25    1    1    2    0    0 -0.69617376835E+02  0.40332737589E+02 -0.23566886459E+03  0.27863618325E+03  0.12500000000E+03 0.  0.
         25    1    1    2    0    0 -0.53120937211E+02 -0.58018389188E+02  0.82471383314E+02  0.16915819968E+03  0.12500000000E+03 0.  0.
         25    1    1    2    0    0  0.12273831405E+03  0.17685651600E+02 -0.35072016588E+03  0.39243739725E+03  0.12500000000E+03 0.  0.
</event>
<event>
 5    0  0.5670250E-005  0.2817379E+03  0.7546771E-02  0.1094744E+00
         21   -1    0    0  502  501  0.00000000000E+00  0.00000000000E+00  0.95988909859E+02  0.95988909859E+02  0.00000000000E+00 0.  1.
         21   -1    0    0  501  502 -0.00000000000E+00 -0.00000000000E+00 -0.82693116217E+03  0.82693116217E+03  0.00000000000E+00 0.  1.
         25    1    1    2    0    0  0.14467325444E+03 -0.13334111850E+02 -0.98290326221E+02  0.21539298345E+03  0.12500000000E+03 0.  0.
         25    1    1    2    0    0 -0.49045080432E+02 -0.41304367130E+02 -0.20451711453E+03  0.24812037561E+03  0.12500000000E+03 0.  0.
         25    1    1    2    0    0 -0.95628174012E+02  0.54638478980E+02 -0.42813481157E+03  0.45940671298E+03  0.12500000000E+03 0.  0.
</event>
<event>
 5    0  0.5670250E-005  0.3213029E+03  0.7546771E-02  0.1075051E+00
         21   -1    0    0  502  501  0.00000000000E+00  0.00000000000E+00  0.14905841744E+03  0.14905841744E+03  0.00000000000E+00 0. -1.
         21   -1    0    0  501  502 -0.00000000000E+00 -0.00000000000E+00 -0.69258454776E+03  0.69258454776E+03  0.00000000000E+00 0. -1.
         25    1    1    2    0    0  0.10760836875E+03 -0.56566945971E+02 -0.39102658659E+02  0.17869918387E+03  0.12500000000E+03 0.  0.
         25    1    1    2    0    0 -0.15091235895E+03 -0.10383702291E+03 -0.24452881559E+03  0.33011514516E+03  0.12500000000E+03 0.  0.
         25    1    1    2    0    0  0.43303990202E+02  0.16040396888E+03 -0.25989465607E+03  0.33282863617E+03  0.12500000000E+03 0.  0.
</event>
<event>
 5    0  0.5670250E-005  0.3945606E+03  0.7546771E-02  0.1045680E+00
         21   -1    0    0  502  501  0.00000000000E+00  0.00000000000E+00  0.20810586344E+03  0.20810586344E+03  0.00000000000E+00 0.  1.
         21   -1    0    0  501  502 -0.00000000000E+00 -0.00000000000E+00 -0.74807155231E+03  0.74807155231E+03  0.00000000000E+00 0.  1.
         25    1    1    2    0    0 -0.19238768257E+03  0.24501565973E+03 -0.14265024002E+03  0.36471877508E+03  0.12500000000E+03 0.  0.
         25    1    1    2    0    0  0.69776316049E+02 -0.13511443551E+02 -0.17081631607E+03  0.22328122900E+03  0.12500000000E+03 0.  0.
         25    1    1    2    0    0  0.12261136653E+03 -0.23150421618E+03 -0.22649913277E+03  0.36817741166E+03  0.12500000000E+03 0.  0.
</event>
<event>
 5    0  0.5770755E-005  0.4448879E+03  0.7546771E-02  0.1029258E+00
         21   -1    0    0  502  501  0.00000000000E+00  0.00000000000E+00  0.55760581472E+03  0.55760581472E+03  0.00000000000E+00 0.  1.
         21   -1    0    0  501  502 -0.00000000000E+00 -0.00000000000E+00 -0.35495542608E+03  0.35495542608E+03  0.00000000000E+00 0.  1.
         25    1    1    2    0    0  0.16692812652E+03 -0.12755161418E+03  0.30888877207E+03  0.39391837634E+03  0.12500000000E+03 0.  0.
         25    1    1    2    0    0  0.97614692862E+02  0.11530772654E+03 -0.11185330928E+03  0.22574468512E+03  0.12500000000E+03 0.  0.
         25    1    1    2    0    0 -0.26454281938E+03  0.12243887636E+02  0.56149258515E+01  0.29289817935E+03  0.12500000000E+03 0.  0.
</event>
<event>
 5    0  0.5670250E-005  0.3897012E+03  0.7546771E-02  0.1047405E+00
         21   -1    0    0  502  501  0.00000000000E+00  0.00000000000E+00  0.26984765803E+03  0.26984765803E+03  0.00000000000E+00 0. -1.
         21   -1    0    0  501  502 -0.00000000000E+00 -0.00000000000E+00 -0.56278792319E+03  0.56278792319E+03  0.00000000000E+00 0. -1.
         25    1    1    2    0    0  0.26370767729E+02  0.37349035837E+02  0.51984738239E+02  0.14289080054E+03  0.12500000000E+03 0.  0.
         25    1    1    2    0    0 -0.22015248433E+03 -0.27684752184E+02  0.22689708505E+02  0.25568219479E+03  0.12500000000E+03 0.  0.
         25    1    1    2    0    0  0.19378171660E+03 -0.96642836524E+01 -0.36761471190E+03  0.43406258589E+03  0.12500000000E+03 0.  0.
</event>
<event>
 5    0  0.5670250E-005  0.4168052E+03  0.7546771E-02  0.1038111E+00
         21   -1    0    0  502  501  0.00000000000E+00  0.00000000000E+00  0.16966407921E+04  0.16966407921E+04  0.00000000000E+00 0.  1.
         21   -1    0    0  501  502 -0.00000000000E+00 -0.00000000000E+00 -0.10239444758E+03  0.10239444758E+03  0.00000000000E+00 0.  1.
         25    1    1    2    0    0 -0.93955011872E+02  0.97027187822E+02  0.24416501907E+03  0.30575051263E+03  0.12500000000E+03 0.  0.
         25    1    1    2    0    0  0.27689041959E+03 -0.41252770075E+02  0.34055896379E+03  0.45823084065E+03  0.12500000000E+03 0.  0.
         25    1    1    2    0    0 -0.18293540772E+03 -0.55774417747E+02  0.10095223617E+04  0.10350538864E+04  0.12500000000E+03 0.  0.
</event>
<event>
 5    0  0.5834234E-005  0.4369041E+03  0.7546771E-02  0.1031701E+00
         21   -1    0    0  502  501  0.00000000000E+00  0.00000000000E+00  0.22026960617E+03  0.22026960617E+03  0.00000000000E+00 0.  1.
         21   -1    0    0  501  502 -0.00000000000E+00 -0.00000000000E+00 -0.86659812111E+03  0.86659812111E+03  0.00000000000E+00 0.  1.
         25    1    1    2    0    0 -0.29963978657E+02  0.10945647043E+03 -0.40944523699E+03  0.44288707481E+03  0.12500000000E+03 0.  0.
         25    1    1    2    0    0  0.55002618497E+01 -0.26389832513E+03 -0.31457024825E+03  0.42924587356E+03  0.12500000000E+03 0.  0.
         25    1    1    2    0    0  0.24463716807E+02  0.15444185470E+03  0.77686970292E+02  0.21473477891E+03  0.12500000000E+03 0.  0.
</event>
<event>
 5    0  0.5670250E-005  0.3483135E+03  0.7546771E-02  0.1063309E+00
         21   -1    0    0  502  501  0.00000000000E+00  0.00000000000E+00  0.12294526601E+04  0.12294526601E+04  0.00000000000E+00 0.  1.
         21   -1    0    0  501  502 -0.00000000000E+00 -0.00000000000E+00 -0.98679903456E+02  0.98679903456E+02  0.00000000000E+00 0.  1.
         25    1    1    2    0    0 -0.83592244846E+02  0.13445867786E+02  0.15033901035E+03  0.21306166429E+03  0.12500000000E+03 0.  0.
         25    1    1    2    0    0 -0.53381790939E+02  0.15203287374E+03  0.74615075322E+03  0.77351765128E+03  0.12500000000E+03 0.  0.
         25    1    1    2    0    0  0.13697403579E+03 -0.16547874153E+03  0.23428299312E+03  0.34155324803E+03  0.12500000000E+03 0.  0.
</event>
<event>
 5    0  0.5670250E-005  0.3558428E+03  0.7546771E-02  0.1060242E+00
         21   -1    0    0  502  501  0.00000000000E+00  0.00000000000E+00  0.20948092794E+03  0.20948092794E+03  0.00000000000E+00 0.  1.
         21   -1    0    0  501  502 -0.00000000000E+00 -0.00000000000E+00 -0.60446602559E+03  0.60446602559E+03  0.00000000000E+00 0.  1.
         25    1    1    2    0    0  0.93301495621E+01 -0.20240891524E+03  0.11056485400E+02  0.23833519784E+03  0.12500000000E+03 0.  0.
         25    1    1    2    0    0  0.84479325379E+02  0.19804743603E+03 -0.28088364562E+03  0.37534006675E+03  0.12500000000E+03 0.  0.
         25    1    1    2    0    0 -0.93809474941E+02  0.43614792176E+01 -0.12515793743E+03  0.20027168894E+03  0.12500000000E+03 0.  0.
</event>
<event>
 5    0  0.5670250E-005  0.4490274E+03  0.7546771E-02  0.1028012E+00
         21   -1    0    0  502  501  0.00000000000E+00  0.00000000000E+00  0.11500197953E+03  0.11500197953E+03  0.00000000000E+00 0. -1.
         21   -1    0    0  501  502 -0.00000000000E+00 -0.00000000000E+00 -0.17532358026E+04  0.17532358026E+04  0.00000000000E+00 0. -1.
         25    1    1    2    0    0  0.25002820042E+03 -0.34915343452E+02 -0.11437018977E+04  0.11778846349E+04  0.12500000000E+03 0.  0.
         25    1    1    2    0    0  0.51443788501E+02  0.38060221442E+02 -0.76210518839E+02  0.15977511387E+03  0.12500000000E+03 0.  0.
         25    1    1    2    0    0 -0.30147198892E+03 -0.31448779902E+01 -0.41832140650E+03  0.53057803337E+03  0.12500000000E+03 0.  0.
</event>
<event>
 5    0  0.5670250E-005  0.3131139E+03  0.7546771E-02  0.1078863E+00
         21   -1    0    0  502  501  0.00000000000E+00  0.00000000000E+00  0.62434258781E+03  0.62434258781E+03  0.00000000000E+00 0.  1.
         21   -1    0    0  501  502 -0.00000000000E+00 -0.00000000000E+00 -0.15702968845E+03  0.15702968845E+03  0.00000000000E+00 0.  1.
         25    1    1    2    0    0 -0.17927831049E+03 -0.90646079422E+02  0.64702058128E+02  0.24529325439E+03  0.12500000000E+03 0.  0.
         25    1    1    2    0    0  0.56121213034E+02  0.37094365308E+02  0.74887052181E+02  0.16049502508E+03  0.12500000000E+03 0.  0.
         25    1    1    2    0    0  0.12315709745E+03  0.53551714114E+02  0.32772378905E+03  0.37558399679E+03  0.12500000000E+03 0.  0.
</event>
<event>
 5    0  0.5670250E-005  0.2214930E+03  0.7546771E-02  0.1132775E+00
         21   -1    0    0  502  501  0.00000000000E+00  0.00000000000E+00  0.28678883008E+02  0.28678883008E+02  0.00000000000E+00 0. -1.
         21   -1    0    0  501  502 -0.00000000000E+00 -0.00000000000E+00 -0.17106374261E+04  0.17106374261E+04  0.00000000000E+00 0. -1.
         25    1    1    2    0    0  0.83979046870E+02  0.46631350016E+02 -0.60996642507E+03  0.63000873234E+03  0.12500000000E+03 0.  0.
         25    1    1    2    0    0 -0.73256854673E+02  0.14258952948E+02 -0.52379115733E+03  0.54364700035E+03  0.12500000000E+03 0.  0.
         25    1    1    2    0    0 -0.10722192197E+02 -0.60890302965E+02 -0.54820096067E+03  0.56566057639E+03  0.12500000000E+03 0.  0.
</event>
<event>
 5    0  0.5670250E-005  0.3871152E+03  0.7546771E-02  0.1048335E+00
         21   -1    0    0  502  501  0.00000000000E+00  0.00000000000E+00  0.52409484243E+02  0.52409484243E+02  0.00000000000E+00 0.  1.
         21   -1    0    0  501  502 -0.00000000000E+00 -0.00000000000E+00 -0.28593719681E+04  0.28593719681E+04  0.00000000000E+00 0.  1.
         25    1    1    2    0    0 -0.98856286488E+02 -0.14040133706E+03 -0.11886436837E+04  0.12074700442E+04  0.12500000000E+03 0.  0.
         25    1    1    2    0    0  0.88557987122E+02  0.42636170255E+02 -0.12424252202E+03  0.20179584826E+03  0.12500000000E+03 0.  0.
         25    1    1    2    0    0  0.10298299366E+02  0.97765166808E+02 -0.14940762782E+04  0.15025155599E+04  0.12500000000E+03 0.  0.
</event>
<event>
 5    0  0.5670250E-005  0.3712000E+03  0.7546771E-02  0.1054235E+00
         21   -1    0    0  502  501  0.00000000000E+00  0.00000000000E+00  0.21832075835E+03  0.21832075835E+03  0.00000000000E+00 0.  1.
         21   -1    0    0  501  502 -0.00000000000E+00 -0.00000000000E+00 -0.63113309649E+03  0.63113309649E+03  0.00000000000E+00 0.  1.
         25    1    1    2    0    0 -0.27304672109E+03 -0.32277041152E+01 -0.50220541160E+02  0.30448650664E+03  0.12500000000E+03 0.  0.
         25    1    1    2    0    0  0.23303381074E+03 -0.41343832974E+02 -0.22501211344E+03  0.34967058879E+03  0.12500000000E+03 0.  0.
         25    1    1    2    0    0  0.40012910347E+02  0.44571537089E+02 -0.13757968354E+03  0.19529675941E+03  0.12500000000E+03 0.  0.
</event>
<event>
 5    0  0.5670250E-005  0.2666021E+03  0.7546771E-02  0.1103240E+00
         21   -1    0    0  502  501  0.00000000000E+00  0.00000000000E+00  0.16601719570E+03  0.16601719570E+03  0.00000000000E+00 0. -1.
         21   -1    0    0  501  502 -0.00000000000E+00 -0.00000000000E+00 -0.42812854057E+03  0.42812854057E+03  0.00000000000E+00 0. -1.
         25    1    1    2    0    0  0.47813720461E+02 -0.23890548129E+02 -0.82762574814E+02  0.15915889527E+03  0.12500000000E+03 0.  0.
         25    1    1    2    0    0 -0.12449466309E+03 -0.36497909461E+02 -0.20654971397E+03  0.27407809630E+03  0.12500000000E+03 0.  0.
         25    1    1    2    0    0  0.76680942627E+02  0.60388457590E+02  0.27200943912E+02  0.16090874470E+03  0.12500000000E+03 0.  0.
</event>
<event>
 5    0  0.5670250E-005  0.3247756E+03  0.7546771E-02  0.1073472E+00
         21   -1    0    0  502  501  0.00000000000E+00  0.00000000000E+00  0.13225042669E+04  0.13225042669E+04  0.00000000000E+00 0. -1.
         21   -1    0    0  501  502 -0.00000000000E+00 -0.00000000000E+00 -0.79757157964E+02  0.79757157964E+02  0.00000000000E+00 0. -1.
         25    1    1    2    0    0  0.66298600270E+02  0.11915319660E+03  0.52771662668E+03  0.55919837870E+03  0.12500000000E+03 0.  0.
         25    1    1    2    0    0  0.24720206159E+02 -0.20365837759E+03  0.25451892828E+03  0.34998958300E+03  0.12500000000E+03 0.  0.
         25    1    1    2    0    0 -0.91018806430E+02  0.84505180993E+02  0.46051155397E+03  0.49307346317E+03  0.12500000000E+03 0.  0.
</event>
<event>
 5    0  0.5670250E-005  0.2573423E+03  0.7546771E-02  0.1108751E+00
         21   -1    0    0  502  501  0.00000000000E+00  0.00000000000E+00  0.63707603460E+02  0.63707603460E+02  0.00000000000E+00 0. -1.
         21   -1    0    0  501  502 -0.00000000000E+00 -0.00000000000E+00 -0.10395160259E+04  0.10395160259E+04  0.00000000000E+00 0. -1.
         25    1    1    2    0    0 -0.29854289691E+01  0.85983006283E+02 -0.12097193628E+03  0.19406493636E+03  0.12500000000E+03 0.  0.
         25    1    1    2    0    0  0.67996959654E+02 -0.61955859343E+02 -0.32147163796E+03  0.35697496977E+03  0.12500000000E+03 0.  0.
         25    1    1    2    0    0 -0.65011530685E+02 -0.24027146939E+02 -0.53336484822E+03  0.55218372326E+03  0.12500000000E+03 0.  0.
</event>
<event>
 5    0  0.5670250E-005  0.2363766E+03  0.7546771E-02  0.1122230E+00
         21   -1    0    0  502  501  0.00000000000E+00  0.00000000000E+00  0.67948540949E+03  0.67948540949E+03  0.00000000000E+00 0.  1.
         21   -1    0    0  501  502 -0.00000000000E+00 -0.00000000000E+00 -0.82229757106E+02  0.82229757106E+02  0.00000000000E+00 0.  1.
         25    1    1    2    0    0  0.57440995177E+02  0.19230302641E+02  0.35356735873E+02  0.14333307796E+03  0.12500000000E+03 0.  0.
         25    1    1    2    0    0 -0.37577378041E+02 -0.15529317365E+02  0.29594703388E+03  0.32382536328E+03  0.12500000000E+03 0.  0.
         25    1    1    2    0    0 -0.19863617136E+02 -0.37009852761E+01  0.26595188263E+03  0.29455672535E+03  0.12500000000E+03 0.  0.
</event>
<event>
 5    0  0.6689109E-005  0.3505002E+03  0.7546771E-02  0.1062410E+00
         21   -1    0    0  502  501  0.00000000000E+00  0.00000000000E+00  0.71632198896E+03  0.71632198896E+03  0.00000000000E+00 0.  1.
         21   -1    0    0  501  502 -0.00000000000E+00 -0.00000000000E+00 -0.17150166998E+03  0.17150166998E+03  0.00000000000E+00 0.  1.
         25    1    1    2    0    0  0.83209718773E+02  0.13637857686E+03  0.28645973958E+03  0.35100876902E+03  0.12500000000E+03 0.  0.
         25    1    1    2    0    0  0.64146714964E+01 -0.22494939581E+03  0.25043926936E+03  0.35914928139E+03  0.12500000000E+03 0.  0.
         25    1    1    2    0    0 -0.89624390269E+02  0.88570818952E+02  0.79213100343E+01  0.17766560853E+03  0.12500000000E+03 0.  0.
</event>
<event>
 5    0  0.5670250E-005  0.3334359E+03  0.7546771E-02  0.1069627E+00
         21   -1    0    0  502  501  0.00000000000E+00  0.00000000000E+00  0.39457559971E+03  0.39457559971E+03  0.00000000000E+00 0. -1.
         21   -1    0    0  501  502 -0.00000000000E+00 -0.00000000000E+00 -0.28176981809E+03  0.28176981809E+03  0.00000000000E+00 0. -1.
         25    1    1    2    0    0  0.89276139001E+02  0.12109983548E+03 -0.42815507752E+01  0.19564951016E+03  0.12500000000E+03 0.  0.
         25    1    1    2    0    0  0.13621459262E+03 -0.42293968113E+02  0.78636573258E+01  0.18981578461E+03  0.12500000000E+03 0.  0.
         25    1    1    2    0    0 -0.22549073162E+03 -0.78805867365E+02  0.10922367506E+03  0.29088012303E+03  0.12500000000E+03 0.  0.
</event>
<event>
 5    0  0.5670250E-005  0.3043631E+03  0.7546771E-02  0.1083080E+00
         21   -1    0    0  502  501  0.00000000000E+00  0.00000000000E+00  0.37036797595E+03  0.37036797595E+03  0.00000000000E+00 0. -1.
         21   -1    0    0  501  502 -0.00000000000E+00 -0.00000000000E+00 -0.25012125664E+03  0.25012125664E+03  0.00000000000E+00 0. -1.
         25    1    1    2    0    0 -0.83775327400E+02 -0.59099317745E+02 -0.55066206622E+02  0.17078735887E+03  0.12500000000E+03 0.  0.
         25    1    1    2    0    0  0.75868712048E+02  0.16620999953E+03  0.18387901916E+02  0.22213721064E+03  0.12500000000E+03 0.  0.
         25    1    1    2    0    0  0.79066153521E+01 -0.10711068179E+03  0.15692502402E+03  0.22756466308E+03  0.12500000000E+03 0.  0.
</event>
<event>
 5    0  0.6470504E-005  0.2809688E+03  0.7546771E-02  0.1095161E+00
         21   -1    0    0  502  501  0.00000000000E+00  0.00000000000E+00  0.44544031827E+03  0.44544031827E+03  0.00000000000E+00 0.  1.
         21   -1    0    0  501  502 -0.00000000000E+00 -0.00000000000E+00 -0.17722565827E+03  0.17722565827E+03  0.00000000000E+00 0.  1.
         25    1    1    2    0    0  0.90071858802E+02 -0.27547063386E+02  0.13781194875E+03  0.20853995700E+03  0.12500000000E+03 0.  0.
         25    1    1    2    0    0 -0.50383059941E+02 -0.68122702521E+02 -0.61251885092E+02  0.16295996059E+03  0.12500000000E+03 0.  0.
         25    1    1    2    0    0 -0.39688798861E+02  0.95669765907E+02  0.19165459635E+03  0.25116605894E+03  0.12500000000E+03 0.  0.
</event>
<event>
 5    0  0.5670250E-005  0.3764891E+03  0.7546771E-02  0.1052239E+00
         21   -1    0    0  502  501  0.00000000000E+00  0.00000000000E+00  0.14438402129E+03  0.14438402129E+03  0.00000000000E+00 0.  1.
         21   -1    0    0  501  502 -0.00000000000E+00 -0.00000000000E+00 -0.98171578233E+03  0.98171578233E+03  0.00000000000E+00 0.  1.
         25    1    1    2    0    0 -0.36473126433E+02 -0.10980903777E+03 -0.21725706241E+02  0.17171290004E+03  0.12500000000E+03 0.  0.
         25    1    1    2    0    0  0.14667842322E+02 -0.12664106392E+03 -0.13824849488E+03  0.22581131727E+03  0.12500000000E+03 0.  0.
         25    1    1    2    0    0  0.21805284111E+02  0.23645010169E+03 -0.67735755991E+03  0.72857558631E+03  0.12500000000E+03 0.  0.
</event>
<event>
 5    0  0.5670250E-005  0.3330517E+03  0.7546771E-02  0.1069795E+00
         21   -1    0    0  502  501  0.00000000000E+00  0.00000000000E+00  0.16391714191E+04  0.16391714191E+04  0.00000000000E+00 0. -1.
         21   -1    0    0  501  502 -0.00000000000E+00 -0.00000000000E+00 -0.67670431276E+02  0.67670431276E+02  0.00000000000E+00 0. -1.
         25    1    1    2    0    0 -0.18414545575E+03  0.82566010159E+02  0.26227191642E+03  0.35374885590E+03  0.12500000000E+03 0.  0.
         25    1    1    2    0    0  0.11629188063E+03 -0.78179299584E+02  0.56513992185E+03  0.59551988687E+03  0.12500000000E+03 0.  0.
         25    1    1    2    0    0  0.67853575122E+02 -0.43867105754E+01  0.74408914955E+03  0.75757310760E+03  0.12500000000E+03 0.  0.
</event>
<event>
 5    0  0.5670250E-005  0.4890498E+03  0.7546771E-02  0.1016677E+00
         21   -1    0    0  502  501  0.00000000000E+00  0.00000000000E+00  0.17170217825E+04  0.17170217825E+04  0.00000000000E+00 0. -1.
         21   -1    0    0  501  502 -0.00000000000E+00 -0.00000000000E+00 -0.13929333111E+03  0.13929333111E+03  0.00000000000E+00 0. -1.
         25    1    1    2    0    0  0.21872691222E+02 -0.18249190136E+03  0.82841558457E+03  0.85771737154E+03  0.12500000000E+03 0.  0.
         25    1    1    2    0    0  0.80783083556E+02  0.30108691958E+03  0.15227536371E+03  0.36877096703E+03  0.12500000000E+03 0.  0.
         25    1    1    2    0    0 -0.10265577478E+03 -0.11859501822E+03  0.59703750314E+03  0.62982677507E+03  0.12500000000E+03 0.  0.
</event>
<event>
 5    0  0.5670250E-005  0.4379036E+03  0.7546771E-02  0.1031392E+00
         21   -1    0    0  502  501  0.00000000000E+00  0.00000000000E+00  0.15706201639E+03  0.15706201639E+03  0.00000000000E+00 0. -1.
         21   -1    0    0  501  502 -0.00000000000E+00 -0.00000000000E+00 -0.12209159451E+04  0.12209159451E+04  0.00000000000E+00 0. -1.
         25    1    1    2    0    0  0.22951085864E+03  0.13847159937E+03 -0.37352663742E+03  0.47644177706E+03  0.12500000000E+03 0.  0.
         25    1    1    2    0    0 -0.16904149086E+03 -0.32920633871E+02 -0.25632930684E+02  0.21433814617E+03  0.12500000000E+03 0.  0.
         25    1    1    2    0    0 -0.60469367780E+02 -0.10555096550E+03 -0.66469436058E+03  0.68719803822E+03  0.12500000000E+03 0.  0.
</event>
<event>
 5    0  0.5779907E-005  0.3655579E+03  0.7546771E-02  0.1056405E+00
         21   -1    0    0  502  501  0.00000000000E+00  0.00000000000E+00  0.11577372280E+04  0.11577372280E+04  0.00000000000E+00 0. -1.
         21   -1    0    0  501  502 -0.00000000000E+00 -0.00000000000E+00 -0.11542567230E+03  0.11542567230E+03  0.00000000000E+00 0. -1.
         25    1    1    2    0    0  0.99296790000E+02 -0.15366061932E+03  0.26772086629E+03  0.34752107948E+03  0.12500000000E+03 0.  0.
         25    1    1    2    0    0 -0.91747475841E+02  0.38404590880E+02  0.30871949552E+02  0.16269784631E+03  0.12500000000E+03 0.  0.
         25    1    1    2    0    0 -0.75493141588E+01  0.11525602844E+03  0.74371873990E+03  0.76294397456E+03  0.12500000000E+03 0.  0.
</event>
<event>
 5    0  0.5670250E-005  0.3957749E+03  0.7546771E-02  0.1045253E+00
         21   -1    0    0  502  501  0.00000000000E+00  0.00000000000E+00  0.57054288852E+03  0.57054288852E+03  0.00000000000E+00 0. -1.
         21   -1    0    0  501  502 -0.00000000000E+00 -0.00000000000E+00 -0.27454163578E+03  0.27454163578E+03  0.00000000000E+00 0. -1.
         25    1    1    2    0    0 -0.83326115031E+02 -0.21156708931E+02  0.25869481390E+03  0.29989807355E+03  0.12500000000E+03 0.  0.
         25    1    1    2    0    0 -0.52991050786E+02  0.20095774141E+03  0.12487344687E+03  0.27278277627E+03  0.12500000000E+03 0.  0.
         25    1    1    2    0    0  0.13631716582E+03 -0.17980103248E+03 -0.87567008027E+02  0.27240367448E+03  0.12500000000E+03 0.  0.
</event>
<event>
 5    0  0.5670250E-005  0.3775301E+03  0.7546771E-02  0.1051850E+00
         21   -1    0    0  502  501  0.00000000000E+00  0.00000000000E+00  0.17382191234E+04  0.17382191234E+04  0.00000000000E+00 0. -1.
         21   -1    0    0  501  502 -0.00000000000E+00 -0.00000000000E+00 -0.81997114653E+02  0.81997114653E+02  0.00000000000E+00 0. -1.
         25    1    1    2    0    0  0.14462323491E+03 -0.88917402905E+02  0.42459626123E+03  0.47405608283E+03  0.12500000000E+03 0.  0.
         25    1    1    2    0    0 -0.23235343639E+03  0.18829699100E+03  0.53001231435E+03  0.62127443983E+03  0.12500000000E+03 0.  0.
         25    1    1    2    0    0  0.87730201476E+02 -0.99379588096E+02  0.70161343312E+03  0.72488571535E+03  0.12500000000E+03 0.  0.
</event>
<event>
 5    0  0.5670250E-005  0.3539955E+03  0.7546771E-02  0.1060987E+00
         21   -1    0    0  502  501  0.00000000000E+00  0.00000000000E+00  0.48369874880E+03  0.48369874880E+03  0.00000000000E+00 0.  1.
         21   -1    0    0  501  502 -0.00000000000E+00 -0.00000000000E+00 -0.25907207624E+03  0.25907207624E+03  0.00000000000E+00 0.  1.
         25    1    1    2    0    0 -0.11435258278E+03 -0.60749493920E+02 -0.99156138256E+02  0.20548468058E+03  0.12500000000E+03 0.  0.
         25    1    1    2    0    0 -0.10692517883E+03  0.24071412369E+02  0.85324234184E+02  0.18686265464E+03  0.12500000000E+03 0.  0.
         25    1    1    2    0    0  0.22127776160E+03  0.36678081551E+02  0.23845857664E+03  0.35042348982E+03  0.12500000000E+03 0.  0.
</event>
<event>
 5    0  0.5670250E-005  0.2626752E+03  0.7546771E-02  0.1105546E+00
         21   -1    0    0  502  501  0.00000000000E+00  0.00000000000E+00  0.82365650788E+02  0.82365650788E+02  0.00000000000E+00 0.  1.
         21   -1    0    0  501  502 -0.00000000000E+00 -0.00000000000E+00 -0.83770691285E+03  0.83770691285E+03  0.00000000000E+00 0.  1.
         25    1    1    2    0    0 -0.97525729856E+02  0.37801793074E+02 -0.12142542482E+03  0.20324708445E+03  0.12500000000E+03 0.  0.
         25    1    1    2    0    0 -0.88489925848E+01 -0.47622463280E+02 -0.45268839301E+03  0.47212073122E+03  0.12500000000E+03 0.  0.
         25    1    1    2    0    0  0.10637472244E+03  0.98206702063E+01 -0.18122744422E+03  0.24470474797E+03  0.12500000000E+03 0.  0.
</event>
<event>
 5    0  0.5670250E-005  0.3455595E+03  0.7546771E-02  0.1064452E+00
         21   -1    0    0  502  501  0.00000000000E+00  0.00000000000E+00  0.50608012752E+03  0.50608012752E+03  0.00000000000E+00 0. -1.
         21   -1    0    0  501  502 -0.00000000000E+00 -0.00000000000E+00 -0.23595345615E+03  0.23595345615E+03  0.00000000000E+00 0. -1.
         25    1    1    2    0    0  0.16829993690E+03  0.20111672739E+02 -0.74771529148E+02  0.22348407038E+03  0.12500000000E+03 0.  0.
         25    1    1    2    0    0  0.33018426225E+02 -0.70936102692E+01  0.47170456292E+02  0.13780634138E+03  0.12500000000E+03 0.  0.
         25    1    1    2    0    0 -0.20131836313E+03 -0.13018062470E+02  0.29772774423E+03  0.38074317192E+03  0.12500000000E+03 0.  0.
</event>
<event>
 5    0  0.5670250E-005  0.4314440E+03  0.7546771E-02  0.1033405E+00
         21   -1    0    0  502  501  0.00000000000E+00  0.00000000000E+00  0.16283022253E+03  0.16283022253E+03  0.00000000000E+00 0. -1.
         21   -1    0    0  501  502 -0.00000000000E+00 -0.00000000000E+00 -0.11431779345E+04  0.11431779345E+04  0.00000000000E+00 0. -1.
         25    1    1    2    0    0  0.15506016113E+02 -0.24793213083E+03 -0.36806955016E+03  0.46131439582E+03  0.12500000000E+03 0.  0.
         25    1    1    2    0    0 -0.17015089922E+03 -0.52050236652E+02 -0.28294225215E+03  0.35684993161E+03  0.12500000000E+03 0.  0.
         25    1    1    2    0    0  0.15464488311E+03  0.29998236748E+03 -0.32933590961E+03  0.48784382955E+03  0.12500000000E+03 0.  0.
</event>
<event>
 5    0  0.5670250E-005  0.4246554E+03  0.7546771E-02  0.1035562E+00
         21   -1    0    0  502  501  0.00000000000E+00  0.00000000000E+00  0.62491369836E+03  0.62491369836E+03  0.00000000000E+00 0. -1.
         21   -1    0    0  501  502 -0.00000000000E+00 -0.00000000000E+00 -0.28857141721E+03  0.28857141721E+03  0.00000000000E+00 0. -1.
         25    1    1    2    0    0  0.68202795269E+02  0.11859896630E+03  0.20282004695E+02  0.18642343148E+03  0.12500000000E+03 0.  0.
         25    1    1    2    0    0 -0.21457013863E+03  0.97944352044E+02 -0.37930801183E+02  0.26962415724E+03  0.12500000000E+03 0.  0.
         25    1    1    2    0    0  0.14636734336E+03 -0.21654331834E+03  0.35399107764E+03  0.45743752685E+03  0.12500000000E+03 0.  0.
</event>
<event>
 5    0  0.5670250E-005  0.3798500E+03  0.7546771E-02  0.1050989E+00
         21   -1    0    0  502  501  0.00000000000E+00  0.00000000000E+00  0.19478211617E+04  0.19478211617E+04  0.00000000000E+00 0.  1.
         21   -1    0    0  501  502 -0.00000000000E+00 -0.00000000000E+00 -0.74075611661E+02  0.74075611661E+02  0.00000000000E+00 0.  1.
         25    1    1    2    0    0  0.20985570456E+03  0.86680457701E+02  0.63479347939E+03  0.68566805377E+03  0.12500000000E+03 0.  0.
         25    1    1    2    0    0 -0.22974490560E+03 -0.12850967393E+03  0.11209109969E+04  0.11581726645E+04  0.12500000000E+03 0.  0.
         25    1    1    2    0    0  0.19889201038E+02  0.41829216226E+02  0.11804107378E+03  0.17805605507E+03  0.12500000000E+03 0.  0.
</event>
<event>
 5    0  0.5670250E-005  0.2951704E+03  0.7546771E-02  0.1087680E+00
         21   -1    0    0  502  501  0.00000000000E+00  0.00000000000E+00  0.69348348774E+03  0.69348348774E+03  0.00000000000E+00 0.  1.
         21   -1    0    0  501  502 -0.00000000000E+00 -0.00000000000E+00 -0.12563467493E+03  0.12563467493E+03  0.00000000000E+00 0.  1.
         25    1    1    2    0    0 -0.41237744194E+02 -0.52294434822E+02  0.18725110925E+02  0.14286668345E+03  0.12500000000E+03 0.  0.
         25    1    1    2    0    0 -0.27135611422E+02  0.15426162644E+03  0.39490431438E+03  0.44284016113E+03  0.12500000000E+03 0.  0.
         25    1    1    2    0    0  0.68373355616E+02 -0.10196719162E+03  0.15421938751E+03  0.23341131808E+03  0.12500000000E+03 0.  0.
</event>
<event>
 5    0  0.5670250E-005  0.3778481E+03  0.7546771E-02  0.1051732E+00
         21   -1    0    0  502  501  0.00000000000E+00  0.00000000000E+00  0.13312236289E+04  0.13312236289E+04  0.00000000000E+00 0.  1.
         21   -1    0    0  501  502 -0.00000000000E+00 -0.00000000000E+00 -0.10724660068E+03  0.10724660068E+03  0.00000000000E+00 0.  1.
         25    1    1    2    0    0 -0.21524918357E+03  0.84339961802E+02  0.21651276291E+03  0.34051169831E+03  0.12500000000E+03 0.  0.
         25    1    1    2    0    0 -0.31947845474E+02  0.36548382357E+02  0.32378230785E+03  0.35045175411E+03  0.12500000000E+03 0.  0.
         25    1    1    2    0    0  0.24719702905E+03 -0.12088834416E+03  0.68368195748E+03  0.74750677716E+03  0.12500000000E+03 0.  0.
</event>
<event>
 5    0  0.5670250E-005  0.3024209E+03  0.7546771E-02  0.1084037E+00
         21   -1    0    0  502  501  0.00000000000E+00  0.00000000000E+00  0.35994267336E+03  0.35994267336E+03  0.00000000000E+00 0. -1.
         21   -1    0    0  501  502 -0.00000000000E+00 -0.00000000000E+00 -0.25409153064E+03  0.25409153064E+03  0.00000000000E+00 0. -1.
         25    1    1    2    0    0 -0.89083801058E+02 -0.43972526571E+02  0.11603090500E+03  0.19737699364E+03  0.12500000000E+03 0.  0.
         25    1    1    2    0    0 -0.82884692034E+02  0.87766905605E+02  0.67054113648E+02  0.18626367346E+03  0.12500000000E+03 0.  0.
         25    1    1    2    0    0  0.17196849309E+03 -0.43794379034E+02 -0.77233875927E+02  0.23039353689E+03  0.12500000000E+03 0.  0.
</event>
<event>
 5    0  0.5670250E-005  0.2760218E+03  0.7546771E-02  0.1097882E+00
         21   -1    0    0  502  501  0.00000000000E+00  0.00000000000E+00  0.19896823660E+04  0.19896823660E+04  0.00000000000E+00 0. -1.
         21   -1    0    0  501  502 -0.00000000000E+00 -0.00000000000E+00 -0.38291544844E+02  0.38291544844E+02  0.00000000000E+00 0. -1.
         25    1    1    2    0    0 -0.76723599375E+02 -0.76808162045E+02  0.47723136728E+03  0.50513442010E+03  0.12500000000E+03 0.  0.
         25    1    1    2    0    0  0.15753779217E+03  0.37110881245E+02  0.10886273525E+04  0.11076686716E+04  0.12500000000E+03 0.  0.
         25    1    1    2    0    0 -0.80814192791E+02  0.39697280800E+02  0.38553210134E+03  0.41517081909E+03  0.12500000000E+03 0.  0.
</event>
<event>
 5    0  0.5670250E-005  0.2531421E+03  0.7546771E-02  0.1111335E+00
         21   -1    0    0  502  501  0.00000000000E+00  0.00000000000E+00  0.24345103658E+03  0.24345103658E+03  0.00000000000E+00 0. -1.
         21   -1    0    0  501  502 -0.00000000000E+00 -0.00000000000E+00 -0.26321893341E+03  0.26321893341E+03  0.00000000000E+00 0. -1.
         25    1    1    2    0    0  0.68010551035E+02 -0.88741985274E+01  0.41209303990E+02  0.14841628343E+03  0.12500000000E+03 0.  0.
         25    1    1    2    0    0  0.17285125666E+02 -0.94332091486E+02  0.18401242529E+02  0.15862195554E+03  0.12500000000E+03 0.  0.
         25    1    1    2    0    0 -0.85295676701E+02  0.10320629001E+03 -0.79378443349E+02  0.19963173102E+03  0.12500000000E+03 0.  0.
</event>
<event>
 5    0  0.5670250E-005  0.3538504E+03  0.7546771E-02  0.1061046E+00
         21   -1    0    0  502  501  0.00000000000E+00  0.00000000000E+00  0.15492436993E+03  0.15492436993E+03  0.00000000000E+00 0. -1.
         21   -1    0    0  501  502 -0.00000000000E+00 -0.00000000000E+00 -0.80820149771E+03  0.80820149771E+03  0.00000000000E+00 0. -1.
         25    1    1    2    0    0  0.52206679397E+02 -0.19112075047E+03 -0.63902264715E+02  0.24281922920E+03  0.12500000000E+03 0.  0.
         25    1    1    2    0    0 -0.12057826537E+03  0.42143137404E+01 -0.19455320612E+03  0.26083103445E+03  0.12500000000E+03 0.  0.
         25    1    1    2    0    0  0.68371585973E+02  0.18690643673E+03 -0.39482165695E+03  0.45947560398E+03  0.12500000000E+03 0.  0.
</event>
<event>
 5    0  0.5670250E-005  0.4227868E+03  0.7546771E-02  0.1036163E+00
         21   -1    0    0  502  501  0.00000000000E+00  0.00000000000E+00  0.18803123305E+03  0.18803123305E+03  0.00000000000E+00 0.  1.
         21   -1    0    0  501  502 -0.00000000000E+00 -0.00000000000E+00 -0.95063291293E+03  0.95063291293E+03  0.00000000000E+00 0.  1.
         25    1    1    2    0    0 -0.17615412990E+03 -0.16884332996E+01 -0.11164236099E+03  0.24315045765E+03  0.12500000000E+03 0.  0.
         25    1    1    2    0    0 -0.77197562362E+02 -0.11801880599E+03 -0.14559112542E+02  0.18901023771E+03  0.12500000000E+03 0.  0.
         25    1    1    2    0    0  0.25335169226E+03  0.11970723929E+03 -0.63640020634E+03  0.70650345062E+03  0.12500000000E+03 0.  0.
</event>
<event>
 5    0  0.5670250E-005  0.4109876E+03  0.7546771E-02  0.1040040E+00
         21   -1    0    0  502  501  0.00000000000E+00  0.00000000000E+00  0.93596623644E+03  0.93596623644E+03  0.00000000000E+00 0.  1.
         21   -1    0    0  501  502 -0.00000000000E+00 -0.00000000000E+00 -0.18046674147E+03  0.18046674147E+03  0.00000000000E+00 0.  1.
         25    1    1    2    0    0 -0.21501952572E+03  0.21769995437E+02  0.60005454954E+02  0.25677418828E+03  0.12500000000E+03 0.  0.
         25    1    1    2    0    0  0.10561645897E+03  0.11746495795E+03  0.58015534985E+03  0.61413197500E+03  0.12500000000E+03 0.  0.
         25    1    1    2    0    0  0.10940306675E+03 -0.13923495339E+03  0.11533869016E+03  0.24552681464E+03  0.12500000000E+03 0.  0.
</event>
<event>
 5    0  0.5670250E-005  0.3104842E+03  0.7546771E-02  0.1080114E+00
         21   -1    0    0  502  501  0.00000000000E+00  0.00000000000E+00  0.24826825270E+03  0.24826825270E+03  0.00000000000E+00 0.  1.
         21   -1    0    0  501  502 -0.00000000000E+00 -0.00000000000E+00 -0.38829135730E+03  0.38829135730E+03  0.00000000000E+00 0.  1.
         25    1    1    2    0    0  0.61300571727E+02 -0.17466195511E+03 -0.11897482438E+03  0.25307028172E+03  0.12500000000E+03 0.  0.
         25    1    1    2    0    0 -0.76377913563E+01 -0.37562193224E+02 -0.11074290379E+02  0.13121316292E+03  0.12500000000E+03 0.  0.
         25    1    1    2    0    0 -0.53662780370E+02  0.21222414833E+03 -0.99739898535E+01  0.25227616535E+03  0.12500000000E+03 0.  0.
</event>
<event>
 5    0  0.5670250E-005  0.2937431E+03  0.7546771E-02  0.1088411E+00
         21   -1    0    0  502  501  0.00000000000E+00  0.00000000000E+00  0.24622819944E+03  0.24622819944E+03  0.00000000000E+00 0.  1.
         21   -1    0    0  501  502 -0.00000000000E+00 -0.00000000000E+00 -0.35042707254E+03  0.35042707254E+03  0.00000000000E+00 0.  1.
         25    1    1    2    0    0  0.12230370279E+03  0.74186384585E+02 -0.15111630143E+03  0.24274050328E+03  0.12500000000E+03 0.  0.
         25    1    1    2    0    0 -0.48494306184E+02  0.60758675858E+02 -0.10472842397E+02  0.14757369295E+03  0.12500000000E+03 0.  0.
         25    1    1    2    0    0 -0.73809396606E+02 -0.13494506044E+03  0.57390270733E+02  0.20634107575E+03  0.12500000000E+03 0.  0.
</event>
<event>
 5    0  0.5670250E-005  0.2760429E+03  0.7546771E-02  0.1097870E+00
         21   -1    0    0  502  501  0.00000000000E+00  0.00000000000E+00  0.86955759408E+03  0.86955759408E+03  0.00000000000E+00 0.  1.
         21   -1    0    0  501  502 -0.00000000000E+00 -0.00000000000E+00 -0.87630427622E+02  0.87630427622E+02  0.00000000000E+00 0.  1.
         25    1    1    2    0    0 -0.26358148489E+02 -0.49223034755E+02  0.28961874652E+03  0.32034618381E+03  0.12500000000E+03 0.  0.
         25    1    1    2    0    0  0.90610597983E+02  0.14257729643E+03  0.37974059592E+03  0.43401208061E+03  0.12500000000E+03 0.  0.
         25    1    1    2    0    0 -0.64252449495E+02 -0.93354261670E+02  0.11256782401E+03  0.20282975729E+03  0.12500000000E+03 0.  0.
</event>
<event>
 5    0  0.5670250E-005  0.4354279E+03  0.7546771E-02  0.1032159E+00
         21   -1    0    0  502  501  0.00000000000E+00  0.00000000000E+00  0.13928784608E+04  0.13928784608E+04  0.00000000000E+00 0.  1.
         21   -1    0    0  501  502 -0.00000000000E+00 -0.00000000000E+00 -0.13611915071E+03  0.13611915071E+03  0.00000000000E+00 0.  1.
         25    1    1    2    0    0  0.20784138548E+03  0.22090630846E+03  0.40771853083E+03  0.52331351885E+03  0.12500000000E+03 0.  0.
         25    1    1    2    0    0 -0.35134094772E+02 -0.80320294131E+02  0.40768782678E+02  0.15802799722E+03  0.12500000000E+03 0.  0.
         25    1    1    2    0    0 -0.17270729070E+03 -0.14058601433E+03  0.80827199663E+03  0.84765609549E+03  0.12500000000E+03 0.  0.
</event>
<event>
 5    0  0.5670250E-005  0.3986224E+03  0.7546771E-02  0.1044258E+00
         21   -1    0    0  502  501  0.00000000000E+00  0.00000000000E+00  0.10461025934E+04  0.10461025934E+04  0.00000000000E+00 0. -1.
         21   -1    0    0  501  502 -0.00000000000E+00 -0.00000000000E+00 -0.15189698916E+03  0.15189698916E+03  0.00000000000E+00 0. -1.
         25    1    1    2    0    0 -0.12239602264E+03 -0.24185342867E+03  0.29965995094E+03  0.42295975401E+03  0.12500000000E+03 0.  0.
         25    1    1    2    0    0 -0.32592257517E+02  0.18147472207E+03  0.49823352110E+03  0.54576274291E+03  0.12500000000E+03 0.  0.
         25    1    1    2    0    0  0.15498828016E+03  0.60378706602E+02  0.96312132208E+02  0.22927708566E+03  0.12500000000E+03 0.  0.
</event>
<event>
 5    0  0.5670250E-005  0.4014316E+03  0.7546771E-02  0.1043285E+00
         21   -1    0    0  502  501  0.00000000000E+00  0.00000000000E+00  0.24278255296E+03  0.24278255296E+03  0.00000000000E+00 0. -1.
         21   -1    0    0  501  502 -0.00000000000E+00 -0.00000000000E+00 -0.66375181233E+03  0.66375181233E+03  0.00000000000E+00 0. -1.
         25    1    1    2    0    0 -0.25929504871E+03  0.31262393337E+02 -0.48274944011E+02  0.29354170018E+03  0.12500000000E+03 0.  0.
         25    1    1    2    0    0  0.16869661862E+03 -0.24002676599E+02 -0.19638181116E+01  0.21133748886E+03  0.12500000000E+03 0.  0.
         25    1    1    2    0    0  0.90598430094E+02 -0.72597167386E+01 -0.37073049725E+03  0.40165517626E+03  0.12500000000E+03 0.  0.
</event>
<event>
 5    0  0.5670250E-005  0.2515502E+03  0.7546771E-02  0.1112329E+00
         21   -1    0    0  502  501  0.00000000000E+00  0.00000000000E+00  0.90849945181E+03  0.90849945181E+03  0.00000000000E+00 0.  1.
         21   -1    0    0  501  502 -0.00000000000E+00 -0.00000000000E+00 -0.69650570835E+02  0.69650570835E+02  0.00000000000E+00 0.  1.
         25    1    1    2    0    0  0.55880358659E+01 -0.54884872922E+01  0.19781274155E+03  0.23412866197E+03  0.12500000000E+03 0.  0.
         25    1    1    2    0    0 -0.10962063284E+03 -0.89246693047E+02  0.29716280375E+03  0.35201191357E+03  0.12500000000E+03 0.  0.
         25    1    1    2    0    0  0.10403259697E+03  0.94735180339E+02  0.34387333568E+03  0.39200944711E+03  0.12500000000E+03 0.  0.
</event>
<event>
 5    0  0.5670250E-005  0.2901872E+03  0.7546771E-02  0.1090251E+00
         21   -1    0    0  502  501  0.00000000000E+00  0.00000000000E+00  0.56257703555E+03  0.56257703555E+03  0.00000000000E+00 0.  1.
         21   -1    0    0  501  502 -0.00000000000E+00 -0.00000000000E+00 -0.14968370360E+03  0.14968370360E+03  0.00000000000E+00 0.  1.
         25    1    1    2    0    0  0.14556419513E+03 -0.14472452063E+01  0.16234683137E+03  0.25134144720E+03  0.12500000000E+03 0.  0.
         25    1    1    2    0    0 -0.71458916469E+02  0.12410743917E+03  0.16771044281E+03  0.25349719097E+03  0.12500000000E+03 0.  0.
         25    1    1    2    0    0 -0.74105278665E+02 -0.12266019397E+03  0.82836057768E+02  0.20742210098E+03  0.12500000000E+03 0.  0.
</event>
<event>
 5    0  0.5670250E-005  0.2692631E+03  0.7546771E-02  0.1101702E+00
         21   -1    0    0  502  501  0.00000000000E+00  0.00000000000E+00  0.37659421863E+03  0.37659421863E+03  0.00000000000E+00 0. -1.
         21   -1    0    0  501  502 -0.00000000000E+00 -0.00000000000E+00 -0.19252186805E+03  0.19252186805E+03  0.00000000000E+00 0. -1.
         25    1    1    2    0    0  0.67012410204E+02 -0.71152762159E+02  0.17883388304E+03  0.23908144304E+03  0.12500000000E+03 0.  0.
         25    1    1    2    0    0 -0.54775913122E+02  0.11387172089E+03  0.58437492704E+02  0.18710187073E+03  0.12500000000E+03 0.  0.
         25    1    1    2    0    0 -0.12236497082E+02 -0.42718958726E+02 -0.53199025156E+02  0.14293277291E+03  0.12500000000E+03 0.  0.
</event>
<event>
 5    0  0.5670250E-005  0.3251458E+03  0.7546771E-02  0.1073305E+00
         21   -1    0    0  502  501  0.00000000000E+00  0.00000000000E+00  0.10008643929E+04  0.10008643929E+04  0.00000000000E+00 0.  1.
         21   -1    0    0  501  502 -0.00000000000E+00 -0.00000000000E+00 -0.10562849496E+03  0.10562849496E+03  0.00000000000E+00 0.  1.
         25    1    1    2    0    0  0.13445203848E+03 -0.60180528071E+02  0.11575886805E+03  0.22522025252E+03  0.12500000000E+03 0.  0.
         25    1    1    2    0    0  0.23357041981E+02 -0.39165797621E+02  0.10225674210E+03  0.16781225348E+03  0.12500000000E+03 0.  0.
         25    1    1    2    0    0 -0.15780908046E+03  0.99346325692E+02  0.67722028773E+03  0.71346038182E+03  0.12500000000E+03 0.  0.
</event>
<event>
 5    0  0.5670250E-005  0.2718061E+03  0.7546771E-02  0.1100250E+00
         21   -1    0    0  502  501  0.00000000000E+00  0.00000000000E+00  0.20935466047E+02  0.20935466047E+02  0.00000000000E+00 0. -1.
         21   -1    0    0  501  502 -0.00000000000E+00 -0.00000000000E+00 -0.35288711605E+04  0.35288711605E+04  0.00000000000E+00 0. -1.
         25    1    1    2    0    0  0.60845833018E+02 -0.31895862466E+02 -0.25242879558E+04  0.25283145067E+04  0.12500000000E+03 0.  0.
         25    1    1    2    0    0  0.11200217546E+01  0.39611292021E+02 -0.56972157244E+03  0.58461780593E+03  0.12500000000E+03 0.  0.
         25    1    1    2    0    0 -0.61965854773E+02 -0.77154295544E+01 -0.41392616623E+03  0.43687431385E+03  0.12500000000E+03 0.  0.
</event>
<event>
 5    0  0.5670250E-005  0.2956747E+03  0.7546771E-02  0.1087423E+00
         21   -1    0    0  502  501  0.00000000000E+00  0.00000000000E+00  0.27207672495E+03  0.27207672495E+03  0.00000000000E+00 0. -1.
         21   -1    0    0  501  502 -0.00000000000E+00 -0.00000000000E+00 -0.32131946373E+03  0.32131946373E+03  0.00000000000E+00 0. -1.
         25    1    1    2    0    0 -0.60057084165E+01 -0.12277830460E+03 -0.45207909846E+02  0.18105064410E+03  0.12500000000E+03 0.  0.
         25    1    1    2    0    0 -0.11359422443E+03 -0.37363343196E+02 -0.28565982207E+02  0.17533021011E+03  0.12500000000E+03 0.  0.
         25    1    1    2    0    0  0.11959993284E+03  0.16014164780E+03  0.24531153271E+02  0.23701533448E+03  0.12500000000E+03 0.  0.
</event>
<event>
 5    0  0.5670250E-005  0.2357564E+03  0.7546771E-02  0.1122653E+00
         21   -1    0    0  502  501  0.00000000000E+00  0.00000000000E+00  0.11984246829E+03  0.11984246829E+03  0.00000000000E+00 0.  1.
         21   -1    0    0  501  502 -0.00000000000E+00 -0.00000000000E+00 -0.46378446477E+03  0.46378446477E+03  0.00000000000E+00 0.  1.
         25    1    1    2    0    0 -0.15771795104E+02 -0.51057563780E+01  0.10025820026E+01  0.12609846724E+03  0.12500000000E+03 0.  0.
         25    1    1    2    0    0 -0.11226612997E+02  0.43544013184E+02 -0.66143669474E+02  0.14839846002E+03  0.12500000000E+03 0.  0.
         25    1    1    2    0    0  0.26998408101E+02 -0.38438256806E+02 -0.27880090901E+03  0.30913000581E+03  0.12500000000E+03 0.  0.
</event>
<event>
 5    0  0.5670250E-005  0.2382317E+03  0.7546771E-02  0.1120976E+00
         21   -1    0    0  502  501  0.00000000000E+00  0.00000000000E+00  0.15100330884E+03  0.15100330884E+03  0.00000000000E+00 0.  1.
         21   -1    0    0  501  502 -0.00000000000E+00 -0.00000000000E+00 -0.37584832960E+03  0.37584832960E+03  0.00000000000E+00 0.  1.
         25    1    1    2    0    0  0.22460616670E+02 -0.21501618673E+01 -0.18339222611E+01  0.12703332542E+03  0.12500000000E+03 0.  0.
         25    1    1    2    0    0  0.62515347317E+02  0.75791080346E+02 -0.74885066702E+02  0.17574194071E+03  0.12500000000E+03 0.  0.
         25    1    1    2    0    0 -0.84975963987E+02 -0.73640918479E+02 -0.14812603180E+03  0.22407637230E+03  0.12500000000E+03 0.  0.
</event>
<event>
 5    0  0.5670250E-005  0.5118894E+03  0.7546771E-02  0.1010721E+00
         21   -1    0    0  502  501  0.00000000000E+00  0.00000000000E+00  0.22463619167E+04  0.22463619167E+04  0.00000000000E+00 0. -1.
         21   -1    0    0  501  502 -0.00000000000E+00 -0.00000000000E+00 -0.11664673496E+03  0.11664673496E+03  0.00000000000E+00 0. -1.
         25    1    1    2    0    0 -0.60669989071E+02 -0.67504373016E+02  0.26970488208E+03  0.31081089326E+03  0.12500000000E+03 0.  0.
         25    1    1    2    0    0 -0.73243971855E+02  0.14800559392E+03  0.27655730641E+02  0.20895017272E+03  0.12500000000E+03 0.  0.
         25    1    1    2    0    0  0.13391396093E+03 -0.80501220903E+02  0.18323545691E+04  0.18432475857E+04  0.12500000000E+03 0.  0.
</event>
<event>
 5    0  0.5670250E-005  0.2989196E+03  0.7546771E-02  0.1085782E+00
         21   -1    0    0  502  501  0.00000000000E+00  0.00000000000E+00  0.26747003629E+03  0.26747003629E+03  0.00000000000E+00 0.  1.
         21   -1    0    0  501  502 -0.00000000000E+00 -0.00000000000E+00 -0.33406697772E+03  0.33406697772E+03  0.00000000000E+00 0.  1.
         25    1    1    2    0    0  0.43637789922E+02 -0.41214056955E+02 -0.14944967544E+03  0.20387020550E+03  0.12500000000E+03 0.  0.
         25    1    1    2    0    0 -0.58437064076E+02 -0.14964757788E+02  0.18126522552E+03  0.22830005786E+03  0.12500000000E+03 0.  0.
         25    1    1    2    0    0  0.14799274154E+02  0.56178814743E+02 -0.98412491513E+02  0.16936675065E+03  0.12500000000E+03 0.  0.
</event>
<event>
 5    0  0.5670250E-005  0.2739883E+03  0.7546771E-02  0.1099018E+00
         21   -1    0    0  502  501  0.00000000000E+00  0.00000000000E+00  0.48245031440E+03  0.48245031440E+03  0.00000000000E+00 0. -1.
         21   -1    0    0  501  502 -0.00000000000E+00 -0.00000000000E+00 -0.15560063914E+03  0.15560063914E+03  0.00000000000E+00 0. -1.
         25    1    1    2    0    0  0.16511705182E+02  0.60350708314E+02  0.24200606943E+02  0.14186442041E+03  0.12500000000E+03 0.  0.
         25    1    1    2    0    0 -0.70383545756E+02  0.84053168953E+02  0.23224431188E+03  0.28562422714E+03  0.12500000000E+03 0.  0.
         25    1    1    2    0    0  0.53871840574E+02 -0.14440387727E+03  0.70404756426E+02  0.21056230599E+03  0.12500000000E+03 0.  0.
</event>
<event>
 5    0  0.5670250E-005  0.3267605E+03  0.7546771E-02  0.1072579E+00
         21   -1    0    0  502  501  0.00000000000E+00  0.00000000000E+00  0.18003115600E+03  0.18003115600E+03  0.00000000000E+00 0. -1.
         21   -1    0    0  501  502 -0.00000000000E+00 -0.00000000000E+00 -0.59307731738E+03  0.59307731738E+03  0.00000000000E+00 0. -1.
         25    1    1    2    0    0  0.46893342251E+02 -0.47571197776E+02  0.84106338468E+02  0.16480558418E+03  0.12500000000E+03 0.  0.
         25    1    1    2    0    0 -0.12041689165E+03  0.93633602625E+02 -0.30493406197E+03  0.36314908988E+03  0.12500000000E+03 0.  0.
         25    1    1    2    0    0  0.73523549398E+02 -0.46062404849E+02 -0.19221843788E+03  0.24515379931E+03  0.12500000000E+03 0.  0.
</event>
<event>
 5    0  0.5670250E-005  0.3712992E+03  0.7546771E-02  0.1054197E+00
         21   -1    0    0  502  501  0.00000000000E+00  0.00000000000E+00  0.55602162307E+03  0.55602162307E+03  0.00000000000E+00 0.  1.
         21   -1    0    0  501  502 -0.00000000000E+00 -0.00000000000E+00 -0.24794562074E+03  0.24794562074E+03  0.00000000000E+00 0.  1.
         25    1    1    2    0    0  0.80944948502E+02  0.30472030594E+02  0.26907828960E+03  0.30904490817E+03  0.12500000000E+03 0.  0.
         25    1    1    2    0    0  0.58647334822E+02 -0.87500170692E+02  0.18777560743E+03  0.24895876867E+03  0.12500000000E+03 0.  0.
         25    1    1    2    0    0 -0.13959228332E+03  0.57028140098E+02 -0.14877789469E+03  0.24596356697E+03  0.12500000000E+03 0.  0.
</event>
<event>
 5    0  0.5670250E-005  0.2619162E+03  0.7546771E-02  0.1105997E+00
         21   -1    0    0  502  501  0.00000000000E+00  0.00000000000E+00  0.40393471140E+03  0.40393471140E+03  0.00000000000E+00 0.  1.
         21   -1    0    0  501  502 -0.00000000000E+00 -0.00000000000E+00 -0.16982968035E+03  0.16982968035E+03  0.00000000000E+00 0.  1.
         25    1    1    2    0    0 -0.78716264606E+02  0.53252131603E+02  0.33006208418E+01  0.15706028757E+03  0.12500000000E+03 0.  0.
         25    1    1    2    0    0 -0.42899020778E+02 -0.99302271842E+02  0.92666201690E+02  0.18950802651E+03  0.12500000000E+03 0.  0.
         25    1    1    2    0    0  0.12161528538E+03  0.46050140239E+02  0.13813820852E+03  0.22719607767E+03  0.12500000000E+03 0.  0.
</event>
<event>
 5    0  0.5670250E-005  0.2603270E+03  0.7546771E-02  0.1106947E+00
         21   -1    0    0  502  501  0.00000000000E+00  0.00000000000E+00  0.37880800990E+02  0.37880800990E+02  0.00000000000E+00 0.  1.
         21   -1    0    0  501  502 -0.00000000000E+00 -0.00000000000E+00 -0.17890361940E+04  0.17890361940E+04  0.00000000000E+00 0.  1.
         25    1    1    2    0    0 -0.93317305365E+02  0.44166266599E+02 -0.59620007476E+03  0.61784974527E+03  0.12500000000E+03 0.  0.
         25    1    1    2    0    0  0.86445923235E+02  0.43980947972E+02 -0.88221872844E+03  0.89629353798E+03  0.12500000000E+03 0.  0.
         25    1    1    2    0    0  0.68713821300E+01 -0.88147214570E+02 -0.27273658980E+03  0.31277371173E+03  0.12500000000E+03 0.  0.
</event>
<event>
 5    0  0.5670250E-005  0.3247575E+03  0.7546771E-02  0.1073480E+00
         21   -1    0    0  502  501  0.00000000000E+00  0.00000000000E+00  0.55298768391E+03  0.55298768391E+03  0.00000000000E+00 0.  1.
         21   -1    0    0  501  502 -0.00000000000E+00 -0.00000000000E+00 -0.19072291592E+03  0.19072291592E+03  0.00000000000E+00 0.  1.
         25    1    1    2    0    0 -0.15733087374E+03  0.99476417813E+02  0.18611912404E+03  0.29139987966E+03  0.12500000000E+03 0.  0.
         25    1    1    2    0    0  0.21130654407E+03 -0.89515228836E+01  0.14681032228E+03  0.28619723279E+03  0.12500000000E+03 0.  0.
         25    1    1    2    0    0 -0.53975670335E+02 -0.90524894929E+02  0.29335321676E+02  0.16611348738E+03  0.12500000000E+03 0.  0.
</event>
<event>
 5    0  0.5670250E-005  0.7439068E+03  0.7546771E-02  0.9644958E-01
         21   -1    0    0  502  501  0.00000000000E+00  0.00000000000E+00  0.35198527561E+03  0.35198527561E+03  0.00000000000E+00 0.  1.
         21   -1    0    0  501  502 -0.00000000000E+00 -0.00000000000E+00 -0.15722172142E+04  0.15722172142E+04  0.00000000000E+00 0.  1.
         25    1    1    2    0    0 -0.32940978881E+03  0.87424884815E+02 -0.10963040445E+04  0.11548426202E+04  0.12500000000E+03 0.  0.
         25    1    1    2    0    0  0.35615737036E+02 -0.19666758326E+03 -0.30572252579E+03  0.38605424723E+03  0.12500000000E+03 0.  0.
         25    1    1    2    0    0  0.29379405178E+03  0.10924269845E+03  0.18179463170E+03  0.38330562237E+03  0.12500000000E+03 0.  0.
</event>
<event>
 5    0  0.5670250E-005  0.6137711E+03  0.7546771E-02  0.9877240E-01
         21   -1    0    0  502  501  0.00000000000E+00  0.00000000000E+00  0.30878768717E+03  0.30878768717E+03  0.00000000000E+00 0.  1.
         21   -1    0    0  501  502 -0.00000000000E+00 -0.00000000000E+00 -0.12199804850E+04  0.12199804850E+04  0.00000000000E+00 0.  1.
         25    1    1    2    0    0 -0.58516233617E+02 -0.34650292000E+03 -0.41995106664E+03  0.56166922787E+03  0.12500000000E+03 0.  0.
         25    1    1    2    0    0  0.19686996175E+03  0.46285653323E+03 -0.11426399297E+03  0.53073082846E+03  0.12500000000E+03 0.  0.
         25    1    1    2    0    0 -0.13835372813E+03 -0.11635361323E+03 -0.37697773820E+03  0.43636811581E+03  0.12500000000E+03 0.  0.
</event>
<event>
 5    0  0.5670250E-005  0.8538591E+03  0.7546771E-02  0.9485172E-01
         21   -1    0    0  502  501  0.00000000000E+00  0.00000000000E+00  0.86404898366E+03  0.86404898366E+03  0.00000000000E+00 0. -1.
         21   -1    0    0  501  502 -0.00000000000E+00 -0.00000000000E+00 -0.84378944755E+03  0.84378944755E+03  0.00000000000E+00 0. -1.
         25    1    1    2    0    0 -0.58935741758E+02 -0.41817363734E+03  0.24007949274E+03  0.50160320519E+03  0.12500000000E+03 0.  0.
         25    1    1    2    0    0 -0.12891750837E+03 -0.26565650382E+03  0.19491477612E+03  0.37524641496E+03  0.12500000000E+03 0.  0.
         25    1    1    2    0    0  0.18785325013E+03  0.68383014117E+03 -0.41473473276E+03  0.83098881106E+03  0.12500000000E+03 0.  0.
</event>
<event>
 5    0  0.5670250E-005  0.2200010E+03  0.7546771E-02  0.1133882E+00
         21   -1    0    0  502  501  0.00000000000E+00  0.00000000000E+00  0.42410268674E+03  0.42410268674E+03  0.00000000000E+00 0. -1.
         21   -1    0    0  501  502 -0.00000000000E+00 -0.00000000000E+00 -0.11412429014E+03  0.11412429014E+03  0.00000000000E+00 0. -1.
         25    1    1    2    0    0  0.19669293520E+01  0.76774734940E+02  0.58215992170E+02  0.15783640417E+03  0.12500000000E+03 0.  0.
         25    1    1    2    0    0  0.25244502921E+02 -0.81654037164E+02  0.17374245388E+03  0.23046931899E+03  0.12500000000E+03 0.  0.
         25    1    1    2    0    0 -0.27211432273E+02  0.48793022237E+01  0.78019950545E+02  0.14992125373E+03  0.12500000000E+03 0.  0.
</event>
<event>
 5    0  0.5670250E-005  0.5266777E+03  0.7546771E-02  0.1007041E+00
         21   -1    0    0  502  501  0.00000000000E+00  0.00000000000E+00  0.29462056098E+03  0.29462056098E+03  0.00000000000E+00 0.  1.
         21   -1    0    0  501  502 -0.00000000000E+00 -0.00000000000E+00 -0.94151399767E+03  0.94151399767E+03  0.00000000000E+00 0.  1.
         25    1    1    2    0    0 -0.26597687325E+03 -0.21906557464E+03  0.94048316278E+02  0.37842239481E+03  0.12500000000E+03 0.  0.
         25    1    1    2    0    0  0.17895739237E+03  0.14274057090E+03 -0.47464518167E+03  0.54158440463E+03  0.12500000000E+03 0.  0.
         25    1    1    2    0    0  0.87019480888E+02  0.76325003749E+02 -0.26629657130E+03  0.31612775920E+03  0.12500000000E+03 0.  0.
</event>
<event>
 5    0  0.5670250E-005  0.3530984E+03  0.7546771E-02  0.1061350E+00
         21   -1    0    0  502  501  0.00000000000E+00  0.00000000000E+00  0.31300403268E+04  0.31300403268E+04  0.00000000000E+00 0.  1.
         21   -1    0    0  501  502 -0.00000000000E+00 -0.00000000000E+00 -0.39832870234E+02  0.39832870234E+02  0.00000000000E+00 0.  1.
         25    1    1    2    0    0 -0.12819086677E+03 -0.43475851496E+02  0.63361410674E+03  0.65985974589E+03  0.12500000000E+03 0.  0.
         25    1    1    2    0    0  0.23071271835E+03 -0.54168034776E+02  0.82244777443E+03  0.86499010171E+03  0.12500000000E+03 0.  0.
         25    1    1    2    0    0 -0.10252185159E+03  0.97643886272E+02  0.16341455754E+04  0.16450233495E+04  0.12500000000E+03 0.  0.
</event>
<event>
 5    0  0.5670250E-005  0.3091563E+03  0.7546771E-02  0.1080751E+00
         21   -1    0    0  502  501  0.00000000000E+00  0.00000000000E+00  0.12687244086E+04  0.12687244086E+04  0.00000000000E+00 0.  1.
         21   -1    0    0  501  502 -0.00000000000E+00 -0.00000000000E+00 -0.75333643772E+02  0.75333643772E+02  0.00000000000E+00 0.  1.
         25    1    1    2    0    0  0.70811006811E+02  0.19966052708E+02  0.71240034610E+02  0.16159512517E+03  0.12500000000E+03 0.  0.
         25    1    1    2    0    0 -0.37910759343E+02  0.81712837998E+02  0.85483964033E+03  0.86861385221E+03  0.12500000000E+03 0.  0.
         25    1    1    2    0    0 -0.32900247468E+02 -0.10167889071E+03  0.26731108988E+03  0.31384907499E+03  0.12500000000E+03 0.  0.
</event>
<event>
 5    0  0.5670250E-005  0.3949702E+03  0.7546771E-02  0.1045535E+00
         21   -1    0    0  502  501  0.00000000000E+00  0.00000000000E+00  0.88845734124E+03  0.88845734124E+03  0.00000000000E+00 0.  1.
         21   -1    0    0  501  502 -0.00000000000E+00 -0.00000000000E+00 -0.17558685867E+03  0.17558685867E+03  0.00000000000E+00 0.  1.
         25    1    1    2    0    0  0.78399369200E+02  0.15165322015E+03 -0.37449886019E+02  0.21487823118E+03  0.12500000000E+03 0.  0.
         25    1    1    2    0    0 -0.13878269262E+03 -0.27978964649E+01  0.44046269334E+03  0.47843583500E+03  0.12500000000E+03 0.  0.
         25    1    1    2    0    0  0.60383323418E+02 -0.14885532368E+03  0.30985767526E+03  0.37073013373E+03  0.12500000000E+03 0.  0.
</event>
<event>
 5    0  0.6707730E-005  0.2962059E+03  0.7546771E-02  0.1087153E+00
         21   -1    0    0  502  501  0.00000000000E+00  0.00000000000E+00  0.41264032914E+03  0.41264032914E+03  0.00000000000E+00 0.  1.
         21   -1    0    0  501  502 -0.00000000000E+00 -0.00000000000E+00 -0.21262569033E+03  0.21262569033E+03  0.00000000000E+00 0.  1.
         25    1    1    2    0    0 -0.64865023163E+01 -0.26845461689E+01  0.30238812025E+03  0.32728100582E+03  0.12500000000E+03 0.  0.
         25    1    1    2    0    0 -0.52291195890E+02 -0.25748718900E+02 -0.62561927362E+02  0.15144755015E+03  0.12500000000E+03 0.  0.
         25    1    1    2    0    0  0.58777698206E+02  0.28433265069E+02 -0.39811554087E+02  0.14653746350E+03  0.12500000000E+03 0.  0.
</event>
<event>
 5    0  0.5670250E-005  0.3570396E+03  0.7546771E-02  0.1059762E+00
         21   -1    0    0  502  501  0.00000000000E+00  0.00000000000E+00  0.26187327074E+03  0.26187327074E+03  0.00000000000E+00 0. -1.
         21   -1    0    0  501  502 -0.00000000000E+00 -0.00000000000E+00 -0.48679002078E+03  0.48679002078E+03  0.00000000000E+00 0. -1.
         25    1    1    2    0    0  0.51146644453E+02 -0.48100598385E+02  0.47134305202E+02  0.15091815507E+03  0.12500000000E+03 0.  0.
         25    1    1    2    0    0 -0.11058710118E+03  0.17992541180E+03  0.22679387000E+02  0.24645895268E+03  0.12500000000E+03 0.  0.
         25    1    1    2    0    0  0.59440456724E+02 -0.13182481342E+03 -0.29473044224E+03  0.35128618378E+03  0.12500000000E+03 0.  0.
</event>
<event>
 5    0  0.5670250E-005  0.2777648E+03  0.7546771E-02  0.1096916E+00
         21   -1    0    0  502  501  0.00000000000E+00  0.00000000000E+00  0.17237746852E+03  0.17237746852E+03  0.00000000000E+00 0. -1.
         21   -1    0    0  501  502 -0.00000000000E+00 -0.00000000000E+00 -0.44758337639E+03  0.44758337639E+03  0.00000000000E+00 0. -1.
         25    1    1    2    0    0 -0.63918255382E+02 -0.84674671263E+02 -0.53608921312E+02  0.17249423112E+03  0.12500000000E+03 0.  0.
         25    1    1    2    0    0  0.57088636122E+02  0.34675539833E+02  0.45022896792E+02  0.14870631013E+03  0.12500000000E+03 0.  0.
         25    1    1    2    0    0  0.68296192599E+01  0.49999131431E+02 -0.26661988336E+03  0.29876030366E+03  0.12500000000E+03 0.  0.
</event>
<event>
 5    0  0.5670250E-005  0.3960641E+03  0.7546771E-02  0.1045151E+00
         21   -1    0    0  502  501  0.00000000000E+00  0.00000000000E+00  0.29299002529E+03  0.29299002529E+03  0.00000000000E+00 0.  1.
         21   -1    0    0  501  502 -0.00000000000E+00 -0.00000000000E+00 -0.53539981445E+03  0.53539981445E+03  0.00000000000E+00 0.  1.
         25    1    1    2    0    0  0.17164611576E+03  0.26508709995E+03 -0.11450932957E+03  0.35842843941E+03  0.12500000000E+03 0.  0.
         25    1    1    2    0    0 -0.11462873408E+03 -0.19420562900E+03  0.16566759994E+02  0.25836994901E+03  0.12500000000E+03 0.  0.
         25    1    1    2    0    0 -0.57017381685E+02 -0.70881470950E+02 -0.14446721959E+03  0.21159145132E+03  0.12500000000E+03 0.  0.
</event>
<event>
 5    0  0.5670250E-005  0.3807473E+03  0.7546771E-02  0.1050658E+00
         21   -1    0    0  502  501  0.00000000000E+00  0.00000000000E+00  0.79757687571E+03  0.79757687571E+03  0.00000000000E+00 0. -1.
         21   -1    0    0  501  502 -0.00000000000E+00 -0.00000000000E+00 -0.18176114746E+03  0.18176114746E+03  0.00000000000E+00 0. -1.
         25    1    1    2    0    0 -0.11349556790E+03  0.17933828943E+03  0.24075492331E+03  0.34442909152E+03  0.12500000000E+03 0.  0.
         25    1    1    2    0    0 -0.10430894207E+03  0.87270566999E+01  0.24718238594E+03  0.29610918397E+03  0.12500000000E+03 0.  0.
         25    1    1    2    0    0  0.21780450997E+03 -0.18806534613E+03  0.12787841901E+03  0.33879974768E+03  0.12500000000E+03 0.  0.
</event>
<event>
 5    0  0.5763253E-005  0.2684297E+03  0.7546771E-02  0.1102182E+00
         21   -1    0    0  502  501  0.00000000000E+00  0.00000000000E+00  0.17720863629E+03  0.17720863629E+03  0.00000000000E+00 0.  1.
         21   -1    0    0  501  502 -0.00000000000E+00 -0.00000000000E+00 -0.40660841197E+03  0.40660841197E+03  0.00000000000E+00 0.  1.
         25    1    1    2    0    0  0.17990754637E+02 -0.85467395473E+02 -0.12473662801E+03  0.19700905895E+03  0.12500000000E+03 0.  0.
         25    1    1    2    0    0  0.67320805174E+01 -0.30411026475E+02 -0.16045065847E+03  0.20576580193E+03  0.12500000000E+03 0.  0.
         25    1    1    2    0    0 -0.24722835154E+02  0.11587842195E+03  0.55787510798E+02  0.18104218738E+03  0.12500000000E+03 0.  0.
</event>
<event>
 5    0  0.5670250E-005  0.2579921E+03  0.7546771E-02  0.1108356E+00
         21   -1    0    0  502  501  0.00000000000E+00  0.00000000000E+00  0.35797312040E+02  0.35797312040E+02  0.00000000000E+00 0. -1.
         21   -1    0    0  501  502 -0.00000000000E+00 -0.00000000000E+00 -0.18593551064E+04  0.18593551064E+04  0.00000000000E+00 0. -1.
         25    1    1    2    0    0 -0.62825072538E+02 -0.35616089713E+02 -0.38603562050E+03  0.41214560034E+03  0.12500000000E+03 0.  0.
         25    1    1    2    0    0 -0.64371082932E+02  0.41161019152E+02 -0.99727319614E+03  0.10079765342E+04  0.12500000000E+03 0.  0.
         25    1    1    2    0    0  0.12719615547E+03 -0.55449294391E+01 -0.44024897769E+03  0.47503028384E+03  0.12500000000E+03 0.  0.
</event>
<event>
 5    0  0.5670250E-005  0.2970569E+03  0.7546771E-02  0.1086721E+00
         21   -1    0    0  502  501  0.00000000000E+00  0.00000000000E+00  0.50639181076E+03  0.50639181076E+03  0.00000000000E+00 0. -1.
         21   -1    0    0  501  502 -0.00000000000E+00 -0.00000000000E+00 -0.17425797875E+03  0.17425797875E+03  0.00000000000E+00 0. -1.
         25    1    1    2    0    0  0.83017398752E+02 -0.30333069794E+02  0.13703990528E+03  0.20546756254E+03  0.12500000000E+03 0.  0.
         25    1    1    2    0    0 -0.11318660415E+03 -0.82229042326E+02  0.23399058937E+03  0.29991568594E+03  0.12500000000E+03 0.  0.
         25    1    1    2    0    0  0.30169205400E+02  0.11256211212E+03 -0.38896662629E+02  0.17526654103E+03  0.12500000000E+03 0.  0.
</event>
<event>
 5    0  0.5670250E-005  0.2836671E+03  0.7546771E-02  0.1093703E+00
         21   -1    0    0  502  501  0.00000000000E+00  0.00000000000E+00  0.37259601344E+03  0.37259601344E+03  0.00000000000E+00 0.  1.
         21   -1    0    0  501  502 -0.00000000000E+00 -0.00000000000E+00 -0.21596311430E+03  0.21596311430E+03  0.00000000000E+00 0.  1.
         25    1    1    2    0    0 -0.15651266417E+03  0.10954591866E+03  0.46305737698E+02  0.23295008840E+03  0.12500000000E+03 0.  0.
         25    1    1    2    0    0  0.73489203466E+02 -0.60721372609E+02 -0.94658496762E+01  0.15748761992E+03  0.12500000000E+03 0.  0.
         25    1    1    2    0    0  0.83023460703E+02 -0.48824546054E+02  0.11979301112E+03  0.19812141943E+03  0.12500000000E+03 0.  0.
</event>
<event>
 5    0  0.5670250E-005  0.3610186E+03  0.7546771E-02  0.1058181E+00
         21   -1    0    0  502  501  0.00000000000E+00  0.00000000000E+00  0.14152389582E+03  0.14152389582E+03  0.00000000000E+00 0. -1.
         21   -1    0    0  501  502 -0.00000000000E+00 -0.00000000000E+00 -0.92093566448E+03  0.92093566448E+03  0.00000000000E+00 0. -1.
         25    1    1    2    0    0  0.13283252360E+03 -0.57965599113E+02 -0.19463296587E+03  0.27296791279E+03  0.12500000000E+03 0.  0.
         25    1    1    2    0    0  0.13906167223E+03  0.93361781860E+02 -0.34933595458E+03  0.40708129429E+03  0.12500000000E+03 0.  0.
         25    1    1    2    0    0 -0.27189419584E+03 -0.35396182747E+02 -0.23544284820E+03  0.38241035322E+03  0.12500000000E+03 0.  0.
</event>
<event>
 5    0  0.5670250E-005  0.3441790E+03  0.7546771E-02  0.1065030E+00
         21   -1    0    0  502  501  0.00000000000E+00  0.00000000000E+00  0.26280522079E+03  0.26280522079E+03  0.00000000000E+00 0. -1.
         21   -1    0    0  501  502 -0.00000000000E+00 -0.00000000000E+00 -0.45074895739E+03  0.45074895739E+03  0.00000000000E+00 0. -1.
         25    1    1    2    0    0 -0.18587634467E+03 -0.84613109547E+02  0.88283594217E+02  0.25520263875E+03  0.12500000000E+03 0.  0.
         25    1    1    2    0    0  0.45184253224E+02  0.11094304432E+03 -0.15902515053E+03  0.23508290947E+03  0.12500000000E+03 0.  0.
         25    1    1    2    0    0  0.14069209145E+03 -0.26329934772E+02 -0.11720218028E+03  0.22326862996E+03  0.12500000000E+03 0.  0.
</event>
<event>
 5    0  0.5670250E-005  0.2464360E+03  0.7546771E-02  0.1115578E+00
         21   -1    0    0  502  501  0.00000000000E+00  0.00000000000E+00  0.54390957918E+03  0.54390957918E+03  0.00000000000E+00 0. -1.
         21   -1    0    0  501  502 -0.00000000000E+00 -0.00000000000E+00 -0.11165583963E+03  0.11165583963E+03  0.00000000000E+00 0. -1.
         25    1    1    2    0    0  0.26973209656E+02  0.25704441064E+02  0.87948877051E+02  0.15731585204E+03  0.12500000000E+03 0.  0.
         25    1    1    2    0    0  0.33808278792E+02 -0.65143641342E+02  0.32058659196E+03  0.35183441655E+03  0.12500000000E+03 0.  0.
         25    1    1    2    0    0 -0.60781488448E+02  0.39439200278E+02  0.23718270542E+02  0.14641515022E+03  0.12500000000E+03 0.  0.
</event>
<event>
 5    0  0.5670250E-005  0.2282503E+03  0.7546771E-02  0.1127877E+00
         21   -1    0    0  502  501  0.00000000000E+00  0.00000000000E+00  0.76040510489E+02  0.76040510489E+02  0.00000000000E+00 0.  1.
         21   -1    0    0  501  502 -0.00000000000E+00 -0.00000000000E+00 -0.68513745194E+03  0.68513745194E+03  0.00000000000E+00 0.  1.
         25    1    1    2    0    0  0.36428826359E+01  0.20885858809E+02 -0.13497235233E+03  0.18518106163E+03  0.12500000000E+03 0.  0.
         25    1    1    2    0    0  0.52609004030E+02 -0.52501161101E+02 -0.10051994162E+03  0.17678613601E+03  0.12500000000E+03 0.  0.
         25    1    1    2    0    0 -0.56251886666E+02  0.31615302292E+02 -0.37360464749E+03  0.39921076479E+03  0.12500000000E+03 0.  0.
</event>
<event>
 5    0  0.5670250E-005  0.2466710E+03  0.7546771E-02  0.1115427E+00
         21   -1    0    0  502  501  0.00000000000E+00  0.00000000000E+00  0.72910244340E+03  0.72910244340E+03  0.00000000000E+00 0.  1.
         21   -1    0    0  501  502 -0.00000000000E+00 -0.00000000000E+00 -0.83454101482E+02  0.83454101482E+02  0.00000000000E+00 0.  1.
         25    1    1    2    0    0  0.37144016273E+02 -0.28435450586E+02  0.11129582397E+03  0.17378151003E+03  0.12500000000E+03 0.  0.
         25    1    1    2    0    0 -0.10443827485E+03 -0.69794906617E+02  0.26113869816E+03  0.31559008527E+03  0.12500000000E+03 0.  0.
         25    1    1    2    0    0  0.67294258577E+02  0.98230357204E+02  0.27321381980E+03  0.32318494959E+03  0.12500000000E+03 0.  0.
</event>
<event>
 5    0  0.5670250E-005  0.3550178E+03  0.7546771E-02  0.1060574E+00
         21   -1    0    0  502  501  0.00000000000E+00  0.00000000000E+00  0.96854483195E+03  0.96854483195E+03  0.00000000000E+00 0.  1.
         21   -1    0    0  501  502 -0.00000000000E+00 -0.00000000000E+00 -0.13013094992E+03  0.13013094992E+03  0.00000000000E+00 0.  1.
         25    1    1    2    0    0  0.82690034263E+02 -0.74083834207E+02  0.22135089125E+03  0.27739371535E+03  0.12500000000E+03 0.  0.
         25    1    1    2    0    0  0.49220873075E+02  0.24918050574E+03  0.38926635808E+03  0.48131789528E+03  0.12500000000E+03 0.  0.
         25    1    1    2    0    0 -0.13191090734E+03 -0.17509667153E+03  0.22779663271E+03  0.33996417124E+03  0.12500000000E+03 0.  0.
</event>
<event>
 5    0  0.6582128E-005  0.4072155E+03  0.7546771E-02  0.1041309E+00
         21   -1    0    0  502  501  0.00000000000E+00  0.00000000000E+00  0.61066359273E+03  0.61066359273E+03  0.00000000000E+00 0.  1.
         21   -1    0    0  501  502 -0.00000000000E+00 -0.00000000000E+00 -0.27154793593E+03  0.27154793593E+03  0.00000000000E+00 0.  1.
         25    1    1    2    0    0  0.15958886255E+03 -0.44494834855E+02  0.23977456022E+03  0.31712022186E+03  0.12500000000E+03 0.  0.
         25    1    1    2    0    0 -0.19565212495E+03  0.91964561650E+02  0.25488397855E+03  0.35683060003E+03  0.12500000000E+03 0.  0.
         25    1    1    2    0    0  0.36063262391E+02 -0.47469726795E+02 -0.15554288197E+03  0.20826070678E+03  0.12500000000E+03 0.  0.
</event>
<event>
 5    0  0.5670250E-005  0.4505932E+03  0.7546771E-02  0.1027545E+00
         21   -1    0    0  502  501  0.00000000000E+00  0.00000000000E+00  0.10199082578E+03  0.10199082578E+03  0.00000000000E+00 0.  1.
         21   -1    0    0  501  502 -0.00000000000E+00 -0.00000000000E+00 -0.19907104853E+04  0.19907104853E+04  0.00000000000E+00 0.  1.
         25    1    1    2    0    0 -0.38001365765E+02 -0.90316234762E+02 -0.16619779591E+04  0.16695498982E+04  0.12500000000E+03 0.  0.
         25    1    1    2    0    0  0.12616578991E+03  0.10032656211E+03 -0.12863075859E+03  0.24115160722E+03  0.12500000000E+03 0.  0.
         25    1    1    2    0    0 -0.88164424149E+02 -0.10010327349E+02 -0.98110941775E+02  0.18199980559E+03  0.12500000000E+03 0.  0.
</event>
<event>
 5    0  0.5670250E-005  0.3077853E+03  0.7546771E-02  0.1081412E+00
         21   -1    0    0  502  501  0.00000000000E+00  0.00000000000E+00  0.39694389607E+03  0.39694389607E+03  0.00000000000E+00 0.  1.
         21   -1    0    0  501  502 -0.00000000000E+00 -0.00000000000E+00 -0.23865287707E+03  0.23865287707E+03  0.00000000000E+00 0.  1.
         25    1    1    2    0    0 -0.34563719857E+02  0.76429025142E+02  0.22181778521E+03  0.26807494558E+03  0.12500000000E+03 0.  0.
         25    1    1    2    0    0  0.99480030038E+02  0.55381770496E+02 -0.29148761073E+02  0.17157525215E+03  0.12500000000E+03 0.  0.
         25    1    1    2    0    0 -0.64916310181E+02 -0.13181079564E+03 -0.34378005129E+02  0.19594657540E+03  0.12500000000E+03 0.  0.
</event>
<event>
 5    0  0.5670250E-005  0.3411230E+03  0.7546771E-02  0.1066319E+00
         21   -1    0    0  502  501  0.00000000000E+00  0.00000000000E+00  0.92915720448E+02  0.92915720448E+02  0.00000000000E+00 0.  1.
         21   -1    0    0  501  502 -0.00000000000E+00 -0.00000000000E+00 -0.12523705917E+04  0.12523705917E+04  0.00000000000E+00 0.  1.
         25    1    1    2    0    0 -0.12342750867E+03  0.12569928556E+03 -0.17677615702E+03  0.27912267908E+03  0.12500000000E+03 0.  0.
         25    1    1    2    0    0  0.10113129796E+03 -0.17218627157E+03 -0.36919977575E+03  0.43796018764E+03  0.12500000000E+03 0.  0.
         25    1    1    2    0    0  0.22296210710E+02  0.46486986012E+02 -0.61347893850E+03  0.62820344544E+03  0.12500000000E+03 0.  0.
</event>
<event>
 5    0  0.5670250E-005  0.4796766E+03  0.7546771E-02  0.1019224E+00
         21   -1    0    0  502  501  0.00000000000E+00  0.00000000000E+00  0.39539516907E+03  0.39539516907E+03  0.00000000000E+00 0.  1.
         21   -1    0    0  501  502 -0.00000000000E+00 -0.00000000000E+00 -0.58192315825E+03  0.58192315825E+03  0.00000000000E+00 0.  1.
         25    1    1    2    0    0  0.91631795183E+02 -0.12361552401E+03  0.23346433297E+03  0.30628055511E+03  0.12500000000E+03 0.  0.
         25    1    1    2    0    0  0.12114621057E+03 -0.88875884846E+02 -0.12789100342E+03  0.23357319195E+03  0.12500000000E+03 0.  0.
         25    1    1    2    0    0 -0.21277800576E+03  0.21249140886E+03 -0.29210131874E+03  0.43746458026E+03  0.12500000000E+03 0.  0.
</event>
<event>
 5    0  0.5670250E-005  0.4656945E+03  0.7546771E-02  0.1023142E+00
         21   -1    0    0  502  501  0.00000000000E+00  0.00000000000E+00  0.16628317659E+03  0.16628317659E+03  0.00000000000E+00 0.  1.
         21   -1    0    0  501  502 -0.00000000000E+00 -0.00000000000E+00 -0.13042293501E+04  0.13042293501E+04  0.00000000000E+00 0.  1.
         25    1    1    2    0    0  0.31804718729E+01 -0.28595012496E+03 -0.18290273064E+03  0.36174023586E+03  0.12500000000E+03 0.  0.
         25    1    1    2    0    0  0.91441408304E+02 -0.93289723518E+01 -0.85455515373E+02  0.17713330005E+03  0.12500000000E+03 0.  0.
         25    1    1    2    0    0 -0.94621880177E+02  0.29527909731E+03 -0.86958792753E+03  0.93163899083E+03  0.12500000000E+03 0.  0.
</event>
<event>
 5    0  0.5670250E-005  0.3507346E+03  0.7546771E-02  0.1062314E+00
         21   -1    0    0  502  501  0.00000000000E+00  0.00000000000E+00  0.39484524141E+03  0.39484524141E+03  0.00000000000E+00 0. -1.
         21   -1    0    0  501  502 -0.00000000000E+00 -0.00000000000E+00 -0.31155191790E+03  0.31155191790E+03  0.00000000000E+00 0. -1.
         25    1    1    2    0    0  0.92148673878E+02 -0.10382363345E+03 -0.79100030883E+01  0.18697136976E+03  0.12500000000E+03 0.  0.
         25    1    1    2    0    0 -0.96078036176E+02 -0.55017464994E+02  0.22263167764E+03  0.27829440235E+03  0.12500000000E+03 0.  0.
         25    1    1    2    0    0  0.39293622974E+01  0.15884109844E+03 -0.13142835103E+03  0.24113138721E+03  0.12500000000E+03 0.  0.
</event>
<event>
 5    0  0.5670250E-005  0.2313929E+03  0.7546771E-02  0.1125663E+00
         21   -1    0    0  502  501  0.00000000000E+00  0.00000000000E+00  0.16375186746E+03  0.16375186746E+03  0.00000000000E+00 0. -1.
         21   -1    0    0  501  502 -0.00000000000E+00 -0.00000000000E+00 -0.32697431088E+03  0.32697431088E+03  0.00000000000E+00 0. -1.
         25    1    1    2    0    0 -0.30740525084E+02 -0.91026376478E+02 -0.13047184152E+03  0.20464281694E+03  0.12500000000E+03 0.  0.
         25    1    1    2    0    0 -0.10892559548E+02  0.79125123068E+02  0.52960991005E+01  0.14843342487E+03  0.12500000000E+03 0.  0.
         25    1    1    2    0    0  0.41633084632E+02  0.11901253410E+02 -0.38046700995E+02  0.13764993652E+03  0.12500000000E+03 0.  0.
</event>
<event>
 5    0  0.5670250E-005  0.2976002E+03  0.7546771E-02  0.1086446E+00
         21   -1    0    0  502  501  0.00000000000E+00  0.00000000000E+00  0.16061192671E+04  0.16061192671E+04  0.00000000000E+00 0.  1.
         21   -1    0    0  501  502 -0.00000000000E+00 -0.00000000000E+00 -0.55142794588E+02  0.55142794588E+02  0.00000000000E+00 0.  1.
         25    1    1    2    0    0 -0.87033458610E+02 -0.87991234656E+01  0.92901812035E+03  0.94146264686E+03  0.12500000000E+03 0.  0.
         25    1    1    2    0    0 -0.32686417592E+02 -0.75582901095E+02  0.15890352293E+03  0.21830370229E+03  0.12500000000E+03 0.  0.
         25    1    1    2    0    0  0.11971987620E+03  0.84382024560E+02  0.46305482928E+03  0.50149571259E+03  0.12500000000E+03 0.  0.
</event>
<event>
 5    0  0.5670250E-005  0.3505107E+03  0.7546771E-02  0.1062406E+00
         21   -1    0    0  502  501  0.00000000000E+00  0.00000000000E+00  0.29828006810E+03  0.29828006810E+03  0.00000000000E+00 0.  1.
         21   -1    0    0  501  502 -0.00000000000E+00 -0.00000000000E+00 -0.41188726489E+03  0.41188726489E+03  0.00000000000E+00 0.  1.
         25    1    1    2    0    0 -0.94854703855E+02 -0.16895045741E+03  0.15203216333E+03  0.27618915727E+03  0.12500000000E+03 0.  0.
         25    1    1    2    0    0  0.95463346672E+02  0.86045428255E+02 -0.82781641297E+02  0.19747117870E+03  0.12500000000E+03 0.  0.
         25    1    1    2    0    0 -0.60864281724E+00  0.82905029156E+02 -0.18285771883E+03  0.23650699702E+03  0.12500000000E+03 0.  0.
</event>
<event>
 5    0  0.5670250E-005  0.2379579E+03  0.7546771E-02  0.1121161E+00
         21   -1    0    0  502  501  0.00000000000E+00  0.00000000000E+00  0.82066941928E+02  0.82066941928E+02  0.00000000000E+00 0. -1.
         21   -1    0    0  501  502 -0.00000000000E+00 -0.00000000000E+00 -0.68997305445E+03  0.68997305445E+03  0.00000000000E+00 0. -1.
         25    1    1    2    0    0  0.86581995580E+02  0.12266573578E+02 -0.12526324781E+03  0.19738994918E+03  0.12500000000E+03 0.  0.
         25    1    1    2    0    0 -0.12965427931E+02 -0.25409042066E+02 -0.92203487154E+02  0.15792468073E+03  0.12500000000E+03 0.  0.
         25    1    1    2    0    0 -0.73616567649E+02  0.13142468488E+02 -0.39043937755E+03  0.41672536646E+03  0.12500000000E+03 0.  0.
</event>
<event>
 5    0  0.5670250E-005  0.2237064E+03  0.7546771E-02  0.1131150E+00
         21   -1    0    0  502  501  0.00000000000E+00  0.00000000000E+00  0.69786564525E+03  0.69786564525E+03  0.00000000000E+00 0.  1.
         21   -1    0    0  501  502 -0.00000000000E+00 -0.00000000000E+00 -0.71710885456E+02  0.71710885456E+02  0.00000000000E+00 0.  1.
         25    1    1    2    0    0  0.69279592464E+02 -0.91202605643E+01  0.17005025266E+03  0.22231718223E+03  0.12500000000E+03 0.  0.
         25    1    1    2    0    0 -0.21008072115E+00  0.19246303820E+02  0.34053888591E+03  0.36326601432E+03  0.12500000000E+03 0.  0.
         25    1    1    2    0    0 -0.69069511743E+02 -0.10126043255E+02  0.11556562122E+03  0.18399333415E+03  0.12500000000E+03 0.  0.
</event>
<event>
 5    0  0.5670250E-005  0.3656583E+03  0.7546771E-02  0.1056366E+00
         21   -1    0    0  502  501  0.00000000000E+00  0.00000000000E+00  0.13140413504E+03  0.13140413504E+03  0.00000000000E+00 0.  1.
         21   -1    0    0  501  502 -0.00000000000E+00 -0.00000000000E+00 -0.10175173775E+04  0.10175173775E+04  0.00000000000E+00 0.  1.
         25    1    1    2    0    0  0.26800678876E+02 -0.19928221537E+03 -0.25395913406E+03  0.34720587484E+03  0.12500000000E+03 0.  0.
         25    1    1    2    0    0  0.19670051350E+02  0.21875312016E+03 -0.61619205139E+03  0.66600111313E+03  0.12500000000E+03 0.  0.
         25    1    1    2    0    0 -0.46470730225E+02 -0.19470904780E+02 -0.15962056965E+02  0.13571452451E+03  0.12500000000E+03 0.  0.
</event>
<event>
 5    0  0.5670250E-005  0.2282337E+03  0.7546771E-02  0.1127889E+00
         21   -1    0    0  502  501  0.00000000000E+00  0.00000000000E+00  0.22814839685E+03  0.22814839685E+03  0.00000000000E+00 0.  1.
         21   -1    0    0  501  502 -0.00000000000E+00 -0.00000000000E+00 -0.22831911991E+03  0.22831911991E+03  0.00000000000E+00 0.  1.
         25    1    1    2    0    0  0.10395407836E+03  0.21846892484E+02  0.23764164976E+02  0.16575123727E+03  0.12500000000E+03 0.  0.
         25    1    1    2    0    0 -0.48066193561E+01 -0.30876285111E+02  0.17765324548E+01  0.12885885550E+03  0.12500000000E+03 0.  0.
         25    1    1    2    0    0 -0.99147459006E+02  0.90293926277E+01 -0.25711420491E+02  0.16185742399E+03  0.12500000000E+03 0.  0.
</event>
<event>
 5    0  0.5670250E-005  0.2620987E+03  0.7546771E-02  0.1105889E+00
         21   -1    0    0  502  501  0.00000000000E+00  0.00000000000E+00  0.58323198541E+02  0.58323198541E+02  0.00000000000E+00 0.  1.
         21   -1    0    0  501  502 -0.00000000000E+00 -0.00000000000E+00 -0.11778457151E+04  0.11778457151E+04  0.00000000000E+00 0.  1.
         25    1    1    2    0    0  0.14861903828E+03  0.82916213663E+02 -0.42630986705E+03  0.47573923505E+03  0.12500000000E+03 0.  0.
         25    1    1    2    0    0 -0.50985040161E+02 -0.43486814800E+02 -0.24161491313E+03  0.28016663546E+03  0.12500000000E+03 0.  0.
         25    1    1    2    0    0 -0.97633998116E+02 -0.39429398863E+02 -0.45159773638E+03  0.48026304312E+03  0.12500000000E+03 0.  0.
</event>
<event>
 5    0  0.5670250E-005  0.5461028E+03  0.7546771E-02  0.1002400E+00
         21   -1    0    0  502  501  0.00000000000E+00  0.00000000000E+00  0.16357808108E+04  0.16357808108E+04  0.00000000000E+00 0.  1.
         21   -1    0    0  501  502 -0.00000000000E+00 -0.00000000000E+00 -0.18231554246E+03  0.18231554246E+03  0.00000000000E+00 0.  1.
         25    1    1    2    0    0 -0.24523511632E+03  0.25945211131E+03  0.23858726218E+03  0.44721867360E+03  0.12500000000E+03 0.  0.
         25    1    1    2    0    0 -0.61443622590E+02  0.53198592641E+02  0.14448792441E+03  0.20762266089E+03  0.12500000000E+03 0.  0.
         25    1    1    2    0    0  0.30667873891E+03 -0.31265070395E+03  0.10703900818E+04  0.11632550188E+04  0.12500000000E+03 0.  0.
</event>
<event>
 5    0  0.5670250E-005  0.3134922E+03  0.7546771E-02  0.1078684E+00
         21   -1    0    0  502  501  0.00000000000E+00  0.00000000000E+00  0.72053588910E+02  0.72053588910E+02  0.00000000000E+00 0.  1.
         21   -1    0    0  501  502 -0.00000000000E+00 -0.00000000000E+00 -0.13639484414E+04  0.13639484414E+04  0.00000000000E+00 0.  1.
         25    1    1    2    0    0  0.10246933610E+03  0.32693409575E+02 -0.15964694719E+03  0.22952335746E+03  0.12500000000E+03 0.  0.
         25    1    1    2    0    0 -0.72503548233E+02 -0.66170953273E+02 -0.16115462283E+03  0.22634304059E+03  0.12500000000E+03 0.  0.
         25    1    1    2    0    0 -0.29965787871E+02  0.33477543698E+02 -0.97109328244E+03  0.98013563224E+03  0.12500000000E+03 0.  0.
</event>
<event>
 5    0  0.5670250E-005  0.4898119E+03  0.7546771E-02  0.1016473E+00
         21   -1    0    0  502  501  0.00000000000E+00  0.00000000000E+00  0.70942385851E+03  0.70942385851E+03  0.00000000000E+00 0. -1.
         21   -1    0    0  501  502 -0.00000000000E+00 -0.00000000000E+00 -0.33818390126E+03  0.33818390126E+03  0.00000000000E+00 0. -1.
         25    1    1    2    0    0  0.36743918634E+03 -0.11602614666E+03  0.38078538903E+03  0.55596414891E+03  0.12500000000E+03 0.  0.
         25    1    1    2    0    0 -0.18908109985E+03  0.13052109730E+03 -0.58317128058E+02  0.26798004886E+03  0.12500000000E+03 0.  0.
         25    1    1    2    0    0 -0.17835808649E+03 -0.14494950649E+02  0.48771696273E+02  0.22366356201E+03  0.12500000000E+03 0.  0.
</event>
<event>
 5    0  0.5670250E-005  0.2885672E+03  0.7546771E-02  0.1091100E+00
         21   -1    0    0  502  501  0.00000000000E+00  0.00000000000E+00  0.16073282482E+04  0.16073282482E+04  0.00000000000E+00 0.  1.
         21   -1    0    0  501  502 -0.00000000000E+00 -0.00000000000E+00 -0.51807115319E+02  0.51807115319E+02  0.00000000000E+00 0.  1.
         25    1    1    2    0    0  0.12052694585E+03  0.37455168106E+02  0.22831140791E+03  0.28927622314E+03  0.12500000000E+03 0.  0.
         25    1    1    2    0    0 -0.74534878280E+02  0.24248068570E+02  0.10051921091E+04  0.10159623975E+04  0.12500000000E+03 0.  0.
         25    1    1    2    0    0 -0.45992067572E+02 -0.61703236676E+02  0.32201761585E+03  0.35389674287E+03  0.12500000000E+03 0.  0.
</event>
<event>
 5    0  0.5670250E-005  0.2783361E+03  0.7546771E-02  0.1096601E+00
         21   -1    0    0  502  501  0.00000000000E+00  0.00000000000E+00  0.69310328195E+03  0.69310328195E+03  0.00000000000E+00 0.  1.
         21   -1    0    0  501  502 -0.00000000000E+00 -0.00000000000E+00 -0.11177405343E+03  0.11177405343E+03  0.00000000000E+00 0.  1.
         25    1    1    2    0    0  0.12414095691E+03 -0.34800992094E+01  0.10446597491E+03  0.20484439994E+03  0.12500000000E+03 0.  0.
         25    1    1    2    0    0 -0.16306413565E+03 -0.41955838994E+02  0.19692459473E+03  0.28767082016E+03  0.12500000000E+03 0.  0.
         25    1    1    2    0    0  0.38923178744E+02  0.45435938203E+02  0.27993865889E+03  0.31236211528E+03  0.12500000000E+03 0.  0.
</event>
<event>
 5    0  0.5670250E-005  0.2154113E+03  0.7546771E-02  0.1137351E+00
         21   -1    0    0  502  501  0.00000000000E+00  0.00000000000E+00  0.44043986846E+03  0.44043986846E+03  0.00000000000E+00 0.  1.
         21   -1    0    0  501  502 -0.00000000000E+00 -0.00000000000E+00 -0.10535378557E+03  0.10535378557E+03  0.00000000000E+00 0.  1.
         25    1    1    2    0    0 -0.34191157768E+02  0.25976672919E+01  0.78983593551E+02  0.15178666343E+03  0.12500000000E+03 0.  0.
         25    1    1    2    0    0 -0.38735972116E+02 -0.15945655778E+02  0.19716446052E+03  0.23717833789E+03  0.12500000000E+03 0.  0.
         25    1    1    2    0    0  0.72927129884E+02  0.13347988486E+02  0.58938028820E+02  0.15682865271E+03  0.12500000000E+03 0.  0.
</event>
<event>
 5    0  0.5670250E-005  0.2803359E+03  0.7546771E-02  0.1095506E+00
         21   -1    0    0  502  501  0.00000000000E+00  0.00000000000E+00  0.39356484314E+03  0.39356484314E+03  0.00000000000E+00 0. -1.
         21   -1    0    0  501  502 -0.00000000000E+00 -0.00000000000E+00 -0.19968308228E+03  0.19968308228E+03  0.00000000000E+00 0. -1.
         25    1    1    2    0    0  0.61324664073E+00 -0.10319007470E+03  0.16112242650E+02  0.16289006093E+03  0.12500000000E+03 0.  0.
         25    1    1    2    0    0  0.32726089909E+01  0.19817724020E+03  0.11759687632E+03  0.26218114696E+03  0.12500000000E+03 0.  0.
         25    1    1    2    0    0 -0.38858556316E+01 -0.94987165501E+02  0.60172641890E+02  0.16817671752E+03  0.12500000000E+03 0.  0.
</event>
<event>
 5    0  0.5670250E-005  0.5308140E+03  0.7546771E-02  0.1006035E+00
         21   -1    0    0  502  501  0.00000000000E+00  0.00000000000E+00  0.51788925809E+03  0.51788925809E+03  0.00000000000E+00 0. -1.
         21   -1    0    0  501  502 -0.00000000000E+00 -0.00000000000E+00 -0.54406138543E+03  0.54406138543E+03  0.00000000000E+00 0. -1.
         25    1    1    2    0    0 -0.45792464607E+03  0.81824752249E+02  0.68021858662E+02  0.48645888296E+03  0.12500000000E+03 0.  0.
         25    1    1    2    0    0  0.24301605148E+03 -0.10648674726E+03  0.32991810131E+02  0.29514350434E+03  0.12500000000E+03 0.  0.
         25    1    1    2    0    0  0.21490859459E+03  0.24661995013E+02 -0.12718579614E+03  0.28034825622E+03  0.12500000000E+03 0.  0.
</event>
<event>
 5    0  0.5670250E-005  0.2316731E+03  0.7546771E-02  0.1125468E+00
         21   -1    0    0  502  501  0.00000000000E+00  0.00000000000E+00  0.22774851092E+03  0.22774851092E+03  0.00000000000E+00 0.  1.
         21   -1    0    0  501  502 -0.00000000000E+00 -0.00000000000E+00 -0.23566532638E+03  0.23566532638E+03  0.00000000000E+00 0.  1.
         25    1    1    2    0    0 -0.47024047878E+02  0.49152581867E+01  0.62025004027E+02  0.14733472763E+03  0.12500000000E+03 0.  0.
         25    1    1    2    0    0 -0.53106940873E+02 -0.43767668379E+02 -0.21502721248E+02  0.14430288627E+03  0.12500000000E+03 0.  0.
         25    1    1    2    0    0  0.10013098875E+03  0.38852410193E+02 -0.48439098241E+02  0.17177622340E+03  0.12500000000E+03 0.  0.
</event>
<event>
 5    0  0.5670250E-005  0.2950620E+03  0.7546771E-02  0.1087735E+00
         21   -1    0    0  502  501  0.00000000000E+00  0.00000000000E+00  0.38548435434E+03  0.38548435434E+03  0.00000000000E+00 0. -1.
         21   -1    0    0  501  502 -0.00000000000E+00 -0.00000000000E+00 -0.22584979940E+03  0.22584979940E+03  0.00000000000E+00 0. -1.
         25    1    1    2    0    0  0.64512117677E+02 -0.12709481698E+03  0.15427430813E+03  0.24441863263E+03  0.12500000000E+03 0.  0.
         25    1    1    2    0    0 -0.13113694403E+03  0.79936453660E+02 -0.55570715733E+02  0.20566924700E+03  0.12500000000E+03 0.  0.
         25    1    1    2    0    0  0.66624826351E+02  0.47158363320E+02  0.60930962552E+02  0.16124627411E+03  0.12500000000E+03 0.  0.
</event>
<event>
 5    0  0.5670250E-005  0.2219391E+03  0.7546771E-02  0.1132446E+00
         21   -1    0    0  502  501  0.00000000000E+00  0.00000000000E+00  0.25208685025E+03  0.25208685025E+03  0.00000000000E+00 0.  1.
         21   -1    0    0  501  502 -0.00000000000E+00 -0.00000000000E+00 -0.19539675714E+03  0.19539675714E+03  0.00000000000E+00 0.  1.
         25    1    1    2    0    0  0.25992145675E+02 -0.24322630715E+01 -0.75797850133E+02  0.14849855765E+03  0.12500000000E+03 0.  0.
         25    1    1    2    0    0 -0.10736232254E+02 -0.42942821923E+02  0.49786359885E+02  0.14164404071E+03  0.12500000000E+03 0.  0.
         25    1    1    2    0    0 -0.15255913421E+02  0.45375084995E+02  0.82701583351E+02  0.15734100903E+03  0.12500000000E+03 0.  0.
</event>
<event>
 5    0  0.5761983E-005  0.3488171E+03  0.7546771E-02  0.1063102E+00
         21   -1    0    0  502  501  0.00000000000E+00  0.00000000000E+00  0.20377927372E+03  0.20377927372E+03  0.00000000000E+00 0.  1.
         21   -1    0    0  501  502 -0.00000000000E+00 -0.00000000000E+00 -0.59708426790E+03  0.59708426790E+03  0.00000000000E+00 0.  1.
         25    1    1    2    0    0 -0.58152737103E+02 -0.58005476228E+02 -0.33518369533E+03  0.36704153133E+03  0.12500000000E+03 0.  0.
         25    1    1    2    0    0  0.15486553262E+03  0.12327419002E+03 -0.10492092123E+03  0.25654094962E+03  0.12500000000E+03 0.  0.
         25    1    1    2    0    0 -0.96712795518E+02 -0.65268713792E+02  0.46799622381E+02  0.17728106067E+03  0.12500000000E+03 0.  0.
</event>
<event>
 5    0  0.5670250E-005  0.3110618E+03  0.7546771E-02  0.1079838E+00
         21   -1    0    0  502  501  0.00000000000E+00  0.00000000000E+00  0.33967345465E+03  0.33967345465E+03  0.00000000000E+00 0.  1.
         21   -1    0    0  501  502 -0.00000000000E+00 -0.00000000000E+00 -0.28486017043E+03  0.28486017043E+03  0.00000000000E+00 0.  1.
         25    1    1    2    0    0 -0.53945632593E+01 -0.19293996688E+03 -0.60598002904E+02  0.23780674946E+03  0.12500000000E+03 0.  0.
         25    1    1    2    0    0  0.23978332849E+01  0.17093096774E+03  0.14463131364E+03  0.25644953153E+03  0.12500000000E+03 0.  0.
         25    1    1    2    0    0  0.29967299744E+01  0.22008999144E+02 -0.29220026512E+02  0.13027734409E+03  0.12500000000E+03 0.  0.
</event>
<event>
 5    0  0.5753455E-005  0.2936285E+03  0.7546771E-02  0.1088470E+00
         21   -1    0    0  502  501  0.00000000000E+00  0.00000000000E+00  0.53292211875E+03  0.53292211875E+03  0.00000000000E+00 0.  1.
         21   -1    0    0  501  502 -0.00000000000E+00 -0.00000000000E+00 -0.16178288298E+03  0.16178288298E+03  0.00000000000E+00 0.  1.
         25    1    1    2    0    0 -0.15635751060E+03  0.14378577122E+02  0.74935172324E+02  0.21423047088E+03  0.12500000000E+03 0.  0.
         25    1    1    2    0    0  0.32904502669E+02  0.55627714227E+02  0.24826495520E+03  0.28537280330E+03  0.12500000000E+03 0.  0.
         25    1    1    2    0    0  0.12345300793E+03 -0.70006291349E+02  0.47939108244E+02  0.19510172755E+03  0.12500000000E+03 0.  0.
</event>
<event>
 5    0  0.6164577E-005  0.2781375E+03  0.7546771E-02  0.1096711E+00
         21   -1    0    0  502  501  0.00000000000E+00  0.00000000000E+00  0.71388985639E+03  0.71388985639E+03  0.00000000000E+00 0.  1.
         21   -1    0    0  501  502 -0.00000000000E+00 -0.00000000000E+00 -0.10836469220E+03  0.10836469220E+03  0.00000000000E+00 0.  1.
         25    1    1    2    0    0  0.36615678026E+02  0.79272175732E+02  0.21097162104E+03  0.26030522586E+03  0.12500000000E+03 0.  0.
         25    1    1    2    0    0 -0.70191570106E+02  0.99835758463E+02  0.21629687575E+03  0.27803484250E+03  0.12500000000E+03 0.  0.
         25    1    1    2    0    0  0.33575892079E+02 -0.17910793419E+03  0.17825666739E+03  0.28391448024E+03  0.12500000000E+03 0.  0.
</event>
<event>
 5    0  0.5670250E-005  0.2737469E+03  0.7546771E-02  0.1099154E+00
         21   -1    0    0  502  501  0.00000000000E+00  0.00000000000E+00  0.18880332805E+03  0.18880332805E+03  0.00000000000E+00 0. -1.
         21   -1    0    0  501  502 -0.00000000000E+00 -0.00000000000E+00 -0.39690700456E+03  0.39690700456E+03  0.00000000000E+00 0. -1.
         25    1    1    2    0    0 -0.48202860691E+02 -0.99849856994E+02  0.39200212952E+02  0.17162507514E+03  0.12500000000E+03 0.  0.
         25    1    1    2    0    0  0.66962455899E+02 -0.33429070496E+02 -0.13602578365E+03  0.19932257040E+03  0.12500000000E+03 0.  0.
         25    1    1    2    0    0 -0.18759595207E+02  0.13327892749E+03 -0.11127810581E+03  0.21476268707E+03  0.12500000000E+03 0.  0.
</event>
<event>
 5    0  0.5670250E-005  0.2624331E+03  0.7546771E-02  0.1105690E+00
         21   -1    0    0  502  501  0.00000000000E+00  0.00000000000E+00  0.89413844900E+02  0.89413844900E+02  0.00000000000E+00 0. -1.
         21   -1    0    0  501  502 -0.00000000000E+00 -0.00000000000E+00 -0.77025156060E+03  0.77025156060E+03  0.00000000000E+00 0. -1.
         25    1    1    2    0    0 -0.12956693075E+03  0.36135588356E+02 -0.45674565400E+03  0.49227529162E+03  0.12500000000E+03 0.  0.
         25    1    1    2    0    0  0.38734207128E+02 -0.54119302520E+01 -0.12637582740E+03  0.18200405914E+03  0.12500000000E+03 0.  0.
         25    1    1    2    0    0  0.90832723622E+02 -0.30723658104E+02 -0.97716234292E+02  0.18538605474E+03  0.12500000000E+03 0.  0.
</event>
<event>
 5    0  0.5670250E-005  0.3373454E+03  0.7546771E-02  0.1067932E+00
         21   -1    0    0  502  501  0.00000000000E+00  0.00000000000E+00  0.12942070951E+03  0.12942070951E+03  0.00000000000E+00 0.  1.
         21   -1    0    0  501  502 -0.00000000000E+00 -0.00000000000E+00 -0.87931747498E+03  0.87931747498E+03  0.00000000000E+00 0.  1.
         25    1    1    2    0    0 -0.43860356245E+02  0.14530405125E+03 -0.36310649045E+03  0.41292653289E+03  0.12500000000E+03 0.  0.
         25    1    1    2    0    0 -0.77152126316E+02  0.80698112170E+02 -0.13143492814E+03  0.21299008484E+03  0.12500000000E+03 0.  0.
         25    1    1    2    0    0  0.12101248256E+03 -0.22600216342E+03 -0.25535534688E+03  0.38282156677E+03  0.12500000000E+03 0.  0.
</event>
<event>
 5    0  0.5670250E-005  0.2854513E+03  0.7546771E-02  0.1092748E+00
         21   -1    0    0  502  501  0.00000000000E+00  0.00000000000E+00  0.10901062240E+03  0.10901062240E+03  0.00000000000E+00 0. -1.
         21   -1    0    0  501  502 -0.00000000000E+00 -0.00000000000E+00 -0.74747238199E+03  0.74747238199E+03  0.00000000000E+00 0. -1.
         25    1    1    2    0    0  0.50722303426E+02 -0.41625707136E+02 -0.44473072945E+03  0.46660033570E+03  0.12500000000E+03 0.  0.
         25    1    1    2    0    0 -0.98777942001E+02  0.17475685798E+02 -0.19675277965E+03  0.25376985187E+03  0.12500000000E+03 0.  0.
         25    1    1    2    0    0  0.48055638575E+02  0.24150021338E+02  0.30217495160E+01  0.13611281681E+03  0.12500000000E+03 0.  0.
</event>
<event>
 5    0  0.5670250E-005  0.2788251E+03  0.7546771E-02  0.1096332E+00
         21   -1    0    0  502  501  0.00000000000E+00  0.00000000000E+00  0.33643782973E+03  0.33643782973E+03  0.00000000000E+00 0.  1.
         21   -1    0    0  501  502 -0.00000000000E+00 -0.00000000000E+00 -0.23107814421E+03  0.23107814421E+03  0.00000000000E+00 0.  1.
         25    1    1    2    0    0  0.54774594082E+02 -0.12210418337E+03  0.53060287638E+02  0.19065697437E+03  0.12500000000E+03 0.  0.
         25    1    1    2    0    0  0.44588508862E+02  0.13387317154E+02 -0.67556932686E+02  0.14952021448E+03  0.12500000000E+03 0.  0.
         25    1    1    2    0    0 -0.99363102944E+02  0.10871686621E+03  0.11985633057E+03  0.22733878508E+03  0.12500000000E+03 0.  0.
</event>
<event>
 5    0  0.5670250E-005  0.3560364E+03  0.7546771E-02  0.1060164E+00
         21   -1    0    0  502  501  0.00000000000E+00  0.00000000000E+00  0.16662329363E+03  0.16662329363E+03  0.00000000000E+00 0.  1.
         21   -1    0    0  501  502 -0.00000000000E+00 -0.00000000000E+00 -0.76076966617E+03  0.76076966617E+03  0.00000000000E+00 0.  1.
         25    1    1    2    0    0  0.23235756587E+03  0.18589191355E+02 -0.15501421156E+03  0.30657788935E+03  0.12500000000E+03 0.  0.
         25    1    1    2    0    0 -0.88891616053E+02 -0.14444692310E+03 -0.21107138373E+03  0.29823273132E+03  0.12500000000E+03 0.  0.
         25    1    1    2    0    0 -0.14346594982E+03  0.12585773175E+03 -0.22806077725E+03  0.32258233913E+03  0.12500000000E+03 0.  0.
</event>
<event>
 5    0  0.5670250E-005  0.3240174E+03  0.7546771E-02  0.1073815E+00
         21   -1    0    0  502  501  0.00000000000E+00  0.00000000000E+00  0.26811073011E+03  0.26811073011E+03  0.00000000000E+00 0. -1.
         21   -1    0    0  501  502 -0.00000000000E+00 -0.00000000000E+00 -0.39158178409E+03  0.39158178409E+03  0.00000000000E+00 0. -1.
         25    1    1    2    0    0  0.78990108709E+02 -0.11515631525E+03 -0.16430397871E+03  0.24924127194E+03  0.12500000000E+03 0.  0.
         25    1    1    2    0    0  0.21852898317E+02  0.19158436955E+03  0.35364958778E+02  0.23250333359E+03  0.12500000000E+03 0.  0.
         25    1    1    2    0    0 -0.10084300703E+03 -0.76428054300E+02  0.54679659621E+01  0.17794790868E+03  0.12500000000E+03 0.  0.
</event>
<event>
 5    0  0.5670250E-005  0.2571665E+03  0.7546771E-02  0.1108858E+00
         21   -1    0    0  502  501  0.00000000000E+00  0.00000000000E+00  0.81027883068E+02  0.81027883068E+02  0.00000000000E+00 0. -1.
         21   -1    0    0  501  502 -0.00000000000E+00 -0.00000000000E+00 -0.81619596692E+03  0.81619596692E+03  0.00000000000E+00 0. -1.
         25    1    1    2    0    0  0.15191521796E+03 -0.17387585686E+02 -0.37470030235E+03  0.42356331070E+03  0.12500000000E+03 0.  0.
         25    1    1    2    0    0 -0.75692483991E+02  0.21844288688E+01 -0.10914282802E+03  0.18240416873E+03  0.12500000000E+03 0.  0.
         25    1    1    2    0    0 -0.76222733970E+02  0.15203156817E+02 -0.25132495348E+03  0.29125637056E+03  0.12500000000E+03 0.  0.
</event>
<event>
 5    0  0.5670250E-005  0.2639644E+03  0.7546771E-02  0.1104784E+00
         21   -1    0    0  502  501  0.00000000000E+00  0.00000000000E+00  0.38519432720E+03  0.38519432720E+03  0.00000000000E+00 0.  1.
         21   -1    0    0  501  502 -0.00000000000E+00 -0.00000000000E+00 -0.18088846952E+03  0.18088846952E+03  0.00000000000E+00 0.  1.
         25    1    1    2    0    0  0.61080656954E+02 -0.94637558179E+02  0.17755901620E+03  0.24462076425E+03  0.12500000000E+03 0.  0.
         25    1    1    2    0    0 -0.20233358604E+02 -0.62497957673E+01  0.76917144804E+02  0.14828923060E+03  0.12500000000E+03 0.  0.
         25    1    1    2    0    0 -0.40847298350E+02  0.10088735395E+03 -0.50170303317E+02  0.17317280186E+03  0.12500000000E+03 0.  0.
</event>
<event>
 5    0  0.6491801E-005  0.3321424E+03  0.7546771E-02  0.1070193E+00
         21   -1    0    0  502  501  0.00000000000E+00  0.00000000000E+00  0.45756323457E+03  0.45756323457E+03  0.00000000000E+00 0.  1.
         21   -1    0    0  501  502 -0.00000000000E+00 -0.00000000000E+00 -0.24110010732E+03  0.24110010732E+03  0.00000000000E+00 0.  1.
         25    1    1    2    0    0  0.79868788570E+02 -0.11710783383E+03  0.13161489784E+03  0.23030577384E+03  0.12500000000E+03 0.  0.
         25    1    1    2    0    0 -0.13383428419E+03  0.18081396357E+03  0.15716500279E+03  0.30154791187E+03  0.12500000000E+03 0.  0.
         25    1    1    2    0    0  0.53965495624E+02 -0.63706129746E+02 -0.72316773379E+02  0.16680965619E+03  0.12500000000E+03 0.  0.
</event>
<event>
 5    0  0.5670250E-005  0.2804164E+03  0.7546771E-02  0.1095462E+00
         21   -1    0    0  502  501  0.00000000000E+00  0.00000000000E+00  0.82857959671E+02  0.82857959671E+02  0.00000000000E+00 0. -1.
         21   -1    0    0  501  502 -0.00000000000E+00 -0.00000000000E+00 -0.94901393230E+03  0.94901393230E+03  0.00000000000E+00 0. -1.
         25    1    1    2    0    0 -0.11464051112E+03 -0.68041375143E+02 -0.11720834862E+03  0.21710567129E+03  0.12500000000E+03 0.  0.
         25    1    1    2    0    0  0.52721998921E+02 -0.35641852876E+02 -0.41874921581E+03  0.44161731916E+03  0.12500000000E+03 0.  0.
         25    1    1    2    0    0  0.61918512194E+02  0.10368322802E+03 -0.33019840820E+03  0.37314890151E+03  0.12500000000E+03 0.  0.
</event>
<event>
 5    0  0.5670250E-005  0.4148897E+03  0.7546771E-02  0.1038742E+00
         21   -1    0    0  502  501  0.00000000000E+00  0.00000000000E+00  0.40762546771E+03  0.40762546771E+03  0.00000000000E+00 0.  1.
         21   -1    0    0  501  502 -0.00000000000E+00 -0.00000000000E+00 -0.42228336189E+03  0.42228336189E+03  0.00000000000E+00 0.  1.
         25    1    1    2    0    0  0.23323934691E+03 -0.94576968018E+02 -0.70734891420E+01  0.28110572757E+03  0.12500000000E+03 0.  0.
         25    1    1    2    0    0  0.26652787572E+02  0.14138688731E+03 -0.13138647805E+03  0.23149088450E+03  0.12500000000E+03 0.  0.
         25    1    1    2    0    0 -0.25989213448E+03 -0.46809919294E+02  0.12380207302E+03  0.31731221753E+03  0.12500000000E+03 0.  0.
</event>
<event>
 5    0  0.5670250E-005  0.4553166E+03  0.7546771E-02  0.1026148E+00
         21   -1    0    0  502  501  0.00000000000E+00  0.00000000000E+00  0.13127712600E+04  0.13127712600E+04  0.00000000000E+00 0.  1.
         21   -1    0    0  501  502 -0.00000000000E+00 -0.00000000000E+00 -0.15792029124E+03  0.15792029124E+03  0.00000000000E+00 0.  1.
         25    1    1    2    0    0  0.29009284599E+03  0.77883228790E+02  0.68975312455E+03  0.76262968041E+03  0.12500000000E+03 0.  0.
         25    1    1    2    0    0 -0.84120298502E+02 -0.32764717519E+02 -0.28636991692E+02  0.15682738481E+03  0.12500000000E+03 0.  0.
         25    1    1    2    0    0 -0.20597254749E+03 -0.45118511272E+02  0.49373483589E+03  0.55123448599E+03  0.12500000000E+03 0.  0.
</event>
<event>
 5    0  0.5670250E-005  0.3898672E+03  0.7546771E-02  0.1047346E+00
         21   -1    0    0  502  501  0.00000000000E+00  0.00000000000E+00  0.60419413758E+03  0.60419413758E+03  0.00000000000E+00 0.  1.
         21   -1    0    0  501  502 -0.00000000000E+00 -0.00000000000E+00 -0.25156885269E+03  0.25156885269E+03  0.00000000000E+00 0.  1.
         25    1    1    2    0    0  0.15187070744E+03 -0.14604940669E+03  0.23426739787E+03  0.33897102336E+03  0.12500000000E+03 0.  0.
         25    1    1    2    0    0 -0.15317635653E+03 -0.10204293810E+03  0.25832233563E+02  0.22398227989E+03  0.12500000000E+03 0.  0.
         25    1    1    2    0    0  0.13056490812E+01  0.24809234479E+03  0.92525653453E+02  0.29280968701E+03  0.12500000000E+03 0.  0.
</event>
<event>
 5    0  0.5670250E-005  0.2886626E+03  0.7546771E-02  0.1091049E+00
         21   -1    0    0  502  501  0.00000000000E+00  0.00000000000E+00  0.49835088268E+02  0.49835088268E+02  0.00000000000E+00 0. -1.
         21   -1    0    0  501  502 -0.00000000000E+00 -0.00000000000E+00 -0.16720364998E+04  0.16720364998E+04  0.00000000000E+00 0. -1.
         25    1    1    2    0    0 -0.80743162725E+02  0.13729963857E+02 -0.35569342233E+03  0.38581184653E+03  0.12500000000E+03 0.  0.
         25    1    1    2    0    0 -0.10074575984E+03  0.68917883572E+01 -0.26117386241E+03  0.30664962299E+03  0.12500000000E+03 0.  0.
         25    1    1    2    0    0  0.18148892257E+03 -0.20621752214E+02 -0.10053341268E+04  0.10294101186E+04  0.12500000000E+03 0.  0.
</event>
<event>
 5    0  0.6429366E-005  0.3795735E+03  0.7546771E-02  0.1051092E+00
         21   -1    0    0  502  501  0.00000000000E+00  0.00000000000E+00  0.36367259454E+03  0.36367259454E+03  0.00000000000E+00 0.  1.
         21   -1    0    0  501  502 -0.00000000000E+00 -0.00000000000E+00 -0.39616963104E+03  0.39616963104E+03  0.00000000000E+00 0.  1.
         25    1    1    2    0    0 -0.15501917790E+03 -0.52917884985E+02 -0.14592697967E+03  0.25248946802E+03  0.12500000000E+03 0.  0.
         25    1    1    2    0    0  0.20490640031E+03  0.57510002082E+02 -0.90572069244E+02  0.26291126441E+03  0.12500000000E+03 0.  0.
         25    1    1    2    0    0 -0.49887222408E+02 -0.45921170966E+01  0.20400201241E+03  0.24444149314E+03  0.12500000000E+03 0.  0.
</event>
<event>
 5    0  0.5999964E-005  0.2833638E+03  0.7546771E-02  0.1093866E+00
         21   -1    0    0  502  501  0.00000000000E+00  0.00000000000E+00  0.29209996542E+03  0.29209996542E+03  0.00000000000E+00 0.  1.
         21   -1    0    0  501  502 -0.00000000000E+00 -0.00000000000E+00 -0.27488893897E+03  0.27488893897E+03  0.00000000000E+00 0.  1.
         25    1    1    2    0    0  0.89374681307E+02 -0.10053885277E+03  0.20769713509E+02  0.18480334298E+03  0.12500000000E+03 0.  0.
         25    1    1    2    0    0  0.66883250231E+02  0.60918957753E+02 -0.67484576360E+02  0.16841513181E+03  0.12500000000E+03 0.  0.
         25    1    1    2    0    0 -0.15625793154E+03  0.39619895020E+02  0.63925889305E+02  0.21377042960E+03  0.12500000000E+03 0.  0.
</event>
<event>
 5    0  0.5670250E-005  0.2342047E+03  0.7546771E-02  0.1123715E+00
         21   -1    0    0  502  501  0.00000000000E+00  0.00000000000E+00  0.14202061486E+03  0.14202061486E+03  0.00000000000E+00 0.  1.
         21   -1    0    0  501  502 -0.00000000000E+00 -0.00000000000E+00 -0.38622454680E+03  0.38622454680E+03  0.00000000000E+00 0.  1.
         25    1    1    2    0    0  0.59111715925E+02  0.63995335353E+02 -0.14177712416E+03  0.20812340291E+03  0.12500000000E+03 0.  0.
         25    1    1    2    0    0 -0.50147487771E+02 -0.37920737207E+02 -0.12794430721E+03  0.18959825576E+03  0.12500000000E+03 0.  0.
         25    1    1    2    0    0 -0.89642281534E+01 -0.26074598145E+02  0.25517499429E+02  0.13052350299E+03  0.12500000000E+03 0.  0.
</event>
<event>
 5    0  0.5670250E-005  0.2989220E+03  0.7546771E-02  0.1085781E+00
         21   -1    0    0  502  501  0.00000000000E+00  0.00000000000E+00  0.38372204402E+03  0.38372204402E+03  0.00000000000E+00 0.  1.
         21   -1    0    0  501  502 -0.00000000000E+00 -0.00000000000E+00 -0.23286228182E+03  0.23286228182E+03  0.00000000000E+00 0.  1.
         25    1    1    2    0    0 -0.16272588803E+03  0.26260136075E+01 -0.55608282366E+02  0.21261206845E+03  0.12500000000E+03 0.  0.
         25    1    1    2    0    0  0.16389053515E+03 -0.52372352246E+02  0.12830237126E+03  0.24837364849E+03  0.12500000000E+03 0.  0.
         25    1    1    2    0    0 -0.11646471279E+01  0.49746338639E+02  0.78165673309E+02  0.15559860891E+03  0.12500000000E+03 0.  0.
</event>
<event>
 5    0  0.5670250E-005  0.2263641E+03  0.7546771E-02  0.1129225E+00
         21   -1    0    0  502  501  0.00000000000E+00  0.00000000000E+00  0.50055970396E+02  0.50055970396E+02  0.00000000000E+00 0. -1.
         21   -1    0    0  501  502 -0.00000000000E+00 -0.00000000000E+00 -0.10236683315E+04  0.10236683315E+04  0.00000000000E+00 0. -1.
         25    1    1    2    0    0  0.19134456976E+02 -0.66119415152E+02 -0.45335905698E+03  0.47528658623E+03  0.12500000000E+03 0.  0.
         25    1    1    2    0    0  0.50305082416E+02  0.64135509736E+02 -0.21958571295E+03  0.26549359739E+03  0.12500000000E+03 0.  0.
         25    1    1    2    0    0 -0.69439539392E+02  0.19839054161E+01 -0.30066759122E+03  0.33294411832E+03  0.12500000000E+03 0.  0.
</event>
<event>
 5    0  0.5670250E-005  0.2672508E+03  0.7546771E-02  0.1102863E+00
         21   -1    0    0  502  501  0.00000000000E+00  0.00000000000E+00  0.25434790537E+03  0.25434790537E+03  0.00000000000E+00 0. -1.
         21   -1    0    0  501  502 -0.00000000000E+00 -0.00000000000E+00 -0.28080822369E+03  0.28080822369E+03  0.00000000000E+00 0. -1.
         25    1    1    2    0    0 -0.10724113428E+03  0.76756962114E+02  0.10932798990E+03  0.21206107962E+03  0.12500000000E+03 0.  0.
         25    1    1    2    0    0  0.70469267937E+02 -0.18438098404E+02 -0.36498619688E+02  0.14920801063E+03  0.12500000000E+03 0.  0.
         25    1    1    2    0    0  0.36771866339E+02 -0.58318863711E+02 -0.99289688537E+02  0.17388703882E+03  0.12500000000E+03 0.  0.
</event>
<event>
 5    0  0.5670250E-005  0.2465654E+03  0.7546771E-02  0.1115495E+00
         21   -1    0    0  502  501  0.00000000000E+00  0.00000000000E+00  0.16138015395E+03  0.16138015395E+03  0.00000000000E+00 0.  1.
         21   -1    0    0  501  502 -0.00000000000E+00 -0.00000000000E+00 -0.37671596947E+03  0.37671596947E+03  0.00000000000E+00 0.  1.
         25    1    1    2    0    0  0.54296304133E+02 -0.10009492627E+03 -0.54231993386E+02  0.17757587678E+03  0.12500000000E+03 0.  0.
         25    1    1    2    0    0 -0.61959094505E+02  0.41141347530E+02 -0.16764474618E+03  0.22194886977E+03  0.12500000000E+03 0.  0.
         25    1    1    2    0    0  0.76627903725E+01  0.58953578738E+02  0.65409240481E+01  0.13857137688E+03  0.12500000000E+03 0.  0.
</event>
<event>
 5    0  0.5670250E-005  0.2576171E+03  0.7546771E-02  0.1108583E+00
         21   -1    0    0  502  501  0.00000000000E+00  0.00000000000E+00  0.66211960089E+03  0.66211960089E+03  0.00000000000E+00 0.  1.
         21   -1    0    0  501  502 -0.00000000000E+00 -0.00000000000E+00 -0.10023353956E+03  0.10023353956E+03  0.00000000000E+00 0.  1.
         25    1    1    2    0    0  0.67996510586E+01 -0.11325638835E+03  0.70804278306E+02  0.18306143937E+03  0.12500000000E+03 0.  0.
         25    1    1    2    0    0 -0.48267912644E+02  0.81245949845E+01  0.16937886104E+03  0.21612496155E+03  0.12500000000E+03 0.  0.
         25    1    1    2    0    0  0.41468261585E+02  0.10513179336E+03  0.32170292198E+03  0.36316673954E+03  0.12500000000E+03 0.  0.
</event>
<event>
 5    0  0.5670250E-005  0.2674778E+03  0.7546771E-02  0.1102732E+00
         21   -1    0    0  502  501  0.00000000000E+00  0.00000000000E+00  0.10888751829E+04  0.10888751829E+04  0.00000000000E+00 0. -1.
         21   -1    0    0  501  502 -0.00000000000E+00 -0.00000000000E+00 -0.65704831358E+02  0.65704831358E+02  0.00000000000E+00 0. -1.
         25    1    1    2    0    0  0.78588184975E+02  0.29920998786E+02  0.55897822585E+03  0.57892402434E+03  0.12500000000E+03 0.  0.
         25    1    1    2    0    0 -0.11891268251E+03  0.49057202964E+02  0.31065450129E+03  0.35871723459E+03  0.12500000000E+03 0.  0.
         25    1    1    2    0    0  0.40324497533E+02 -0.78978201750E+02  0.15353762440E+03  0.21693875532E+03  0.12500000000E+03 0.  0.
</event>
<event>
 5    0  0.5670250E-005  0.2628479E+03  0.7546771E-02  0.1105444E+00
         21   -1    0    0  502  501  0.00000000000E+00  0.00000000000E+00  0.17791865087E+03  0.17791865087E+03  0.00000000000E+00 0.  1.
         21   -1    0    0  501  502 -0.00000000000E+00 -0.00000000000E+00 -0.38831790341E+03  0.38831790341E+03  0.00000000000E+00 0.  1.
         25    1    1    2    0    0  0.47660942834E+01  0.43911066871E+02 -0.11737322727E+03  0.17706601009E+03  0.12500000000E+03 0.  0.
         25    1    1    2    0    0  0.12525932789E+02  0.91125349892E+02 -0.12787652822E+03  0.20109235405E+03  0.12500000000E+03 0.  0.
         25    1    1    2    0    0 -0.17292027072E+02 -0.13503641676E+03  0.34850502954E+02  0.18807819015E+03  0.12500000000E+03 0.  0.
</event>
<event>
 5    0  0.5670250E-005  0.2666946E+03  0.7546771E-02  0.1103186E+00
         21   -1    0    0  502  501  0.00000000000E+00  0.00000000000E+00  0.87439062538E+02  0.87439062538E+02  0.00000000000E+00 0.  1.
         21   -1    0    0  501  502 -0.00000000000E+00 -0.00000000000E+00 -0.81343545695E+03  0.81343545695E+03  0.00000000000E+00 0.  1.
         25    1    1    2    0    0  0.11984343311E+03 -0.81342441300E+02 -0.17696276415E+03  0.26061439160E+03  0.12500000000E+03 0.  0.
         25    1    1    2    0    0 -0.32199127408E+02  0.75806058911E+02 -0.14540166900E+03  0.20868633813E+03  0.12500000000E+03 0.  0.
         25    1    1    2    0    0 -0.87644305700E+02  0.55363823892E+01 -0.40363196126E+03  0.43157378975E+03  0.12500000000E+03 0.  0.
</event>
<event>
 5    0  0.5670250E-005  0.4073890E+03  0.7546771E-02  0.1041251E+00
         21   -1    0    0  502  501  0.00000000000E+00  0.00000000000E+00  0.13967065854E+03  0.13967065854E+03  0.00000000000E+00 0.  1.
         21   -1    0    0  501  502 -0.00000000000E+00 -0.00000000000E+00 -0.11882653987E+04  0.11882653987E+04  0.00000000000E+00 0.  1.
         25    1    1    2    0    0  0.17525880609E+03  0.10460006793E+03 -0.61645452244E+02  0.24714769897E+03  0.12500000000E+03 0.  0.
         25    1    1    2    0    0 -0.23735489189E+03 -0.82118134303E+02 -0.79013003735E+03  0.83845763674E+03  0.12500000000E+03 0.  0.
         25    1    1    2    0    0  0.62096085801E+02 -0.22481933625E+02 -0.19681925061E+03  0.24233072158E+03  0.12500000000E+03 0.  0.
</event>
<event>
 5    0  0.5670250E-005  0.4046580E+03  0.7546771E-02  0.1042179E+00
         21   -1    0    0  502  501  0.00000000000E+00  0.00000000000E+00  0.11723517996E+03  0.11723517996E+03  0.00000000000E+00 0.  1.
         21   -1    0    0  501  502 -0.00000000000E+00 -0.00000000000E+00 -0.13967486473E+04  0.13967486473E+04  0.00000000000E+00 0.  1.
         25    1    1    2    0    0  0.24215236151E+03 -0.17665886515E+02 -0.91229980071E+03  0.95229500477E+03  0.12500000000E+03 0.  0.
         25    1    1    2    0    0 -0.26065610022E+03  0.47995256843E+02 -0.22833675343E+03  0.37149403794E+03  0.12500000000E+03 0.  0.
         25    1    1    2    0    0  0.18503738709E+02 -0.30329370328E+02 -0.13887691321E+03  0.19019478456E+03  0.12500000000E+03 0.  0.
</event>
<event>
 5    0  0.5670250E-005  0.2368978E+03  0.7546771E-02  0.1121877E+00
         21   -1    0    0  502  501  0.00000000000E+00  0.00000000000E+00  0.13280694448E+03  0.13280694448E+03  0.00000000000E+00 0.  1.
         21   -1    0    0  501  502 -0.00000000000E+00 -0.00000000000E+00 -0.42257241842E+03  0.42257241842E+03  0.00000000000E+00 0.  1.
         25    1    1    2    0    0 -0.31051931797E+02 -0.45868151072E+02 -0.11105581191E+03  0.17614341631E+03  0.12500000000E+03 0.  0.
         25    1    1    2    0    0 -0.57140939612E+02 -0.56579503289E+02 -0.60708217376E+02  0.16055159554E+03  0.12500000000E+03 0.  0.
         25    1    1    2    0    0  0.88192871409E+02  0.10244765436E+03 -0.11800144465E+03  0.21868435104E+03  0.12500000000E+03 0.  0.
</event>
<event>
 5    0  0.5670250E-005  0.5790054E+03  0.7546771E-02  0.9949947E-01
         21   -1    0    0  502  501  0.00000000000E+00  0.00000000000E+00  0.21266190411E+03  0.21266190411E+03  0.00000000000E+00 0. -1.
         21   -1    0    0  501  502 -0.00000000000E+00 -0.00000000000E+00 -0.15764330162E+04  0.15764330162E+04  0.00000000000E+00 0. -1.
         25    1    1    2    0    0  0.85893929092E+02  0.20248612022E+03 -0.74064580302E+03  0.78266186918E+03  0.12500000000E+03 0.  0.
         25    1    1    2    0    0  0.13334198638E+03 -0.24551924248E+03  0.27440313914E+02  0.30730726413E+03  0.12500000000E+03 0.  0.
         25    1    1    2    0    0 -0.21923591547E+03  0.43033122265E+02 -0.65056562296E+03  0.69912578698E+03  0.12500000000E+03 0.  0.
</event>
<event>
 5    0  0.5670250E-005  0.2546014E+03  0.7546771E-02  0.1110431E+00
         21   -1    0    0  502  501  0.00000000000E+00  0.00000000000E+00  0.14273252477E+03  0.14273252477E+03  0.00000000000E+00 0. -1.
         21   -1    0    0  501  502 -0.00000000000E+00 -0.00000000000E+00 -0.45414936189E+03  0.45414936189E+03  0.00000000000E+00 0. -1.
         25    1    1    2    0    0 -0.80647416470E+02  0.59454692982E+02 -0.15274931833E+03  0.22135089914E+03  0.12500000000E+03 0.  0.
         25    1    1    2    0    0  0.10402842301E+02  0.71333028615E+02 -0.87874537782E+02  0.16894837818E+03  0.12500000000E+03 0.  0.
         25    1    1    2    0    0  0.70244574169E+02 -0.13078772160E+03 -0.70792981008E+02  0.20658260934E+03  0.12500000000E+03 0.  0.
</event>
<event>
 5    0  0.5670250E-005  0.2198835E+03  0.7546771E-02  0.1133970E+00
         21   -1    0    0  502  501  0.00000000000E+00  0.00000000000E+00  0.63582531018E+02  0.63582531018E+02  0.00000000000E+00 0.  1.
         21   -1    0    0  501  502 -0.00000000000E+00 -0.00000000000E+00 -0.76040940220E+03  0.76040940220E+03  0.00000000000E+00 0.  1.
         25    1    1    2    0    0 -0.18947380831E+02  0.34363451753E+02 -0.17161676035E+03  0.21591007964E+03  0.12500000000E+03 0.  0.
         25    1    1    2    0    0  0.31128985988E+02  0.62266783452E+02 -0.30381928165E+03  0.33582334938E+03  0.12500000000E+03 0.  0.
         25    1    1    2    0    0 -0.12181605157E+02 -0.96630235204E+02 -0.22139082918E+03  0.27225850419E+03  0.12500000000E+03 0.  0.
</event>
<event>
 5    0  0.5670250E-005  0.2510704E+03  0.7546771E-02  0.1112630E+00
         21   -1    0    0  502  501  0.00000000000E+00  0.00000000000E+00  0.29347928688E+03  0.29347928688E+03  0.00000000000E+00 0. -1.
         21   -1    0    0  501  502 -0.00000000000E+00 -0.00000000000E+00 -0.21478974421E+03  0.21478974421E+03  0.00000000000E+00 0. -1.
         25    1    1    2    0    0 -0.10009665127E+02 -0.10876209321E+03 -0.22975139055E+01  0.16601103844E+03  0.12500000000E+03 0.  0.
         25    1    1    2    0    0 -0.56903608922E+02 -0.19042322722E+02  0.11546365139E+02  0.13913644135E+03  0.12500000000E+03 0.  0.
         25    1    1    2    0    0  0.66913274049E+02  0.12780441593E+03  0.69440691429E+02  0.20312155130E+03  0.12500000000E+03 0.  0.
</event>
<event>
 5    0  0.6103236E-005  0.2812897E+03  0.7546771E-02  0.1094987E+00
         21   -1    0    0  502  501  0.00000000000E+00  0.00000000000E+00  0.19339829306E+03  0.19339829306E+03  0.00000000000E+00 0. -1.
         21   -1    0    0  501  502 -0.00000000000E+00 -0.00000000000E+00 -0.40912406443E+03  0.40912406443E+03  0.00000000000E+00 0. -1.
         25    1    1    2    0    0  0.67256463212E+02  0.50681108183E+02  0.92044849915E+02  0.17660481581E+03  0.12500000000E+03 0.  0.
         25    1    1    2    0    0 -0.84852500056E+02 -0.62690278771E+02 -0.13792234049E+03  0.21395698125E+03  0.12500000000E+03 0.  0.
         25    1    1    2    0    0  0.17596036844E+02  0.12009170588E+02 -0.16984828080E+03  0.21196056044E+03  0.12500000000E+03 0.  0.
</event>
<event>
 5    0  0.5670250E-005  0.3018450E+03  0.7546771E-02  0.1084322E+00
         21   -1    0    0  502  501  0.00000000000E+00  0.00000000000E+00  0.47370203696E+03  0.47370203696E+03  0.00000000000E+00 0. -1.
         21   -1    0    0  501  502 -0.00000000000E+00 -0.00000000000E+00 -0.19233697063E+03  0.19233697063E+03  0.00000000000E+00 0. -1.
         25    1    1    2    0    0  0.25753277655E+02  0.85424344964E+02  0.11107177684E+02  0.15397700938E+03  0.12500000000E+03 0.  0.
         25    1    1    2    0    0 -0.17865645355E+03 -0.55499980815E+02  0.19778950970E+03  0.29957314034E+03  0.12500000000E+03 0.  0.
         25    1    1    2    0    0  0.15290317590E+03 -0.29924364148E+02  0.72468378944E+02  0.21248885786E+03  0.12500000000E+03 0.  0.
</event>
<event>
 5    0  0.5670250E-005  0.2676117E+03  0.7546771E-02  0.1102654E+00
         21   -1    0    0  502  501  0.00000000000E+00  0.00000000000E+00  0.11345003648E+03  0.11345003648E+03  0.00000000000E+00 0.  1.
         21   -1    0    0  501  502 -0.00000000000E+00 -0.00000000000E+00 -0.63125622518E+03  0.63125622518E+03  0.00000000000E+00 0.  1.
         25    1    1    2    0    0  0.69382989623E+02  0.90444009890E+02 -0.98284991094E+02  0.19565034538E+03  0.12500000000E+03 0.  0.
         25    1    1    2    0    0 -0.40354848434E+02  0.49307812790E+02 -0.28119310696E+03  0.31425202878E+03  0.12500000000E+03 0.  0.
         25    1    1    2    0    0 -0.29028141190E+02 -0.13975182268E+03 -0.13832809065E+03  0.23480388750E+03  0.12500000000E+03 0.  0.
</event>
<event>
 5    0  0.5670250E-005  0.2129158E+03  0.7546771E-02  0.1139278E+00
         21   -1    0    0  502  501  0.00000000000E+00  0.00000000000E+00  0.19984105010E+03  0.19984105010E+03  0.00000000000E+00 0.  1.
         21   -1    0    0  501  502 -0.00000000000E+00 -0.00000000000E+00 -0.22684593640E+03  0.22684593640E+03  0.00000000000E+00 0.  1.
         25    1    1    2    0    0 -0.75907629681E+01  0.64524843151E+02  0.19143783880E+01  0.14088910501E+03  0.12500000000E+03 0.  0.
         25    1    1    2    0    0  0.36396824487E+02 -0.65581818515E+02 -0.53311905737E+02  0.15521875868E+03  0.12500000000E+03 0.  0.
         25    1    1    2    0    0 -0.28806061518E+02  0.10569753640E+01  0.24392641051E+02  0.13057912281E+03  0.12500000000E+03 0.  0.
</event>
<event>
 5    0  0.5670250E-005  0.2782202E+03  0.7546771E-02  0.1096665E+00
         21   -1    0    0  502  501  0.00000000000E+00  0.00000000000E+00  0.41407409317E+02  0.41407409317E+02  0.00000000000E+00 0. -1.
         21   -1    0    0  501  502 -0.00000000000E+00 -0.00000000000E+00 -0.18693878206E+04  0.18693878206E+04  0.00000000000E+00 0. -1.
         25    1    1    2    0    0 -0.82525165429E+02 -0.95849554443E+02 -0.39128046080E+03  0.42979406582E+03  0.12500000000E+03 0.  0.
         25    1    1    2    0    0 -0.67128272209E+02  0.66408801663E+02 -0.50849136101E+03  0.53207593263E+03  0.12500000000E+03 0.  0.
         25    1    1    2    0    0  0.14965343764E+03  0.29440752779E+02 -0.92820858952E+03  0.94892523150E+03  0.12500000000E+03 0.  0.
</event>
<event>
 5    0  0.5670250E-005  0.2590622E+03  0.7546771E-02  0.1107708E+00
         21   -1    0    0  502  501  0.00000000000E+00  0.00000000000E+00  0.13983176412E+04  0.13983176412E+04  0.00000000000E+00 0.  1.
         21   -1    0    0  501  502 -0.00000000000E+00 -0.00000000000E+00 -0.47995677614E+02  0.47995677614E+02  0.00000000000E+00 0.  1.
         25    1    1    2    0    0  0.26796058485E+02 -0.49735097388E+02  0.19244115760E+03  0.23632648561E+03  0.12500000000E+03 0.  0.
         25    1    1    2    0    0 -0.59401152429E+02 -0.10967408367E+02  0.93546818010E+03  0.94571375000E+03  0.12500000000E+03 0.  0.
         25    1    1    2    0    0  0.32605093944E+02  0.60702505754E+02  0.22241262592E+03  0.26427308324E+03  0.12500000000E+03 0.  0.
</event>
<event>
 5    0  0.5670250E-005  0.3702264E+03  0.7546771E-02  0.1054606E+00
         21   -1    0    0  502  501  0.00000000000E+00  0.00000000000E+00  0.16791116348E+04  0.16791116348E+04  0.00000000000E+00 0. -1.
         21   -1    0    0  501  502 -0.00000000000E+00 -0.00000000000E+00 -0.81631016826E+02  0.81631016826E+02  0.00000000000E+00 0. -1.
         25    1    1    2    0    0 -0.23356858806E+03  0.68279008946E+01  0.30919309071E+03  0.40721772175E+03  0.12500000000E+03 0.  0.
         25    1    1    2    0    0  0.16761881899E+03  0.10391119841E+03  0.79489601197E+03  0.82847949611E+03  0.12500000000E+03 0.  0.
         25    1    1    2    0    0  0.65949769073E+02 -0.11073909931E+03  0.49339151531E+03  0.52504543378E+03  0.12500000000E+03 0.  0.
</event>
<event>
 5    0  0.5670250E-005  0.3427456E+03  0.7546771E-02  0.1065633E+00
         21   -1    0    0  502  501  0.00000000000E+00  0.00000000000E+00  0.77932132268E+02  0.77932132268E+02  0.00000000000E+00 0.  1.
         21   -1    0    0  501  502 -0.00000000000E+00 -0.00000000000E+00 -0.15073959161E+04  0.15073959161E+04  0.00000000000E+00 0.  1.
         25    1    1    2    0    0  0.17750291623E+03 -0.44976618476E+02 -0.75396198033E+03  0.78588411949E+03  0.12500000000E+03 0.  0.
         25    1    1    2    0    0 -0.72592930429E+02  0.96162987265E+02 -0.10283861774E+03  0.20178660750E+03  0.12500000000E+03 0.  0.
         25    1    1    2    0    0 -0.10490998580E+03 -0.51186368789E+02 -0.57266318572E+03  0.59765732134E+03  0.12500000000E+03 0.  0.
</event>
<event>
 5    0  0.5670250E-005  0.5086468E+03  0.7546771E-02  0.1011546E+00
         21   -1    0    0  502  501  0.00000000000E+00  0.00000000000E+00  0.98922546258E+03  0.98922546258E+03  0.00000000000E+00 0. -1.
         21   -1    0    0  501  502 -0.00000000000E+00 -0.00000000000E+00 -0.26153950956E+03  0.26153950956E+03  0.00000000000E+00 0. -1.
         25    1    1    2    0    0 -0.26514508737E+03  0.55970096975E+02 -0.85968737537E+02  0.31056431370E+03  0.12500000000E+03 0.  0.
         25    1    1    2    0    0  0.19548209660E+03 -0.14803146110E+03  0.64196079304E+03  0.69847349511E+03  0.12500000000E+03 0.  0.
         25    1    1    2    0    0  0.69662990771E+02  0.92061364123E+02  0.17169389752E+03  0.24172716333E+03  0.12500000000E+03 0.  0.
</event>
<event>
 5    0  0.5670250E-005  0.2620169E+03  0.7546771E-02  0.1105937E+00
         21   -1    0    0  502  501  0.00000000000E+00  0.00000000000E+00  0.22783118938E+04  0.22783118938E+04  0.00000000000E+00 0. -1.
         21   -1    0    0  501  502 -0.00000000000E+00 -0.00000000000E+00 -0.30133214223E+02  0.30133214223E+02  0.00000000000E+00 0. -1.
         25    1    1    2    0    0 -0.40371588993E+02  0.45494780404E+02  0.22742623687E+03  0.26654705674E+03  0.12500000000E+03 0.  0.
         25    1    1    2    0    0  0.28297729548E+01  0.12167221640E+02  0.13667680449E+04  0.13725290297E+04  0.12500000000E+03 0.  0.
         25    1    1    2    0    0  0.37541816038E+02 -0.57662002044E+02  0.65398439781E+03  0.66936902155E+03  0.12500000000E+03 0.  0.
</event>
<event>
 5    0  0.5670250E-005  0.3017478E+03  0.7546771E-02  0.1084370E+00
         21   -1    0    0  502  501  0.00000000000E+00  0.00000000000E+00  0.52411704706E+03  0.52411704706E+03  0.00000000000E+00 0. -1.
         21   -1    0    0  501  502 -0.00000000000E+00 -0.00000000000E+00 -0.17372401915E+03  0.17372401915E+03  0.00000000000E+00 0. -1.
         25    1    1    2    0    0  0.72264080166E+02 -0.78640994276E+02 -0.35092240535E+02  0.16811593800E+03  0.12500000000E+03 0.  0.
         25    1    1    2    0    0  0.48536043290E+02 -0.22266408053E+02  0.25825809385E+03  0.29184547874E+03  0.12500000000E+03 0.  0.
         25    1    1    2    0    0 -0.12080012346E+03  0.10090740233E+03  0.12722717460E+03  0.23787964947E+03  0.12500000000E+03 0.  0.
</event>
<event>
 5    0  0.5670250E-005  0.4452234E+03  0.7546771E-02  0.1029156E+00
         21   -1    0    0  502  501  0.00000000000E+00  0.00000000000E+00  0.31683218956E+03  0.31683218956E+03  0.00000000000E+00 0.  1.
         21   -1    0    0  501  502 -0.00000000000E+00 -0.00000000000E+00 -0.62564318629E+03  0.62564318629E+03  0.00000000000E+00 0.  1.
         25    1    1    2    0    0 -0.10668481840E+03 -0.10614801571E+03 -0.23576632940E+03  0.30636549054E+03  0.12500000000E+03 0.  0.
         25    1    1    2    0    0  0.53734315501E+02  0.33053007789E+03 -0.10343271283E+03  0.37210325870E+03  0.12500000000E+03 0.  0.
         25    1    1    2    0    0  0.52950502897E+02 -0.22438206218E+03  0.30388045511E+02  0.26400662661E+03  0.12500000000E+03 0.  0.
</event>
<event>
 5    0  0.5670250E-005  0.4925579E+03  0.7546771E-02  0.1015740E+00
         21   -1    0    0  502  501  0.00000000000E+00  0.00000000000E+00  0.45553469081E+03  0.45553469081E+03  0.00000000000E+00 0.  1.
         21   -1    0    0  501  502 -0.00000000000E+00 -0.00000000000E+00 -0.53259012592E+03  0.53259012592E+03  0.00000000000E+00 0.  1.
         25    1    1    2    0    0 -0.16437284581E+03 -0.29228005586E+03 -0.24207208209E+03  0.43205318703E+03  0.12500000000E+03 0.  0.
         25    1    1    2    0    0 -0.14609135645E+02  0.11136625179E+03 -0.75535279884E+02  0.18424561702E+03  0.12500000000E+03 0.  0.
         25    1    1    2    0    0  0.17898198146E+03  0.18091380407E+03  0.24055192686E+03  0.37182601268E+03  0.12500000000E+03 0.  0.
</event>
<event>
 5    0  0.5670250E-005  0.2877246E+03  0.7546771E-02  0.1091543E+00
         21   -1    0    0  502  501  0.00000000000E+00  0.00000000000E+00  0.78176323278E+02  0.78176323278E+02  0.00000000000E+00 0. -1.
         21   -1    0    0  501  502 -0.00000000000E+00 -0.00000000000E+00 -0.10589582461E+04  0.10589582461E+04  0.00000000000E+00 0. -1.
         25    1    1    2    0    0 -0.14789515939E+03  0.60271593089E+02 -0.54086193455E+03  0.57763507109E+03  0.12500000000E+03 0.  0.
         25    1    1    2    0    0  0.71724691912E+02 -0.11802026548E+03 -0.20779612540E+03  0.27906530459E+03  0.12500000000E+03 0.  0.
         25    1    1    2    0    0  0.76170467481E+02  0.57748672388E+02 -0.23212386283E+03  0.28043419366E+03  0.12500000000E+03 0.  0.
</event>
<event>
 5    0  0.5670250E-005  0.4125034E+03  0.7546771E-02  0.1039534E+00
         21   -1    0    0  502  501  0.00000000000E+00  0.00000000000E+00  0.18458082377E+03  0.18458082377E+03  0.00000000000E+00 0. -1.
         21   -1    0    0  501  502 -0.00000000000E+00 -0.00000000000E+00 -0.92186736453E+03  0.92186736453E+03  0.00000000000E+00 0. -1.
         25    1    1    2    0    0  0.76487335654E+02 -0.16964337016E+03 -0.12202600132E+03  0.25523426603E+03  0.12500000000E+03 0.  0.
         25    1    1    2    0    0 -0.12755951553E+03  0.11789835229E+03 -0.66477069040E+03  0.69836703981E+03  0.12500000000E+03 0.  0.
         25    1    1    2    0    0  0.51072179879E+02  0.51745017879E+02  0.49510150952E+02  0.15284688247E+03  0.12500000000E+03 0.  0.
</event>
<event>
 5    0  0.5670250E-005  0.4860050E+03  0.7546771E-02  0.1017498E+00
         21   -1    0    0  502  501  0.00000000000E+00  0.00000000000E+00  0.14985765539E+03  0.14985765539E+03  0.00000000000E+00 0. -1.
         21   -1    0    0  501  502 -0.00000000000E+00 -0.00000000000E+00 -0.15761680433E+04  0.15761680433E+04  0.00000000000E+00 0. -1.
         25    1    1    2    0    0  0.13589441615E+03  0.10328652349E+03 -0.25489803938E+03  0.33126033381E+03  0.12500000000E+03 0.  0.
         25    1    1    2    0    0  0.22371339130E+02 -0.32931275581E+03 -0.27166009247E+03  0.44538923852E+03  0.12500000000E+03 0.  0.
         25    1    1    2    0    0 -0.15826575528E+03  0.22602623232E+03 -0.89975225607E+03  0.94937612636E+03  0.12500000000E+03 0.  0.
</event>
<event>
 5    0  0.5670250E-005  0.2942620E+03  0.7546771E-02  0.1088145E+00
         21   -1    0    0  502  501  0.00000000000E+00  0.00000000000E+00  0.68756954538E+03  0.68756954538E+03  0.00000000000E+00 0. -1.
         21   -1    0    0  501  502 -0.00000000000E+00 -0.00000000000E+00 -0.12593655568E+03  0.12593655568E+03  0.00000000000E+00 0. -1.
         25    1    1    2    0    0 -0.24254269040E+02 -0.41974374618E+02  0.24216999973E+03  0.27680575583E+03  0.12500000000E+03 0.  0.
         25    1    1    2    0    0 -0.11237320703E+03  0.44913352495E+02  0.77951084473E+01  0.17415714342E+03  0.12500000000E+03 0.  0.
         25    1    1    2    0    0  0.13662747607E+03 -0.29389778763E+01  0.31166788152E+03  0.36254320181E+03  0.12500000000E+03 0.  0.
</event>
<event>
 5    0  0.5670250E-005  0.3744893E+03  0.7546771E-02  0.1052990E+00
         21   -1    0    0  502  501  0.00000000000E+00  0.00000000000E+00  0.16187912930E+03  0.16187912930E+03  0.00000000000E+00 0.  1.
         21   -1    0    0  501  502 -0.00000000000E+00 -0.00000000000E+00 -0.86633901688E+03  0.86633901688E+03  0.00000000000E+00 0.  1.
         25    1    1    2    0    0  0.63750594990E+02  0.23044985777E+02 -0.31455575063E+03  0.34520360656E+03  0.12500000000E+03 0.  0.
         25    1    1    2    0    0  0.93438458980E+02  0.19157953291E+03 -0.26877459670E+03  0.36510032441E+03  0.12500000000E+03 0.  0.
         25    1    1    2    0    0 -0.15718905397E+03 -0.21462451869E+03 -0.12112954025E+03  0.31791421521E+03  0.12500000000E+03 0.  0.
</event>
<event>
 5    0  0.5670250E-005  0.3441637E+03  0.7546771E-02  0.1065036E+00
         21   -1    0    0  502  501  0.00000000000E+00  0.00000000000E+00  0.38190592213E+03  0.38190592213E+03  0.00000000000E+00 0.  1.
         21   -1    0    0  501  502 -0.00000000000E+00 -0.00000000000E+00 -0.31015137931E+03  0.31015137931E+03  0.00000000000E+00 0.  1.
         25    1    1    2    0    0 -0.57655424699E+02  0.24581556071E+03 -0.59050390456E+02  0.28785653805E+03  0.12500000000E+03 0.  0.
         25    1    1    2    0    0 -0.99982598974E+01 -0.10410442933E+03 -0.29493090803E+01  0.16300734901E+03  0.12500000000E+03 0.  0.
         25    1    1    2    0    0  0.67653684596E+02 -0.14171113138E+03  0.13375424235E+03  0.24119341439E+03  0.12500000000E+03 0.  0.
</event>
<event>
 5    0  0.5670250E-005  0.2971368E+03  0.7546771E-02  0.1086681E+00
         21   -1    0    0  502  501  0.00000000000E+00  0.00000000000E+00  0.11436329741E+04  0.11436329741E+04  0.00000000000E+00 0.  1.
         21   -1    0    0  501  502 -0.00000000000E+00 -0.00000000000E+00 -0.77201598442E+02  0.77201598442E+02  0.00000000000E+00 0.  1.
         25    1    1    2    0    0 -0.11889900394E+03  0.27108751139E+02  0.21335329522E+03  0.27571087412E+03  0.12500000000E+03 0.  0.
         25    1    1    2    0    0  0.68722644474E+02  0.12937048163E+03  0.50427467378E+03  0.53979391437E+03  0.12500000000E+03 0.  0.
         25    1    1    2    0    0  0.50176359465E+02 -0.15647923277E+03  0.34880340663E+03  0.40532978402E+03  0.12500000000E+03 0.  0.
</event>
<event>
 5    0  0.5670250E-005  0.2781855E+03  0.7546771E-02  0.1096684E+00
         21   -1    0    0  502  501  0.00000000000E+00  0.00000000000E+00  0.87494612074E+02  0.87494612074E+02  0.00000000000E+00 0. -1.
         21   -1    0    0  501  502 -0.00000000000E+00 -0.00000000000E+00 -0.88447913383E+03  0.88447913383E+03  0.00000000000E+00 0. -1.
         25    1    1    2    0    0  0.44499406822E+02  0.40206305548E+02 -0.57303596593E+03  0.58956930251E+03  0.12500000000E+03 0.  0.
         25    1    1    2    0    0  0.38287496032E+02 -0.43927493920E+02 -0.37112897470E+02  0.14282130175E+03  0.12500000000E+03 0.  0.
         25    1    1    2    0    0 -0.82786902854E+02  0.37211883726E+01 -0.18683565836E+03  0.23958314165E+03  0.12500000000E+03 0.  0.
</event>
<event>
 5    0  0.6129591E-005  0.2894095E+03  0.7546771E-02  0.1090658E+00
         21   -1    0    0  502  501  0.00000000000E+00  0.00000000000E+00  0.22803026637E+03  0.22803026637E+03  0.00000000000E+00 0.  1.
         21   -1    0    0  501  502 -0.00000000000E+00 -0.00000000000E+00 -0.36731025810E+03  0.36731025810E+03  0.00000000000E+00 0.  1.
         25    1    1    2    0    0 -0.15938582482E+02  0.67538815723E+02  0.95149292389E+01  0.14328664948E+03  0.12500000000E+03 0.  0.
         25    1    1    2    0    0 -0.12579196704E+02 -0.19905290328E+03 -0.12597249384E+03  0.26697258979E+03  0.12500000000E+03 0.  0.
         25    1    1    2    0    0  0.28517779187E+02  0.13151408756E+03 -0.22822427131E+02  0.18508128521E+03  0.12500000000E+03 0.  0.
</event>
<event>
 5    0  0.5670250E-005  0.3458666E+03  0.7546771E-02  0.1064324E+00
         21   -1    0    0  502  501  0.00000000000E+00  0.00000000000E+00  0.22932027522E+03  0.22932027522E+03  0.00000000000E+00 0.  1.
         21   -1    0    0  501  502 -0.00000000000E+00 -0.00000000000E+00 -0.52164471520E+03  0.52164471520E+03  0.00000000000E+00 0.  1.
         25    1    1    2    0    0  0.20085391127E+02 -0.15860308791E+03 -0.24727258049E+03  0.31988606017E+03  0.12500000000E+03 0.  0.
         25    1    1    2    0    0  0.10152162015E+03  0.17632791045E+03  0.29463226314E+02  0.24060601212E+03  0.12500000000E+03 0.  0.
         25    1    1    2    0    0 -0.12160701128E+03 -0.17724822545E+02 -0.74515085802E+02  0.19047291812E+03  0.12500000000E+03 0.  0.
</event>
<event>
 5    0  0.5670250E-005  0.2535916E+03  0.7546771E-02  0.1111056E+00
         21   -1    0    0  502  501  0.00000000000E+00  0.00000000000E+00  0.15481623616E+03  0.15481623616E+03  0.00000000000E+00 0.  1.
         21   -1    0    0  501  502 -0.00000000000E+00 -0.00000000000E+00 -0.41538715899E+03  0.41538715899E+03  0.00000000000E+00 0.  1.
         25    1    1    2    0    0  0.74496731950E+01  0.15358025925E+03 -0.16233295283E+03  0.25616280221E+03  0.12500000000E+03 0.  0.
         25    1    1    2    0    0 -0.15278884461E+02 -0.71426180951E+02 -0.23591850536E+02  0.14668578339E+03  0.12500000000E+03 0.  0.
         25    1    1    2    0    0  0.78292112662E+01 -0.82154078299E+02 -0.74646119456E+02  0.16735480955E+03  0.12500000000E+03 0.  0.
</event>
<event>
 5    0  0.5920614E-005  0.4050917E+03  0.7546771E-02  0.1042031E+00
         21   -1    0    0  502  501  0.00000000000E+00  0.00000000000E+00  0.18623952579E+03  0.18623952579E+03  0.00000000000E+00 0. -1.
         21   -1    0    0  501  502 -0.00000000000E+00 -0.00000000000E+00 -0.88111956185E+03  0.88111956185E+03  0.00000000000E+00 0. -1.
         25    1    1    2    0    0  0.95378566513E+02 -0.38688378074E+02  0.42445681709E+02  0.16739324193E+03  0.12500000000E+03 0.  0.
         25    1    1    2    0    0  0.37558517587E+02  0.20104582279E+03 -0.20942294407E+03  0.31829708545E+03  0.12500000000E+03 0.  0.
         25    1    1    2    0    0 -0.13293708410E+03 -0.16235744471E+03 -0.52790277370E+03  0.58166876026E+03  0.12500000000E+03 0.  0.
</event>
<event>
 5    0  0.5670250E-005  0.5257352E+03  0.7546771E-02  0.1007272E+00
         21   -1    0    0  502  501  0.00000000000E+00  0.00000000000E+00  0.16948011549E+04  0.16948011549E+04  0.00000000000E+00 0. -1.
         21   -1    0    0  501  502 -0.00000000000E+00 -0.00000000000E+00 -0.16308552222E+03  0.16308552222E+03  0.00000000000E+00 0. -1.
         25    1    1    2    0    0  0.25160216045E+02 -0.13940269296E+03  0.18963459407E+03  0.26767970888E+03  0.12500000000E+03 0.  0.
         25    1    1    2    0    0 -0.17479214480E+03  0.30662671013E+03  0.12690924245E+04  0.13231752776E+04  0.12500000000E+03 0.  0.
         25    1    1    2    0    0  0.14963192875E+03 -0.16722401717E+03  0.72988614051E+02  0.26703169063E+03  0.12500000000E+03 0.  0.
</event>
<event>
 5    0  0.5670250E-005  0.2074647E+03  0.7546771E-02  0.1143590E+00
         21   -1    0    0  502  501  0.00000000000E+00  0.00000000000E+00  0.66655254776E+02  0.66655254776E+02  0.00000000000E+00 0. -1.
         21   -1    0    0  501  502 -0.00000000000E+00 -0.00000000000E+00 -0.64573425359E+03  0.64573425359E+03  0.00000000000E+00 0. -1.
         25    1    1    2    0    0  0.25570366609E+02 -0.15218348526E+02 -0.22904172736E+03  0.26262245649E+03  0.12500000000E+03 0.  0.
         25    1    1    2    0    0 -0.55134703570E+02 -0.53124318522E+01 -0.25264854250E+03  0.28727050579E+03  0.12500000000E+03 0.  0.
         25    1    1    2    0    0  0.29564336961E+02  0.20530780378E+02 -0.97388728955E+02  0.16249654609E+03  0.12500000000E+03 0.  0.
</event>
<event>
 5    0  0.5670250E-005  0.3248390E+03  0.7546771E-02  0.1073444E+00
         21   -1    0    0  502  501  0.00000000000E+00  0.00000000000E+00  0.14044342172E+03  0.14044342172E+03  0.00000000000E+00 0. -1.
         21   -1    0    0  501  502 -0.00000000000E+00 -0.00000000000E+00 -0.75133728736E+03  0.75133728736E+03  0.00000000000E+00 0. -1.
         25    1    1    2    0    0 -0.17399894902E+03  0.14217788290E+03 -0.17685164051E+03  0.31207641275E+03  0.12500000000E+03 0.  0.
         25    1    1    2    0    0  0.73679348772E+02  0.28720974088E+02 -0.19769869881E+03  0.24690750556E+03  0.12500000000E+03 0.  0.
         25    1    1    2    0    0  0.10031960024E+03 -0.17089885698E+03 -0.23634352632E+03  0.33279679077E+03  0.12500000000E+03 0.  0.
</event>
<event>
 5    0  0.5670250E-005  0.2237300E+03  0.7546771E-02  0.1131132E+00
         21   -1    0    0  502  501  0.00000000000E+00  0.00000000000E+00  0.15800948545E+03  0.15800948545E+03  0.00000000000E+00 0.  1.
         21   -1    0    0  501  502 -0.00000000000E+00 -0.00000000000E+00 -0.31678558250E+03  0.31678558250E+03  0.00000000000E+00 0.  1.
         25    1    1    2    0    0 -0.46307384914E+02  0.59424183891E+02 -0.32011973953E+02  0.14941677953E+03  0.12500000000E+03 0.  0.
         25    1    1    2    0    0  0.52551458768E+02 -0.49265889756E+01 -0.13127654869E+03  0.18879740288E+03  0.12500000000E+03 0.  0.
         25    1    1    2    0    0 -0.62440738543E+01 -0.54497594916E+02  0.45124255867E+01  0.13658088554E+03  0.12500000000E+03 0.  0.
</event>
<event>
 5    0  0.5670250E-005  0.3682881E+03  0.7546771E-02  0.1055349E+00
         21   -1    0    0  502  501  0.00000000000E+00  0.00000000000E+00  0.22912709943E+03  0.22912709943E+03  0.00000000000E+00 0.  1.
         21   -1    0    0  501  502 -0.00000000000E+00 -0.00000000000E+00 -0.59196890253E+03  0.59196890253E+03  0.00000000000E+00 0.  1.
         25    1    1    2    0    0 -0.57933216506E+02 -0.15608836523E+03  0.55800429232E+02  0.21554239313E+03  0.12500000000E+03 0.  0.
         25    1    1    2    0    0  0.87624060244E+02  0.18492652587E+02 -0.38466260225E+03  0.41425870142E+03  0.12500000000E+03 0.  0.
         25    1    1    2    0    0 -0.29690843738E+02  0.13759571264E+03 -0.33979630075E+02  0.19129490741E+03  0.12500000000E+03 0.  0.
</event>
<event>
 5    0  0.5670250E-005  0.2981816E+03  0.7546771E-02  0.1086153E+00
         21   -1    0    0  502  501  0.00000000000E+00  0.00000000000E+00  0.13102920136E+04  0.13102920136E+04  0.00000000000E+00 0. -1.
         21   -1    0    0  501  502 -0.00000000000E+00 -0.00000000000E+00 -0.67856844970E+02  0.67856844970E+02  0.00000000000E+00 0. -1.
         25    1    1    2    0    0 -0.14063888515E+03 -0.13938234223E+03  0.43879687026E+03  0.49736749662E+03  0.12500000000E+03 0.  0.
         25    1    1    2    0    0  0.14953871771E+03  0.13062711786E+03  0.50846074451E+03  0.55998446471E+03  0.12500000000E+03 0.  0.
         25    1    1    2    0    0 -0.88998325560E+01  0.87552243721E+01  0.29517755385E+03  0.32079689723E+03  0.12500000000E+03 0.  0.
</event>
<event>
 5    0  0.5670250E-005  0.3100214E+03  0.7546771E-02  0.1080336E+00
         21   -1    0    0  502  501  0.00000000000E+00  0.00000000000E+00  0.61784277408E+03  0.61784277408E+03  0.00000000000E+00 0. -1.
         21   -1    0    0  501  502 -0.00000000000E+00 -0.00000000000E+00 -0.15556267443E+03  0.15556267443E+03  0.00000000000E+00 0. -1.
         25    1    1    2    0    0  0.87527638608E+01 -0.70737858569E+02  0.17131798680E+03  0.22373043627E+03  0.12500000000E+03 0.  0.
         25    1    1    2    0    0  0.16888694784E+03 -0.39998795554E+02  0.18891189823E+03  0.28536890175E+03  0.12500000000E+03 0.  0.
         25    1    1    2    0    0 -0.17763971170E+03  0.11073665412E+03  0.10205021461E+03  0.26430611049E+03  0.12500000000E+03 0.  0.
</event>
<event>
 5    0  0.5670250E-005  0.2919387E+03  0.7546771E-02  0.1089341E+00
         21   -1    0    0  502  501  0.00000000000E+00  0.00000000000E+00  0.32156683490E+04  0.32156683490E+04  0.00000000000E+00 0. -1.
         21   -1    0    0  501  502 -0.00000000000E+00 -0.00000000000E+00 -0.26504042628E+02  0.26504042628E+02  0.00000000000E+00 0. -1.
         25    1    1    2    0    0 -0.82057147006E+02 -0.30533244508E+02  0.89506898591E+03  0.90798631264E+03  0.12500000000E+03 0.  0.
         25    1    1    2    0    0  0.63037525876E+02  0.93405146718E+02  0.38874743483E+03  0.42361281755E+03  0.12500000000E+03 0.  0.
         25    1    1    2    0    0  0.19019621129E+02 -0.62871902210E+02  0.19053478857E+04  0.19105732615E+04  0.12500000000E+03 0.  0.
</event>
<event>
 5    0  0.5670250E-005  0.4457783E+03  0.7546771E-02  0.1028989E+00
         21   -1    0    0  502  501  0.00000000000E+00  0.00000000000E+00  0.64593945595E+03  0.64593945595E+03  0.00000000000E+00 0.  1.
         21   -1    0    0  501  502 -0.00000000000E+00 -0.00000000000E+00 -0.30764228460E+03  0.30764228460E+03  0.00000000000E+00 0.  1.
         25    1    1    2    0    0  0.60372151008E+02  0.62815594531E+02  0.14533837470E+03  0.21056789568E+03  0.12500000000E+03 0.  0.
         25    1    1    2    0    0  0.20190968382E+03 -0.11389280436E+03  0.32625736568E+03  0.41929459807E+03  0.12500000000E+03 0.  0.
         25    1    1    2    0    0 -0.26228183483E+03  0.51077209828E+02 -0.13329856903E+03  0.32371924680E+03  0.12500000000E+03 0.  0.
</event>
<event>
 5    0  0.5670250E-005  0.2380072E+03  0.7546771E-02  0.1121128E+00
         21   -1    0    0  502  501  0.00000000000E+00  0.00000000000E+00  0.70796835738E+03  0.70796835738E+03  0.00000000000E+00 0. -1.
         21   -1    0    0  501  502 -0.00000000000E+00 -0.00000000000E+00 -0.80014086257E+02  0.80014086257E+02  0.00000000000E+00 0. -1.
         25    1    1    2    0    0 -0.48967734722E+01 -0.99589746225E+02  0.27753384786E+03  0.32030006658E+03  0.12500000000E+03 0.  0.
         25    1    1    2    0    0 -0.34974552393E+02  0.74162784406E+02  0.88736656547E+02  0.17384628878E+03  0.12500000000E+03 0.  0.
         25    1    1    2    0    0  0.39871325865E+02  0.25426961819E+02  0.26168376672E+03  0.29383608828E+03  0.12500000000E+03 0.  0.
</event>
<event>
 5    0  0.5670250E-005  0.2147718E+03  0.7546771E-02  0.1137842E+00
         21   -1    0    0  502  501  0.00000000000E+00  0.00000000000E+00  0.24777172756E+03  0.24777172756E+03  0.00000000000E+00 0. -1.
         21   -1    0    0  501  502 -0.00000000000E+00 -0.00000000000E+00 -0.18616710580E+03  0.18616710580E+03  0.00000000000E+00 0. -1.
         25    1    1    2    0    0  0.21709015947E+02  0.61573194502E+02  0.33881589798E+02  0.14503620852E+03  0.12500000000E+03 0.  0.
         25    1    1    2    0    0 -0.10882756463E+02 -0.82237134288E+02  0.53279995640E+02  0.15920156588E+03  0.12500000000E+03 0.  0.
         25    1    1    2    0    0 -0.10826259484E+02  0.20663939786E+02 -0.25556963682E+02  0.12970105896E+03  0.12500000000E+03 0.  0.
</event>
<event>
 5    0  0.5670250E-005  0.3728385E+03  0.7546771E-02  0.1053613E+00
         21   -1    0    0  502  501  0.00000000000E+00  0.00000000000E+00  0.46529765083E+03  0.46529765083E+03  0.00000000000E+00 0.  1.
         21   -1    0    0  501  502 -0.00000000000E+00 -0.00000000000E+00 -0.29875182777E+03  0.29875182777E+03  0.00000000000E+00 0.  1.
         25    1    1    2    0    0 -0.16116231012E+03 -0.13934312034E+03 -0.72245935682E+02  0.25736019625E+03  0.12500000000E+03 0.  0.
         25    1    1    2    0    0 -0.51643818150E+02  0.58658223357E+02  0.19326387553E+03  0.24307158762E+03  0.12500000000E+03 0.  0.
         25    1    1    2    0    0  0.21280612827E+03  0.80684896980E+02  0.45527883210E+02  0.26361769474E+03  0.12500000000E+03 0.  0.
</event>
<event>
 5    0  0.5670250E-005  0.2795464E+03  0.7546771E-02  0.1095937E+00
         21   -1    0    0  502  501  0.00000000000E+00  0.00000000000E+00  0.20780276782E+03  0.20780276782E+03  0.00000000000E+00 0.  1.
         21   -1    0    0  501  502 -0.00000000000E+00 -0.00000000000E+00 -0.37605956016E+03  0.37605956016E+03  0.00000000000E+00 0.  1.
         25    1    1    2    0    0 -0.40787945359E+02  0.12172556252E+03  0.39782513899E+02  0.18354404776E+03  0.12500000000E+03 0.  0.
         25    1    1    2    0    0 -0.51624373357E+02  0.12757075097E+02 -0.94693551158E+02  0.16558891122E+03  0.12500000000E+03 0.  0.
         25    1    1    2    0    0  0.92412318716E+02 -0.13448263762E+03 -0.11334575509E+03  0.23472936899E+03  0.12500000000E+03 0.  0.
</event>
<event>
 5    0  0.5670250E-005  0.3379624E+03  0.7546771E-02  0.1067667E+00
         21   -1    0    0  502  501  0.00000000000E+00  0.00000000000E+00  0.10290006894E+04  0.10290006894E+04  0.00000000000E+00 0. -1.
         21   -1    0    0  501  502 -0.00000000000E+00 -0.00000000000E+00 -0.11099954861E+03  0.11099954861E+03  0.00000000000E+00 0. -1.
         25    1    1    2    0    0  0.51147568271E+02 -0.13372671476E+03  0.35463415584E+03  0.40235468491E+03  0.12500000000E+03 0.  0.
         25    1    1    2    0    0 -0.21633074024E+03  0.74063103204E+02  0.30632152804E+03  0.40217186745E+03  0.12500000000E+03 0.  0.
         25    1    1    2    0    0  0.16518317196E+03  0.59663611560E+02  0.25704545692E+03  0.33547368565E+03  0.12500000000E+03 0.  0.
</event>
<event>
 5    0  0.5670250E-005  0.4857494E+03  0.7546771E-02  0.1017567E+00
         21   -1    0    0  502  501  0.00000000000E+00  0.00000000000E+00  0.28483776020E+03  0.28483776020E+03  0.00000000000E+00 0.  1.
         21   -1    0    0  501  502 -0.00000000000E+00 -0.00000000000E+00 -0.82837491930E+03  0.82837491930E+03  0.00000000000E+00 0.  1.
         25    1    1    2    0    0  0.44877158869E+02 -0.57001596347E+02 -0.30847724216E+03  0.34065576512E+03  0.12500000000E+03 0.  0.
         25    1    1    2    0    0 -0.22959507404E+03 -0.24446439586E+03 -0.79906559762E+02  0.36672441582E+03  0.12500000000E+03 0.  0.
         25    1    1    2    0    0  0.18471791517E+03  0.30146599221E+03 -0.15515335718E+03  0.40583249856E+03  0.12500000000E+03 0.  0.
</event>
<event>
 5    0  0.5670250E-005  0.2639662E+03  0.7546771E-02  0.1104783E+00
         21   -1    0    0  502  501  0.00000000000E+00  0.00000000000E+00  0.18440459358E+03  0.18440459358E+03  0.00000000000E+00 0.  1.
         21   -1    0    0  501  502 -0.00000000000E+00 -0.00000000000E+00 -0.37785481542E+03  0.37785481542E+03  0.00000000000E+00 0.  1.
         25    1    1    2    0    0 -0.69552920941E+02 -0.27061191880E+02 -0.19077506897E+03  0.23997925714E+03  0.12500000000E+03 0.  0.
         25    1    1    2    0    0 -0.53916105427E+02 -0.23196022854E+02  0.13868320397E+02  0.13878880434E+03  0.12500000000E+03 0.  0.
         25    1    1    2    0    0  0.12346902637E+03  0.50257214734E+02 -0.16543473266E+02  0.18349134751E+03  0.12500000000E+03 0.  0.
</event>
<event>
 5    0  0.5670250E-005  0.2696712E+03  0.7546771E-02  0.1101468E+00
         21   -1    0    0  502  501  0.00000000000E+00  0.00000000000E+00  0.77164814273E+03  0.77164814273E+03  0.00000000000E+00 0.  1.
         21   -1    0    0  501  502 -0.00000000000E+00 -0.00000000000E+00 -0.94243185490E+02  0.94243185490E+02  0.00000000000E+00 0.  1.
         25    1    1    2    0    0  0.13318428707E+03 -0.94017210325E+02  0.20841757681E+03  0.29264342891E+03  0.12500000000E+03 0.  0.
         25    1    1    2    0    0 -0.39426112675E+02  0.90480816743E+02  0.15364830599E+03  0.22130069700E+03  0.12500000000E+03 0.  0.
         25    1    1    2    0    0 -0.93758174400E+02  0.35363935827E+01  0.31533907444E+03  0.35194720231E+03  0.12500000000E+03 0.  0.
</event>
<event>
 5    0  0.5670250E-005  0.3338484E+03  0.7546771E-02  0.1069447E+00
         21   -1    0    0  502  501  0.00000000000E+00  0.00000000000E+00  0.10205530669E+03  0.10205530669E+03  0.00000000000E+00 0.  1.
         21   -1    0    0  501  502 -0.00000000000E+00 -0.00000000000E+00 -0.10921015696E+04  0.10921015696E+04  0.00000000000E+00 0.  1.
         25    1    1    2    0    0 -0.69915388804E+02  0.78034961760E+01 -0.15955422058E+03  0.21454977382E+03  0.12500000000E+03 0.  0.
         25    1    1    2    0    0 -0.80297972823E+02 -0.14531368452E+03 -0.64338297673E+03  0.67611425521E+03  0.12500000000E+03 0.  0.
         25    1    1    2    0    0  0.15021336163E+03  0.13751018835E+03 -0.18710906560E+03  0.30349284727E+03  0.12500000000E+03 0.  0.
</event>
<event>
 5    0  0.5670250E-005  0.4978490E+03  0.7546771E-02  0.1014342E+00
         21   -1    0    0  502  501  0.00000000000E+00  0.00000000000E+00  0.12106339399E+03  0.12106339399E+03  0.00000000000E+00 0.  1.
         21   -1    0    0  501  502 -0.00000000000E+00 -0.00000000000E+00 -0.20473048258E+04  0.20473048258E+04  0.00000000000E+00 0.  1.
         25    1    1    2    0    0 -0.19982772966E+02  0.27533534802E+03 -0.25309641456E+03  0.39483117930E+03  0.12500000000E+03 0.  0.
         25    1    1    2    0    0  0.28897772538E+02 -0.13217059231E+03 -0.15149232630E+04  0.15260804827E+04  0.12500000000E+03 0.  0.
         25    1    1    2    0    0 -0.89149995722E+01 -0.14316475570E+03 -0.15822175422E+03  0.24745655781E+03  0.12500000000E+03 0.  0.
</event>
<event>
 5    0  0.6336896E-005  0.2988712E+03  0.7546771E-02  0.1085806E+00
         21   -1    0    0  502  501  0.00000000000E+00  0.00000000000E+00  0.40032410815E+03  0.40032410815E+03  0.00000000000E+00 0. -1.
         21   -1    0    0  501  502 -0.00000000000E+00 -0.00000000000E+00 -0.22312916446E+03  0.22312916446E+03  0.00000000000E+00 0. -1.
         25    1    1    2    0    0 -0.14580311686E+03 -0.45992894542E+02  0.68467917774E+02  0.20901375792E+03  0.12500000000E+03 0.  0.
         25    1    1    2    0    0  0.76425099141E+02  0.56396601647E+02 -0.80996767369E+02  0.17665460305E+03  0.12500000000E+03 0.  0.
         25    1    1    2    0    0  0.69378017722E+02 -0.10403707105E+02  0.18972379329E+03  0.23778491164E+03  0.12500000000E+03 0.  0.
</event>
<event>
 5    0  0.5670250E-005  0.2966759E+03  0.7546771E-02  0.1086914E+00
         21   -1    0    0  502  501  0.00000000000E+00  0.00000000000E+00  0.80508575653E+03  0.80508575653E+03  0.00000000000E+00 0.  1.
         21   -1    0    0  501  502 -0.00000000000E+00 -0.00000000000E+00 -0.10932574384E+03  0.10932574384E+03  0.00000000000E+00 0.  1.
         25    1    1    2    0    0 -0.83234914905E+02 -0.88042567828E+02  0.14767709407E+03  0.22828287041E+03  0.12500000000E+03 0.  0.
         25    1    1    2    0    0  0.35043951057E+02  0.19937482123E+03  0.29707290694E+03  0.38059914593E+03  0.12500000000E+03 0.  0.
         25    1    1    2    0    0  0.48190963848E+02 -0.11133225340E+03  0.25101001168E+03  0.30552948402E+03  0.12500000000E+03 0.  0.
</event>
<event>
 5    0  0.5670250E-005  0.6673321E+03  0.7546771E-02  0.9774790E-01
         21   -1    0    0  502  501  0.00000000000E+00  0.00000000000E+00  0.35031492508E+03  0.35031492508E+03  0.00000000000E+00 0.  1.
         21   -1    0    0  501  502 -0.00000000000E+00 -0.00000000000E+00 -0.12712335810E+04  0.12712335810E+04  0.00000000000E+00 0.  1.
         25    1    1    2    0    0 -0.42566605859E+03 -0.86932352296E+02 -0.79764384348E+03  0.91684760367E+03  0.12500000000E+03 0.  0.
         25    1    1    2    0    0 -0.70176300708E+02 -0.46054842076E+02 -0.89716412758E+02  0.17527063752E+03  0.12500000000E+03 0.  0.
         25    1    1    2    0    0  0.49584235930E+03  0.13298719437E+03 -0.33558399642E+02  0.52943026484E+03  0.12500000000E+03 0.  0.
</event>
<event>
 5    0  0.5670250E-005  0.4580573E+03  0.7546771E-02  0.1025346E+00
         21   -1    0    0  502  501  0.00000000000E+00  0.00000000000E+00  0.15075065792E+04  0.15075065792E+04  0.00000000000E+00 0.  1.
         21   -1    0    0  501  502 -0.00000000000E+00 -0.00000000000E+00 -0.13918113351E+03  0.13918113351E+03  0.00000000000E+00 0.  1.
         25    1    1    2    0    0 -0.35871814678E+02 -0.81759701636E+02  0.37331487545E+03  0.40368357922E+03  0.12500000000E+03 0.  0.
         25    1    1    2    0    0 -0.11472595285E+03 -0.28180839440E+03  0.38494864510E+03  0.50634817545E+03  0.12500000000E+03 0.  0.
         25    1    1    2    0    0  0.15059776753E+03  0.36356809603E+03  0.61006192517E+03  0.73665595808E+03  0.12500000000E+03 0.  0.
</event>
<event>
 5    0  0.5670250E-005  0.2502391E+03  0.7546771E-02  0.1113154E+00
         21   -1    0    0  502  501  0.00000000000E+00  0.00000000000E+00  0.14861948384E+03  0.14861948384E+03  0.00000000000E+00 0. -1.
         21   -1    0    0  501  502 -0.00000000000E+00 -0.00000000000E+00 -0.42134176308E+03  0.42134176308E+03  0.00000000000E+00 0. -1.
         25    1    1    2    0    0  0.86213007960E+02 -0.92494788258E+02 -0.70765455352E+02  0.19136540510E+03  0.12500000000E+03 0.  0.
         25    1    1    2    0    0 -0.63993337097E+00  0.58492622228E+02 -0.20075554452E+02  0.13946262674E+03  0.12500000000E+03 0.  0.
         25    1    1    2    0    0 -0.85573074589E+02  0.34002166030E+02 -0.18188126943E+03  0.23913321509E+03  0.12500000000E+03 0.  0.
</event>
<event>
 5    0  0.5670250E-005  0.3322355E+03  0.7546771E-02  0.1070152E+00
         21   -1    0    0  502  501  0.00000000000E+00  0.00000000000E+00  0.73261854512E+03  0.73261854512E+03  0.00000000000E+00 0.  1.
         21   -1    0    0  501  502 -0.00000000000E+00 -0.00000000000E+00 -0.15066558644E+03  0.15066558644E+03  0.00000000000E+00 0.  1.
         25    1    1    2    0    0 -0.10537829411E+03 -0.13165302446E+03  0.33219830080E+03  0.39296032213E+03  0.12500000000E+03 0.  0.
         25    1    1    2    0    0  0.11074917480E+02 -0.82339796978E+02  0.49514425484E+02  0.15804801262E+03  0.12500000000E+03 0.  0.
         25    1    1    2    0    0  0.94303376633E+02  0.21399282144E+03  0.20024023240E+03  0.33227579681E+03  0.12500000000E+03 0.  0.
</event>
<event>
 5    0  0.5670250E-005  0.3238357E+03  0.7546771E-02  0.1073897E+00
         21   -1    0    0  502  501  0.00000000000E+00  0.00000000000E+00  0.39809692678E+03  0.39809692678E+03  0.00000000000E+00 0.  1.
         21   -1    0    0  501  502 -0.00000000000E+00 -0.00000000000E+00 -0.26342727634E+03  0.26342727634E+03  0.00000000000E+00 0.  1.
         25    1    1    2    0    0  0.82171224641E+02  0.69526299882E+02  0.14584593323E+03  0.22018640461E+03  0.12500000000E+03 0.  0.
         25    1    1    2    0    0 -0.70901109539E+02  0.98412250378E+02  0.10326072611E+03  0.20248386582E+03  0.12500000000E+03 0.  0.
         25    1    1    2    0    0 -0.11270115102E+02 -0.16793855026E+03 -0.11443700891E+03  0.23885393270E+03  0.12500000000E+03 0.  0.
</event>
<event>
 5    0  0.5670250E-005  0.3444313E+03  0.7546771E-02  0.1064924E+00
         21   -1    0    0  502  501  0.00000000000E+00  0.00000000000E+00  0.13333298925E+04  0.13333298925E+04  0.00000000000E+00 0.  1.
         21   -1    0    0  501  502 -0.00000000000E+00 -0.00000000000E+00 -0.88974901001E+02  0.88974901001E+02  0.00000000000E+00 0.  1.
         25    1    1    2    0    0 -0.93704394643E+01  0.78574034668E+02  0.11562420182E+03  0.18776485322E+03  0.12500000000E+03 0.  0.
         25    1    1    2    0    0 -0.18328927494E+03  0.61341547661E+02  0.55871389532E+03  0.60427142957E+03  0.12500000000E+03 0.  0.
         25    1    1    2    0    0  0.19265971440E+03 -0.13991558233E+03  0.57001689439E+03  0.63026851074E+03  0.12500000000E+03 0.  0.
</event>
<event>
 5    0  0.5670250E-005  0.2433465E+03  0.7546771E-02  0.1117583E+00
         21   -1    0    0  502  501  0.00000000000E+00  0.00000000000E+00  0.97614944471E+03  0.97614944471E+03  0.00000000000E+00 0. -1.
         21   -1    0    0  501  502 -0.00000000000E+00 -0.00000000000E+00 -0.60664376181E+02  0.60664376181E+02  0.00000000000E+00 0. -1.
         25    1    1    2    0    0  0.87592143775E+02 -0.20559827220E+02  0.45700120269E+03  0.48225531558E+03  0.12500000000E+03 0.  0.
         25    1    1    2    0    0 -0.12300521211E+03 -0.17850969216E+02  0.24894616981E+03  0.30503792349E+03  0.12500000000E+03 0.  0.
         25    1    1    2    0    0  0.35413068331E+02  0.38410796436E+02  0.20953769603E+03  0.24952058182E+03  0.12500000000E+03 0.  0.
</event>
<event>
 5    0  0.5670250E-005  0.2281054E+03  0.7546771E-02  0.1127980E+00
         21   -1    0    0  502  501  0.00000000000E+00  0.00000000000E+00  0.31330423133E+03  0.31330423133E+03  0.00000000000E+00 0.  1.
         21   -1    0    0  501  502 -0.00000000000E+00 -0.00000000000E+00 -0.16607517356E+03  0.16607517356E+03  0.00000000000E+00 0.  1.
         25    1    1    2    0    0 -0.12760503018E+02 -0.49343947340E+02  0.41543925447E+02  0.14123934763E+03  0.12500000000E+03 0.  0.
         25    1    1    2    0    0  0.60577465751E+02  0.81262492682E+02 -0.58316423978E+01  0.16103487239E+03  0.12500000000E+03 0.  0.
         25    1    1    2    0    0 -0.47816962733E+02 -0.31918545342E+02  0.11151677472E+03  0.17710518486E+03  0.12500000000E+03 0.  0.
</event>
<event>
 5    0  0.5670250E-005  0.4189864E+03  0.7546771E-02  0.1037397E+00
         21   -1    0    0  502  501  0.00000000000E+00  0.00000000000E+00  0.85874948676E+02  0.85874948676E+02  0.00000000000E+00 0.  1.
         21   -1    0    0  501  502 -0.00000000000E+00 -0.00000000000E+00 -0.20442472401E+04  0.20442472401E+04  0.00000000000E+00 0.  1.
         25    1    1    2    0    0  0.30411483563E+02 -0.13462387301E+03 -0.19494971305E+03  0.26959012618E+03  0.12500000000E+03 0.  0.
         25    1    1    2    0    0 -0.22296538662E+03 -0.33294257059E+02 -0.12225846792E+04  0.12494640327E+04  0.12500000000E+03 0.  0.
         25    1    1    2    0    0  0.19255390306E+03  0.16791813006E+03 -0.54083789919E+03  0.61106802992E+03  0.12500000000E+03 0.  0.
</event>
<event>
 5    0  0.5670250E-005  0.2812850E+03  0.7546771E-02  0.1094989E+00
         21   -1    0    0  502  501  0.00000000000E+00  0.00000000000E+00  0.73549616380E+03  0.73549616380E+03  0.00000000000E+00 0.  1.
         21   -1    0    0  501  502 -0.00000000000E+00 -0.00000000000E+00 -0.10757530400E+03  0.10757530400E+03  0.00000000000E+00 0.  1.
         25    1    1    2    0    0  0.52215572097E+02  0.31275297642E+02  0.37182343641E+03  0.39696634376E+03  0.12500000000E+03 0.  0.
         25    1    1    2    0    0 -0.73564843780E+02 -0.13598416205E+03  0.16324612346E+03  0.25725041379E+03  0.12500000000E+03 0.  0.
         25    1    1    2    0    0  0.21349271684E+02  0.10470886441E+03  0.92851299936E+02  0.18885471026E+03  0.12500000000E+03 0.  0.
</event>
<event>
 5    0  0.5670250E-005  0.4690609E+03  0.7546771E-02  0.1022186E+00
         21   -1    0    0  502  501  0.00000000000E+00  0.00000000000E+00  0.16068044641E+04  0.16068044641E+04  0.00000000000E+00 0.  1.
         21   -1    0    0  501  502 -0.00000000000E+00 -0.00000000000E+00 -0.13692900223E+03  0.13692900223E+03  0.00000000000E+00 0.  1.
         25    1    1    2    0    0  0.14328117340E+02  0.13960360592E+03 -0.10703340534E+02  0.18823927122E+03  0.12500000000E+03 0.  0.
         25    1    1    2    0    0  0.64345390178E+02  0.70795996676E+02  0.22960320773E+03  0.27837930128E+03  0.12500000000E+03 0.  0.
         25    1    1    2    0    0 -0.78673507518E+02 -0.21039960259E+03  0.12509755947E+04  0.12771148938E+04  0.12500000000E+03 0.  0.
</event>
<event>
 5    0  0.5670250E-005  0.3592699E+03  0.7546771E-02  0.1058873E+00
         21   -1    0    0  502  501  0.00000000000E+00  0.00000000000E+00  0.36059925736E+03  0.36059925736E+03  0.00000000000E+00 0.  1.
         21   -1    0    0  501  502 -0.00000000000E+00 -0.00000000000E+00 -0.35794551811E+03  0.35794551811E+03  0.00000000000E+00 0.  1.
         25    1    1    2    0    0 -0.95318734659E+02 -0.65761528111E+02  0.53028995530E+02  0.17845815791E+03  0.12500000000E+03 0.  0.
         25    1    1    2    0    0 -0.15572997270E+03 -0.19952629267E+02  0.83944846128E+02  0.21753544309E+03  0.12500000000E+03 0.  0.
         25    1    1    2    0    0  0.25104870735E+03  0.85714157377E+02 -0.13432010242E+03  0.32255117447E+03  0.12500000000E+03 0.  0.
</event>
<event>
 5    0  0.5670250E-005  0.4316447E+03  0.7546771E-02  0.1033342E+00
         21   -1    0    0  502  501  0.00000000000E+00  0.00000000000E+00  0.12238283099E+04  0.12238283099E+04  0.00000000000E+00 0. -1.
         21   -1    0    0  501  502 -0.00000000000E+00 -0.00000000000E+00 -0.15224121579E+03  0.15224121579E+03  0.00000000000E+00 0. -1.
         25    1    1    2    0    0 -0.19592256921E+03  0.59502398210E+02  0.22741633289E+03  0.33055918832E+03  0.12500000000E+03 0.  0.
         25    1    1    2    0    0  0.34335938217E+03  0.73190368296E+02  0.42517081821E+03  0.56537396473E+03  0.12500000000E+03 0.  0.
         25    1    1    2    0    0 -0.14743681296E+03 -0.13269276651E+03  0.41899994304E+03  0.48013637267E+03  0.12500000000E+03 0.  0.
</event>
<event>
 5    0  0.5670250E-005  0.2502873E+03  0.7546771E-02  0.1113123E+00
         21   -1    0    0  502  501  0.00000000000E+00  0.00000000000E+00  0.55316900984E+03  0.55316900984E+03  0.00000000000E+00 0.  1.
         21   -1    0    0  501  502 -0.00000000000E+00 -0.00000000000E+00 -0.11324518215E+03  0.11324518215E+03  0.00000000000E+00 0.  1.
         25    1    1    2    0    0 -0.12170859603E+02 -0.10873447217E+03  0.13564718071E+03  0.21446788314E+03  0.12500000000E+03 0.  0.
         25    1    1    2    0    0 -0.54361293647E+02 -0.23922906268E+02  0.14968064350E+03  0.20385472947E+03  0.12500000000E+03 0.  0.
         25    1    1    2    0    0  0.66532153250E+02  0.13265737843E+03  0.15459600348E+03  0.24809157939E+03  0.12500000000E+03 0.  0.
</event>
<event>
 5    0  0.5670250E-005  0.2915188E+03  0.7546771E-02  0.1089559E+00
         21   -1    0    0  502  501  0.00000000000E+00  0.00000000000E+00  0.45918035271E+02  0.45918035271E+02  0.00000000000E+00 0. -1.
         21   -1    0    0  501  502 -0.00000000000E+00 -0.00000000000E+00 -0.18507584695E+04  0.18507584695E+04  0.00000000000E+00 0. -1.
         25    1    1    2    0    0 -0.13029525520E+03  0.75796022021E+02 -0.44166210924E+03  0.48312763243E+03  0.12500000000E+03 0.  0.
         25    1    1    2    0    0  0.17345861934E+03 -0.32919912294E+02 -0.10310513278E+04  0.10535005714E+04  0.12500000000E+03 0.  0.
         25    1    1    2    0    0 -0.43163364142E+02 -0.42876109727E+02 -0.33212699710E+03  0.36004830091E+03  0.12500000000E+03 0.  0.
</event>
<event>
 5    0  0.5670250E-005  0.2388181E+03  0.7546771E-02  0.1120583E+00
         21   -1    0    0  502  501  0.00000000000E+00  0.00000000000E+00  0.32099529395E+03  0.32099529395E+03  0.00000000000E+00 0.  1.
         21   -1    0    0  501  502 -0.00000000000E+00 -0.00000000000E+00 -0.17767892325E+03  0.17767892325E+03  0.00000000000E+00 0.  1.
         25    1    1    2    0    0 -0.55099687205E+02  0.13472337396E+02 -0.14894906815E+02  0.13807366749E+03  0.12500000000E+03 0.  0.
         25    1    1    2    0    0 -0.10828766899E+02  0.36590019633E+02 -0.14957361842E+02  0.13154776472E+03  0.12500000000E+03 0.  0.
         25    1    1    2    0    0  0.65928454104E+02 -0.50062357029E+02  0.17316863936E+03  0.22905278499E+03  0.12500000000E+03 0.  0.
</event>
<event>
 5    0  0.5670250E-005  0.3035418E+03  0.7546771E-02  0.1083483E+00
         21   -1    0    0  502  501  0.00000000000E+00  0.00000000000E+00  0.11520589806E+03  0.11520589806E+03  0.00000000000E+00 0. -1.
         21   -1    0    0  501  502 -0.00000000000E+00 -0.00000000000E+00 -0.79976495631E+03  0.79976495631E+03  0.00000000000E+00 0. -1.
         25    1    1    2    0    0  0.10121831232E+02 -0.11046083053E+03 -0.41549425556E+03  0.44784430660E+03  0.12500000000E+03 0.  0.
         25    1    1    2    0    0 -0.87983826468E+02 -0.34840538526E+02 -0.47107603400E+02  0.16370443837E+03  0.12500000000E+03 0.  0.
         25    1    1    2    0    0  0.77861995236E+02  0.14530136906E+03 -0.22195719929E+03  0.30342210939E+03  0.12500000000E+03 0.  0.
</event>
<event>
 5    0  0.5670250E-005  0.2518461E+03  0.7546771E-02  0.1112144E+00
         21   -1    0    0  502  501  0.00000000000E+00  0.00000000000E+00  0.11533686435E+03  0.11533686435E+03  0.00000000000E+00 0. -1.
         21   -1    0    0  501  502 -0.00000000000E+00 -0.00000000000E+00 -0.54992365098E+03  0.54992365098E+03  0.00000000000E+00 0. -1.
         25    1    1    2    0    0 -0.23707162194E+02  0.54843388584E+02 -0.39169837533E+02  0.14397605003E+03  0.12500000000E+03 0.  0.
         25    1    1    2    0    0 -0.42142744466E+01 -0.87069906635E+02 -0.65425499166E+02  0.16584457993E+03  0.12500000000E+03 0.  0.
         25    1    1    2    0    0  0.27921436641E+02  0.32226518051E+02 -0.32999144992E+03  0.35543988537E+03  0.12500000000E+03 0.  0.
</event>
<event>
 5    0  0.5670250E-005  0.3868746E+03  0.7546771E-02  0.1048422E+00
         21   -1    0    0  502  501  0.00000000000E+00  0.00000000000E+00  0.51650536245E+03  0.51650536245E+03  0.00000000000E+00 0. -1.
         21   -1    0    0  501  502 -0.00000000000E+00 -0.00000000000E+00 -0.28977819834E+03  0.28977819834E+03  0.00000000000E+00 0. -1.
         25    1    1    2    0    0 -0.25913313175E+02  0.11486545314E+03  0.23023547204E+03  0.28722629530E+03  0.12500000000E+03 0.  0.
         25    1    1    2    0    0 -0.17896722309E+02 -0.14870678984E+03  0.19643185665E+03  0.27684738814E+03  0.12500000000E+03 0.  0.
         25    1    1    2    0    0  0.43810035484E+02  0.33841336703E+02 -0.19994016458E+03  0.24220987736E+03  0.12500000000E+03 0.  0.
</event>
<event>
 5    0  0.5670250E-005  0.2688834E+03  0.7546771E-02  0.1101920E+00
         21   -1    0    0  502  501  0.00000000000E+00  0.00000000000E+00  0.15379758466E+03  0.15379758466E+03  0.00000000000E+00 0.  1.
         21   -1    0    0  501  502 -0.00000000000E+00 -0.00000000000E+00 -0.47008708464E+03  0.47008708464E+03  0.00000000000E+00 0.  1.
         25    1    1    2    0    0  0.63462903477E+02  0.11859971167E+03 -0.13863725505E+03  0.23008415898E+03  0.12500000000E+03 0.  0.
         25    1    1    2    0    0 -0.19605375708E+02 -0.11550727550E+03 -0.19567133988E+03  0.26007417153E+03  0.12500000000E+03 0.  0.
         25    1    1    2    0    0 -0.43857527769E+02 -0.30924361735E+01  0.18019094948E+02  0.13372633879E+03  0.12500000000E+03 0.  0.
</event>
<event>
 5    0  0.5670250E-005  0.3286334E+03  0.7546771E-02  0.1071743E+00
         21   -1    0    0  502  501  0.00000000000E+00  0.00000000000E+00  0.24251663745E+03  0.24251663745E+03  0.00000000000E+00 0. -1.
         21   -1    0    0  501  502 -0.00000000000E+00 -0.00000000000E+00 -0.44532979277E+03  0.44532979277E+03  0.00000000000E+00 0. -1.
         25    1    1    2    0    0  0.12604886023E+03 -0.28275011436E+02 -0.17750947929E+02  0.18063191188E+03  0.12500000000E+03 0.  0.
         25    1    1    2    0    0  0.57422746026E+01 -0.84991928980E+01 -0.27423148709E+03  0.30155118722E+03  0.12500000000E+03 0.  0.
         25    1    1    2    0    0 -0.13179113483E+03  0.36774204334E+02  0.89169279708E+02  0.20566333112E+03  0.12500000000E+03 0.  0.
</event>
<event>
 5    0  0.5670250E-005  0.3965435E+03  0.7546771E-02  0.1044983E+00
         21   -1    0    0  502  501  0.00000000000E+00  0.00000000000E+00  0.37202070125E+03  0.37202070125E+03  0.00000000000E+00 0.  1.
         21   -1    0    0  501  502 -0.00000000000E+00 -0.00000000000E+00 -0.42268284355E+03  0.42268284355E+03  0.00000000000E+00 0.  1.
         25    1    1    2    0    0 -0.15961509695E+01 -0.77147296055E+02 -0.20443031401E+03  0.25173598525E+03  0.12500000000E+03 0.  0.
         25    1    1    2    0    0 -0.12931234549E+03  0.48389516397E+02  0.26847901143E+03  0.32675557772E+03  0.12500000000E+03 0.  0.
         25    1    1    2    0    0  0.13090849646E+03  0.28757779659E+02 -0.11471083973E+03  0.21621198183E+03  0.12500000000E+03 0.  0.
</event>
<event>
 5    0  0.5670250E-005  0.3905647E+03  0.7546771E-02  0.1047097E+00
         21   -1    0    0  502  501  0.00000000000E+00  0.00000000000E+00  0.24943032818E+03  0.24943032818E+03  0.00000000000E+00 0.  1.
         21   -1    0    0  501  502 -0.00000000000E+00 -0.00000000000E+00 -0.61155682248E+03  0.61155682248E+03  0.00000000000E+00 0.  1.
         25    1    1    2    0    0 -0.69958821820E+02 -0.43606730808E+01 -0.29500154374E+02  0.14631647661E+03  0.12500000000E+03 0.  0.
         25    1    1    2    0    0  0.61187848233E+02 -0.24771217033E+03 -0.32688724831E+03  0.43311146973E+03  0.12500000000E+03 0.  0.
         25    1    1    2    0    0  0.87709735870E+01  0.25207284342E+03 -0.57390916136E+01  0.28155920432E+03  0.12500000000E+03 0.  0.
</event>
<event>
 5    0  0.5670250E-005  0.5201869E+03  0.7546771E-02  0.1008640E+00
         21   -1    0    0  502  501  0.00000000000E+00  0.00000000000E+00  0.27996135323E+04  0.27996135323E+04  0.00000000000E+00 0. -1.
         21   -1    0    0  501  502 -0.00000000000E+00 -0.00000000000E+00 -0.96654193702E+02  0.96654193702E+02  0.00000000000E+00 0. -1.
         25    1    1    2    0    0  0.35569855955E+03 -0.10477060041E+02  0.13508846216E+04  0.14025496408E+04  0.12500000000E+03 0.  0.
         25    1    1    2    0    0 -0.25062728490E+03  0.11846867185E+03  0.31313686556E+03  0.43649577171E+03  0.12500000000E+03 0.  0.
         25    1    1    2    0    0 -0.10507127464E+03 -0.10799161181E+03  0.10389378515E+04  0.10572223135E+04  0.12500000000E+03 0.  0.
</event>
<event>
 5    0  0.5670250E-005  0.4713827E+03  0.7546771E-02  0.1021531E+00
         21   -1    0    0  502  501  0.00000000000E+00  0.00000000000E+00  0.40059346319E+03  0.40059346319E+03  0.00000000000E+00 0. -1.
         21   -1    0    0  501  502 -0.00000000000E+00 -0.00000000000E+00 -0.55468119426E+03  0.55468119426E+03  0.00000000000E+00 0. -1.
         25    1    1    2    0    0 -0.28925298340E+03  0.11759459306E+03  0.12983844216E+03  0.36052572417E+03  0.12500000000E+03 0.  0.
         25    1    1    2    0    0  0.19935585330E+03  0.99121327098E+02 -0.11713536009E+03  0.28091544335E+03  0.12500000000E+03 0.  0.
         25    1    1    2    0    0  0.89897130106E+02 -0.21671592016E+03 -0.16679081314E+03  0.31383348993E+03  0.12500000000E+03 0.  0.
</event>
<event>
 5    0  0.5670250E-005  0.2556566E+03  0.7546771E-02  0.1109781E+00
         21   -1    0    0  502  501  0.00000000000E+00  0.00000000000E+00  0.15943332210E+03  0.15943332210E+03  0.00000000000E+00 0.  1.
         21   -1    0    0  501  502 -0.00000000000E+00 -0.00000000000E+00 -0.40995374385E+03  0.40995374385E+03  0.00000000000E+00 0.  1.
         25    1    1    2    0    0 -0.38875881303E+02  0.93170944270E+01 -0.98593157379E+02  0.16414552409E+03  0.12500000000E+03 0.  0.
         25    1    1    2    0    0  0.31106495921E+02 -0.12103253643E+03 -0.15832435464E+03  0.23729325788E+03  0.12500000000E+03 0.  0.
         25    1    1    2    0    0  0.77693853820E+01  0.11171544200E+03  0.63970902639E+01  0.16794828399E+03  0.12500000000E+03 0.  0.
</event>
<event>
 5    0  0.5670250E-005  0.2860860E+03  0.7546771E-02  0.1092411E+00
         21   -1    0    0  502  501  0.00000000000E+00  0.00000000000E+00  0.80215234350E+03  0.80215234350E+03  0.00000000000E+00 0. -1.
         21   -1    0    0  501  502 -0.00000000000E+00 -0.00000000000E+00 -0.10203201935E+03  0.10203201935E+03  0.00000000000E+00 0. -1.
         25    1    1    2    0    0 -0.73835210905E+02 -0.54020934001E+02  0.13225237103E+02  0.15546641623E+03  0.12500000000E+03 0.  0.
         25    1    1    2    0    0  0.25027414506E+02  0.68068141310E+02  0.48353610500E+03  0.50466999928E+03  0.12500000000E+03 0.  0.
         25    1    1    2    0    0  0.48807796399E+02 -0.14047207309E+02  0.20335898204E+03  0.24404794734E+03  0.12500000000E+03 0.  0.
</event>
<event>
 5    0  0.5670250E-005  0.2472489E+03  0.7546771E-02  0.1115056E+00
         21   -1    0    0  502  501  0.00000000000E+00  0.00000000000E+00  0.47896836932E+02  0.47896836932E+02  0.00000000000E+00 0. -1.
         21   -1    0    0  501  502 -0.00000000000E+00 -0.00000000000E+00 -0.12763264470E+04  0.12763264470E+04  0.00000000000E+00 0. -1.
         25    1    1    2    0    0 -0.10545037274E+03  0.92114576680E+01 -0.32166461619E+03  0.36096780656E+03  0.12500000000E+03 0.  0.
         25    1    1    2    0    0  0.11027890822E+03 -0.65977728067E+02 -0.61805194702E+03  0.64352754985E+03  0.12500000000E+03 0.  0.
         25    1    1    2    0    0 -0.48285354814E+01  0.56766270399E+02 -0.28871304681E+03  0.31972792748E+03  0.12500000000E+03 0.  0.
</event>
<event>
 5    0  0.5670250E-005  0.6906132E+03  0.7546771E-02  0.9733421E-01
         21   -1    0    0  502  501  0.00000000000E+00  0.00000000000E+00  0.59923271435E+03  0.59923271435E+03  0.00000000000E+00 0. -1.
         21   -1    0    0  501  502 -0.00000000000E+00 -0.00000000000E+00 -0.79592882277E+03  0.79592882277E+03  0.00000000000E+00 0. -1.
         25    1    1    2    0    0 -0.36301509395E+03 -0.88228154203E+01  0.57194346319E+02  0.38827051621E+03  0.12500000000E+03 0.  0.
         25    1    1    2    0    0 -0.26501145991E+03  0.87651237018E+02 -0.18645793757E+03  0.35819739770E+03  0.12500000000E+03 0.  0.
         25    1    1    2    0    0  0.62802655386E+03 -0.78828421598E+02 -0.67432517165E+02  0.64869362320E+03  0.12500000000E+03 0.  0.
</event>
<event>
 5    0  0.5670250E-005  0.4144346E+03  0.7546771E-02  0.1038893E+00
         21   -1    0    0  502  501  0.00000000000E+00  0.00000000000E+00  0.36683694042E+03  0.36683694042E+03  0.00000000000E+00 0. -1.
         21   -1    0    0  501  502 -0.00000000000E+00 -0.00000000000E+00 -0.46820812759E+03  0.46820812759E+03  0.00000000000E+00 0. -1.
         25    1    1    2    0    0  0.14042300715E+03 -0.24494278030E+03 -0.27239860822E+03  0.41175428148E+03  0.12500000000E+03 0.  0.
         25    1    1    2    0    0 -0.73612910852E+02  0.10318621187E+03  0.12526485293E+03  0.21767530486E+03  0.12500000000E+03 0.  0.
         25    1    1    2    0    0 -0.66810096297E+02  0.14175656843E+03  0.45762568125E+02  0.20561548167E+03  0.12500000000E+03 0.  0.
</event>
<event>
 5    0  0.5670250E-005  0.2872840E+03  0.7546771E-02  0.1091776E+00
         21   -1    0    0  502  501  0.00000000000E+00  0.00000000000E+00  0.18873774856E+03  0.18873774856E+03  0.00000000000E+00 0.  1.
         21   -1    0    0  501  502 -0.00000000000E+00 -0.00000000000E+00 -0.43728437653E+03  0.43728437653E+03  0.00000000000E+00 0.  1.
         25    1    1    2    0    0 -0.91436057679E+01 -0.92694321275E+02 -0.83062727125E+01  0.15610841390E+03  0.12500000000E+03 0.  0.
         25    1    1    2    0    0 -0.91299739755E+02 -0.14600575728E+02 -0.22880767330E+03  0.27663472424E+03  0.12500000000E+03 0.  0.
         25    1    1    2    0    0  0.10044334552E+03  0.10729489700E+03 -0.11432681949E+02  0.19327898696E+03  0.12500000000E+03 0.  0.
</event>
<event>
 5    0  0.5670250E-005  0.3011424E+03  0.7546771E-02  0.1084671E+00
         21   -1    0    0  502  501  0.00000000000E+00  0.00000000000E+00  0.45887635220E+03  0.45887635220E+03  0.00000000000E+00 0. -1.
         21   -1    0    0  501  502 -0.00000000000E+00 -0.00000000000E+00 -0.19762781212E+03  0.19762781212E+03  0.00000000000E+00 0. -1.
         25    1    1    2    0    0 -0.50073859341E+02 -0.15409694979E+03  0.11702167399E+03  0.23573784912E+03  0.12500000000E+03 0.  0.
         25    1    1    2    0    0 -0.45615191037E+02  0.19116199923E+03  0.73339787885E+02  0.24418718248E+03  0.12500000000E+03 0.  0.
         25    1    1    2    0    0  0.95689050378E+02 -0.37065049440E+02  0.70887078207E+02  0.17657913271E+03  0.12500000000E+03 0.  0.
</event>
<event>
 5    0  0.5670250E-005  0.2143439E+03  0.7546771E-02  0.1138172E+00
         21   -1    0    0  502  501  0.00000000000E+00  0.00000000000E+00  0.14447325723E+03  0.14447325723E+03  0.00000000000E+00 0.  1.
         21   -1    0    0  501  502 -0.00000000000E+00 -0.00000000000E+00 -0.31800554382E+03  0.31800554382E+03  0.00000000000E+00 0.  1.
         25    1    1    2    0    0 -0.20720683897E+02  0.49976798393E+01  0.91686781974E+01  0.12713531455E+03  0.12500000000E+03 0.  0.
         25    1    1    2    0    0 -0.48228320664E+02 -0.52143099316E+01 -0.11799495192E+03  0.17860842259E+03  0.12500000000E+03 0.  0.
         25    1    1    2    0    0  0.68949004561E+02  0.21663009237E+00 -0.64706012863E+02  0.15673506391E+03  0.12500000000E+03 0.  0.
</event>
<event>
 5    0  0.5670250E-005  0.3143890E+03  0.7546771E-02  0.1078261E+00
         21   -1    0    0  502  501  0.00000000000E+00  0.00000000000E+00  0.31486925594E+04  0.31486925594E+04  0.00000000000E+00 0. -1.
         21   -1    0    0  501  502 -0.00000000000E+00 -0.00000000000E+00 -0.31390952101E+02  0.31390952101E+02  0.00000000000E+00 0. -1.
         25    1    1    2    0    0 -0.37920463259E+02 -0.48254735382E+02  0.34407279500E+03  0.37118401000E+03  0.12500000000E+03 0.  0.
         25    1    1    2    0    0  0.14121985173E+03 -0.48820767382E+02  0.68581390269E+03  0.71294615714E+03  0.12500000000E+03 0.  0.
         25    1    1    2    0    0 -0.10329938847E+03  0.97075502765E+02  0.20874149096E+04  0.20959533443E+04  0.12500000000E+03 0.  0.
</event>
<event>
 5    0  0.5670250E-005  0.4247665E+03  0.7546771E-02  0.1035526E+00
         21   -1    0    0  502  501  0.00000000000E+00  0.00000000000E+00  0.57729091188E+03  0.57729091188E+03  0.00000000000E+00 0. -1.
         21   -1    0    0  501  502 -0.00000000000E+00 -0.00000000000E+00 -0.31254014278E+03  0.31254014278E+03  0.00000000000E+00 0. -1.
         25    1    1    2    0    0  0.45337681781E+02 -0.36458052984E+02 -0.13700137416E+03  0.19436839130E+03  0.12500000000E+03 0.  0.
         25    1    1    2    0    0 -0.17394636282E+03  0.12229313199E+03 -0.61104511320E+00  0.24665425325E+03  0.12500000000E+03 0.  0.
         25    1    1    2    0    0  0.12860868104E+03 -0.85835079007E+02  0.40236318837E+03  0.44880841010E+03  0.12500000000E+03 0.  0.
</event>
<event>
 5    0  0.5670250E-005  0.3031020E+03  0.7546771E-02  0.1083700E+00
         21   -1    0    0  502  501  0.00000000000E+00  0.00000000000E+00  0.27130872364E+02  0.27130872364E+02  0.00000000000E+00 0. -1.
         21   -1    0    0  501  502 -0.00000000000E+00 -0.00000000000E+00 -0.33862102216E+04  0.33862102216E+04  0.00000000000E+00 0. -1.
         25    1    1    2    0    0  0.13743452546E+03  0.22223955993E+02 -0.12276783198E+04  0.12418539407E+04  0.12500000000E+03 0.  0.
         25    1    1    2    0    0 -0.13002320069E+03  0.37109533572E+02 -0.47724863944E+03  0.51154121442E+03  0.12500000000E+03 0.  0.
         25    1    1    2    0    0 -0.74113247692E+01 -0.59333489565E+02 -0.16541523899E+04  0.16599459388E+04  0.12500000000E+03 0.  0.
</event>
<event>
 5    0  0.5670250E-005  0.3743833E+03  0.7546771E-02  0.1053029E+00
         21   -1    0    0  502  501  0.00000000000E+00  0.00000000000E+00  0.55006560715E+03  0.55006560715E+03  0.00000000000E+00 0.  1.
         21   -1    0    0  501  502 -0.00000000000E+00 -0.00000000000E+00 -0.25481109199E+03  0.25481109199E+03  0.00000000000E+00 0.  1.
         25    1    1    2    0    0 -0.86351372757E+02  0.16891181671E+03 -0.13142488831E+03  0.26246002108E+03  0.12500000000E+03 0.  0.
         25    1    1    2    0    0  0.11519717013E+02 -0.72978896957E+02  0.27620606131E+03  0.31204713040E+03  0.12500000000E+03 0.  0.
         25    1    1    2    0    0  0.74831655744E+02 -0.95932919752E+02  0.15047334215E+03  0.23036954767E+03  0.12500000000E+03 0.  0.
</event>
<event>
 5    0  0.7198195E-005  0.6380185E+03  0.7546771E-02  0.9829525E-01
         21   -1    0    0  502  501  0.00000000000E+00  0.00000000000E+00  0.30551474835E+03  0.30551474835E+03  0.00000000000E+00 0. -1.
         21   -1    0    0  501  502 -0.00000000000E+00 -0.00000000000E+00 -0.13323990800E+04  0.13323990800E+04  0.00000000000E+00 0. -1.
         25    1    1    2    0    0  0.31215024745E+03 -0.16587238959E+03 -0.32232241498E+03  0.49443722130E+03  0.12500000000E+03 0.  0.
         25    1    1    2    0    0  0.11934903677E+03  0.33981894934E+03 -0.47716348200E+03  0.61076271945E+03  0.12500000000E+03 0.  0.
         25    1    1    2    0    0 -0.43149928422E+03 -0.17394655975E+03 -0.22739843462E+03  0.53271388756E+03  0.12500000000E+03 0.  0.
</event>
<event>
 5    0  0.5670250E-005  0.2840898E+03  0.7546771E-02  0.1093476E+00
         21   -1    0    0  502  501  0.00000000000E+00  0.00000000000E+00  0.94474604053E+03  0.94474604053E+03  0.00000000000E+00 0.  1.
         21   -1    0    0  501  502 -0.00000000000E+00 -0.00000000000E+00 -0.85427196196E+02  0.85427196196E+02  0.00000000000E+00 0.  1.
         25    1    1    2    0    0  0.17925447840E+03 -0.17669393680E+02  0.27132191062E+03  0.34883370634E+03  0.12500000000E+03 0.  0.
         25    1    1    2    0    0 -0.14316759989E+03  0.15486353819E+01  0.22023273001E+03  0.29090688424E+03  0.12500000000E+03 0.  0.
         25    1    1    2    0    0 -0.36086878509E+02  0.16120758299E+02  0.36776420371E+03  0.39043264615E+03  0.12500000000E+03 0.  0.
</event>
<event>
 5    0  0.5670250E-005  0.4086192E+03  0.7546771E-02  0.1040835E+00
         21   -1    0    0  502  501  0.00000000000E+00  0.00000000000E+00  0.10048713689E+04  0.10048713689E+04  0.00000000000E+00 0.  1.
         21   -1    0    0  501  502 -0.00000000000E+00 -0.00000000000E+00 -0.16616021259E+03  0.16616021259E+03  0.00000000000E+00 0.  1.
         25    1    1    2    0    0  0.25877684970E+03  0.13080056809E+03  0.26853466026E+03  0.41449983151E+03  0.12500000000E+03 0.  0.
         25    1    1    2    0    0 -0.10210407738E+03 -0.46357443465E+01  0.47429770169E+03  0.50102898376E+03  0.12500000000E+03 0.  0.
         25    1    1    2    0    0 -0.15667277233E+03 -0.12616482374E+03  0.95878794346E+02  0.25550276622E+03  0.12500000000E+03 0.  0.
</event>
<event>
 5    0  0.5670250E-005  0.2597683E+03  0.7546771E-02  0.1107283E+00
         21   -1    0    0  502  501  0.00000000000E+00  0.00000000000E+00  0.33245688460E+02  0.33245688460E+02  0.00000000000E+00 0.  1.
         21   -1    0    0  501  502 -0.00000000000E+00 -0.00000000000E+00 -0.20297240477E+04  0.20297240477E+04  0.00000000000E+00 0.  1.
         25    1    1    2    0    0 -0.29851165459E+02  0.26988059547E+02 -0.52957047206E+03  0.54560913877E+03  0.12500000000E+03 0.  0.
         25    1    1    2    0    0 -0.92307479171E+02 -0.69013920984E+02 -0.38854730466E+03  0.42411979435E+03  0.12500000000E+03 0.  0.
         25    1    1    2    0    0  0.12215864463E+03  0.42025861437E+02 -0.10783605825E+04  0.10932408030E+04  0.12500000000E+03 0.  0.
</event>
<event>
 5    0  0.5670250E-005  0.2401252E+03  0.7546771E-02  0.1119709E+00
         21   -1    0    0  502  501  0.00000000000E+00  0.00000000000E+00  0.16289011766E+03  0.16289011766E+03  0.00000000000E+00 0.  1.
         21   -1    0    0  501  502 -0.00000000000E+00 -0.00000000000E+00 -0.35398174034E+03  0.35398174034E+03  0.00000000000E+00 0.  1.
         25    1    1    2    0    0  0.70462599534E+02  0.27680540370E+02 -0.11923144230E+03  0.18860627530E+03  0.12500000000E+03 0.  0.
         25    1    1    2    0    0  0.16672181241E+01  0.49778796553E+02  0.26595263312E+02  0.13716054911E+03  0.12500000000E+03 0.  0.
         25    1    1    2    0    0 -0.72129817658E+02 -0.77459336923E+02 -0.98455443684E+02  0.19110503359E+03  0.12500000000E+03 0.  0.
</event>
<event>
 5    0  0.5670250E-005  0.3352264E+03  0.7546771E-02  0.1068847E+00
         21   -1    0    0  502  501  0.00000000000E+00  0.00000000000E+00  0.58722329560E+03  0.58722329560E+03  0.00000000000E+00 0.  1.
         21   -1    0    0  501  502 -0.00000000000E+00 -0.00000000000E+00 -0.19136964246E+03  0.19136964246E+03  0.00000000000E+00 0.  1.
         25    1    1    2    0    0 -0.13524197739E+03  0.36422764678E+02  0.93360648970E+02  0.20966215922E+03  0.12500000000E+03 0.  0.
         25    1    1    2    0    0  0.11124061737E+03  0.17021599515E+03  0.16250046435E+03  0.28875484562E+03  0.12500000000E+03 0.  0.
         25    1    1    2    0    0  0.24001360020E+02 -0.20663875983E+03  0.13999253982E+03  0.28017593321E+03  0.12500000000E+03 0.  0.
</event>
<event>
 5    0  0.5670250E-005  0.2364875E+03  0.7546771E-02  0.1122155E+00
         21   -1    0    0  502  501  0.00000000000E+00  0.00000000000E+00  0.92345080212E+03  0.92345080212E+03  0.00000000000E+00 0. -1.
         21   -1    0    0  501  502 -0.00000000000E+00 -0.00000000000E+00 -0.60562343385E+02  0.60562343385E+02  0.00000000000E+00 0. -1.
         25    1    1    2    0    0  0.12578602122E+02  0.79263663369E+02  0.33877468297E+03  0.36991111822E+03  0.12500000000E+03 0.  0.
         25    1    1    2    0    0  0.70923501624E+02  0.68265081555E+01  0.19697723537E+03  0.24392985785E+03  0.12500000000E+03 0.  0.
         25    1    1    2    0    0 -0.83502103746E+02 -0.86090171524E+02  0.32713654040E+03  0.37017216944E+03  0.12500000000E+03 0.  0.
</event>
<event>
 5    0  0.5670250E-005  0.4946833E+03  0.7546771E-02  0.1015176E+00
         21   -1    0    0  502  501  0.00000000000E+00  0.00000000000E+00  0.94814599328E+03  0.94814599328E+03  0.00000000000E+00 0. -1.
         21   -1    0    0  501  502 -0.00000000000E+00 -0.00000000000E+00 -0.25809479464E+03  0.25809479464E+03  0.00000000000E+00 0. -1.
         25    1    1    2    0    0  0.18776775881E+03  0.33384145023E+03  0.39016955857E+03  0.56086016936E+03  0.12500000000E+03 0.  0.
         25    1    1    2    0    0 -0.11973304077E+03 -0.31268313195E+03  0.34281568086E+03  0.49523159542E+03  0.12500000000E+03 0.  0.
         25    1    1    2    0    0 -0.68034718046E+02 -0.21158318278E+02 -0.42934040787E+02  0.15014902314E+03  0.12500000000E+03 0.  0.
</event>
<event>
 5    0  0.5670250E-005  0.2851890E+03  0.7546771E-02  0.1092888E+00
         21   -1    0    0  502  501  0.00000000000E+00  0.00000000000E+00  0.74224840367E+02  0.74224840367E+02  0.00000000000E+00 0.  1.
         21   -1    0    0  501  502 -0.00000000000E+00 -0.00000000000E+00 -0.10957624189E+04  0.10957624189E+04  0.00000000000E+00 0.  1.
         25    1    1    2    0    0  0.64547728106E+02  0.77534016485E+02 -0.56773633143E+03  0.59002328339E+03  0.12500000000E+03 0.  0.
         25    1    1    2    0    0 -0.93038266918E+01 -0.15844693444E+03 -0.24252113268E+03  0.31564773406E+03  0.12500000000E+03 0.  0.
         25    1    1    2    0    0 -0.55243901415E+02  0.80912917952E+02 -0.21128011442E+03  0.26431624181E+03  0.12500000000E+03 0.  0.
</event>
<event>
 5    0  0.5670250E-005  0.2227941E+03  0.7546771E-02  0.1131817E+00
         21   -1    0    0  502  501  0.00000000000E+00  0.00000000000E+00  0.48974059999E+03  0.48974059999E+03  0.00000000000E+00 0.  1.
         21   -1    0    0  501  502 -0.00000000000E+00 -0.00000000000E+00 -0.10135412965E+03  0.10135412965E+03  0.00000000000E+00 0.  1.
         25    1    1    2    0    0  0.51343916399E+02 -0.77058141072E+02  0.22488093445E+03  0.27344211368E+03  0.12500000000E+03 0.  0.
         25    1    1    2    0    0 -0.53284231423E+02  0.42820546717E+02  0.78795635669E+02  0.16280835587E+03  0.12500000000E+03 0.  0.
         25    1    1    2    0    0  0.19403150234E+01  0.34237594355E+02  0.84709900224E+02  0.15484426010E+03  0.12500000000E+03 0.  0.
</event>
<event>
 5    0  0.5670250E-005  0.3782120E+03  0.7546771E-02  0.1051597E+00
         21   -1    0    0  502  501  0.00000000000E+00  0.00000000000E+00  0.10964988481E+04  0.10964988481E+04  0.00000000000E+00 0. -1.
         21   -1    0    0  501  502 -0.00000000000E+00 -0.00000000000E+00 -0.13045553406E+03  0.13045553406E+03  0.00000000000E+00 0. -1.
         25    1    1    2    0    0  0.10255242382E+03  0.18626144311E+02  0.70792394293E+03  0.72639193406E+03  0.12500000000E+03 0.  0.
         25    1    1    2    0    0 -0.20880771976E+03 -0.76176488552E+02  0.15162079977E+03  0.29667724578E+03  0.12500000000E+03 0.  0.
         25    1    1    2    0    0  0.10625529594E+03  0.57550344240E+02  0.10649857137E+03  0.20388520236E+03  0.12500000000E+03 0.  0.
</event>
<event>
 5    0  0.5670250E-005  0.2609921E+03  0.7546771E-02  0.1106549E+00
         21   -1    0    0  502  501  0.00000000000E+00  0.00000000000E+00  0.64622972789E+03  0.64622972789E+03  0.00000000000E+00 0.  1.
         21   -1    0    0  501  502 -0.00000000000E+00 -0.00000000000E+00 -0.10540658969E+03  0.10540658969E+03  0.00000000000E+00 0.  1.
         25    1    1    2    0    0  0.30938305143E+02  0.21203359550E+02  0.21795465041E+03  0.25403934895E+03  0.12500000000E+03 0.  0.
         25    1    1    2    0    0  0.75701785503E+01 -0.75100298309E+02  0.10147234344E+01  0.14602531312E+03  0.12500000000E+03 0.  0.
         25    1    1    2    0    0 -0.38508483694E+02  0.53896938759E+02  0.32185376435E+03  0.35157165550E+03  0.12500000000E+03 0.  0.
</event>
<event>
 5    0  0.5670250E-005  0.5581769E+03  0.7546771E-02  0.9996188E-01
         21   -1    0    0  502  501  0.00000000000E+00  0.00000000000E+00  0.61487095149E+03  0.61487095149E+03  0.00000000000E+00 0.  1.
         21   -1    0    0  501  502 -0.00000000000E+00 -0.00000000000E+00 -0.50671037724E+03  0.50671037724E+03  0.00000000000E+00 0.  1.
         25    1    1    2    0    0 -0.30706743980E+03 -0.17258095877E+03  0.37176398801E+03  0.52716986133E+03  0.12500000000E+03 0.  0.
         25    1    1    2    0    0  0.23504869264E+03  0.12364982288E+03 -0.31789720545E+03  0.43269018922E+03  0.12500000000E+03 0.  0.
         25    1    1    2    0    0  0.72018747151E+02  0.48931135894E+02  0.54293791691E+02  0.16172127818E+03  0.12500000000E+03 0.  0.
</event>
<event>
 5    0  0.5670250E-005  0.4316759E+03  0.7546771E-02  0.1033332E+00
         21   -1    0    0  502  501  0.00000000000E+00  0.00000000000E+00  0.38694987945E+03  0.38694987945E+03  0.00000000000E+00 0. -1.
         21   -1    0    0  501  502 -0.00000000000E+00 -0.00000000000E+00 -0.48157153355E+03  0.48157153355E+03  0.00000000000E+00 0. -1.
         25    1    1    2    0    0 -0.11427148244E+03 -0.20096329626E+03 -0.98828704337E+01  0.26299598718E+03  0.12500000000E+03 0.  0.
         25    1    1    2    0    0  0.23351482751E+03  0.28365556124E+03  0.17373210118E+02  0.38847970413E+03  0.12500000000E+03 0.  0.
         25    1    1    2    0    0 -0.11924334507E+03 -0.82692264975E+02 -0.10211199378E+03  0.21704572169E+03  0.12500000000E+03 0.  0.
</event>
<event>
 5    0  0.5670250E-005  0.2405171E+03  0.7546771E-02  0.1119449E+00
         21   -1    0    0  502  501  0.00000000000E+00  0.00000000000E+00  0.31094890650E+03  0.31094890650E+03  0.00000000000E+00 0.  1.
         21   -1    0    0  501  502 -0.00000000000E+00 -0.00000000000E+00 -0.18603851553E+03  0.18603851553E+03  0.00000000000E+00 0.  1.
         25    1    1    2    0    0 -0.12981064245E+02 -0.57202310610E+02 -0.76496094333E+01  0.13829001733E+03  0.12500000000E+03 0.  0.
         25    1    1    2    0    0  0.97055603073E+02 -0.15893716882E+02  0.10070722093E+03  0.18825340547E+03  0.12500000000E+03 0.  0.
         25    1    1    2    0    0 -0.84074538827E+02  0.73096027492E+02  0.31852779474E+02  0.17044399923E+03  0.12500000000E+03 0.  0.
</event>
<event>
 5    0  0.5670250E-005  0.2988204E+03  0.7546771E-02  0.1085832E+00
         21   -1    0    0  502  501  0.00000000000E+00  0.00000000000E+00  0.13838317185E+04  0.13838317185E+04  0.00000000000E+00 0. -1.
         21   -1    0    0  501  502 -0.00000000000E+00 -0.00000000000E+00 -0.64526377828E+02  0.64526377828E+02  0.00000000000E+00 0. -1.
         25    1    1    2    0    0  0.16840538921E+03  0.72803020139E+02  0.31928561247E+03  0.38888167505E+03  0.12500000000E+03 0.  0.
         25    1    1    2    0    0 -0.16325873707E+03 -0.79464488428E+02  0.55551772758E+03  0.59765622711E+03  0.12500000000E+03 0.  0.
         25    1    1    2    0    0 -0.51466521324E+01  0.66614682886E+01  0.44450200063E+03  0.46182019418E+03  0.12500000000E+03 0.  0.
</event>
<event>
 5    0  0.5670250E-005  0.2773442E+03  0.7546771E-02  0.1097148E+00
         21   -1    0    0  502  501  0.00000000000E+00  0.00000000000E+00  0.15492361731E+03  0.15492361731E+03  0.00000000000E+00 0.  1.
         21   -1    0    0  501  502 -0.00000000000E+00 -0.00000000000E+00 -0.49650149065E+03  0.49650149065E+03  0.00000000000E+00 0.  1.
         25    1    1    2    0    0  0.33993144189E+02  0.50173984883E+02 -0.10422943979E+03  0.17367135265E+03  0.12500000000E+03 0.  0.
         25    1    1    2    0    0  0.13272812869E+03  0.34914468976E+02 -0.14006835032E+03  0.23255089561E+03  0.12500000000E+03 0.  0.
         25    1    1    2    0    0 -0.16672127288E+03 -0.85088453859E+02 -0.97280083235E+02  0.24520285970E+03  0.12500000000E+03 0.  0.
</event>
<event>
 5    0  0.5670250E-005  0.2936439E+03  0.7546771E-02  0.1088462E+00
         21   -1    0    0  502  501  0.00000000000E+00  0.00000000000E+00  0.85293775619E+02  0.85293775619E+02  0.00000000000E+00 0.  1.
         21   -1    0    0  501  502 -0.00000000000E+00 -0.00000000000E+00 -0.10109383896E+04  0.10109383896E+04  0.00000000000E+00 0.  1.
         25    1    1    2    0    0 -0.10665746328E+03 -0.45080514039E+02 -0.54412734815E+03  0.57018210971E+03  0.12500000000E+03 0.  0.
         25    1    1    2    0    0  0.20536625765E+02 -0.46440294721E+01 -0.16776164940E+02  0.12786617894E+03  0.12500000000E+03 0.  0.
         25    1    1    2    0    0  0.86120837518E+02  0.49724543511E+02 -0.36474110087E+03  0.39818387655E+03  0.12500000000E+03 0.  0.
</event>
<event>
 5    0  0.5670250E-005  0.2659682E+03  0.7546771E-02  0.1103610E+00
         21   -1    0    0  502  501  0.00000000000E+00  0.00000000000E+00  0.64866050275E+03  0.64866050275E+03  0.00000000000E+00 0.  1.
         21   -1    0    0  501  502 -0.00000000000E+00 -0.00000000000E+00 -0.10905409010E+03  0.10905409010E+03  0.00000000000E+00 0.  1.
         25    1    1    2    0    0 -0.12211213854E+02  0.90346025996E+02  0.46661349243E+02  0.16159764748E+03  0.12500000000E+03 0.  0.
         25    1    1    2    0    0  0.10102545748E+03 -0.36382936347E+02  0.18391850836E+03  0.24694306800E+03  0.12500000000E+03 0.  0.
         25    1    1    2    0    0 -0.88814243622E+02 -0.53963089650E+02  0.30902655505E+03  0.34917387737E+03  0.12500000000E+03 0.  0.
</event>
<event>
 5    0  0.5670250E-005  0.2530622E+03  0.7546771E-02  0.1111385E+00
         21   -1    0    0  502  501  0.00000000000E+00  0.00000000000E+00  0.18872039640E+04  0.18872039640E+04  0.00000000000E+00 0.  1.
         21   -1    0    0  501  502 -0.00000000000E+00 -0.00000000000E+00 -0.33934039718E+02  0.33934039718E+02  0.00000000000E+00 0.  1.
         25    1    1    2    0    0  0.55604661833E+02  0.33219267583E+02  0.11935596963E+04  0.12018340762E+04  0.12500000000E+03 0.  0.
         25    1    1    2    0    0  0.17997986460E+02  0.15242432188E+02  0.22492704067E+03  0.25840555892E+03  0.12500000000E+03 0.  0.
         25    1    1    2    0    0 -0.73602648293E+02 -0.48461699771E+02  0.43478318732E+03  0.46089836858E+03  0.12500000000E+03 0.  0.
</event>
<event>
 5    0  0.5670250E-005  0.2177028E+03  0.7546771E-02  0.1135607E+00
         21   -1    0    0  502  501  0.00000000000E+00  0.00000000000E+00  0.65678105189E+02  0.65678105189E+02  0.00000000000E+00 0.  1.
         21   -1    0    0  501  502 -0.00000000000E+00 -0.00000000000E+00 -0.72161784727E+03  0.72161784727E+03  0.00000000000E+00 0.  1.
         25    1    1    2    0    0  0.56115223894E+02  0.10307204987E+01 -0.15320081217E+03  0.20553702729E+03  0.12500000000E+03 0.  0.
         25    1    1    2    0    0 -0.62358744664E+02 -0.60700439734E+02 -0.23104222259E+03  0.27672850420E+03  0.12500000000E+03 0.  0.
         25    1    1    2    0    0  0.62435207699E+01  0.59669719235E+02 -0.27169670732E+03  0.30503042097E+03  0.12500000000E+03 0.  0.
</event>
<event>
 5    0  0.5670250E-005  0.2970183E+03  0.7546771E-02  0.1086741E+00
         21   -1    0    0  502  501  0.00000000000E+00  0.00000000000E+00  0.11965102704E+04  0.11965102704E+04  0.00000000000E+00 0.  1.
         21   -1    0    0  501  502 -0.00000000000E+00 -0.00000000000E+00 -0.73730980055E+02  0.73730980055E+02  0.00000000000E+00 0.  1.
         25    1    1    2    0    0  0.81813497449E+02  0.65601721041E+02  0.38828444954E+03  0.42117318044E+03  0.12500000000E+03 0.  0.
         25    1    1    2    0    0 -0.13447171398E+02  0.27360299601E+02  0.41039702279E+02  0.13505061857E+03  0.12500000000E+03 0.  0.
         25    1    1    2    0    0 -0.68366326051E+02 -0.92962020642E+02  0.69345513856E+03  0.71401745148E+03  0.12500000000E+03 0.  0.
</event>
<event>
 5    0  0.5670250E-005  0.3564531E+03  0.7546771E-02  0.1059997E+00
         21   -1    0    0  502  501  0.00000000000E+00  0.00000000000E+00  0.11611238781E+04  0.11611238781E+04  0.00000000000E+00 0.  1.
         21   -1    0    0  501  502 -0.00000000000E+00 -0.00000000000E+00 -0.10942745370E+03  0.10942745370E+03  0.00000000000E+00 0.  1.
         25    1    1    2    0    0 -0.21876884127E+03 -0.26007550856E+02  0.16073265033E+03  0.29999363909E+03  0.12500000000E+03 0.  0.
         25    1    1    2    0    0  0.77023743125E+02 -0.21990769402E+02  0.17993025751E+03  0.23327269131E+03  0.12500000000E+03 0.  0.
         25    1    1    2    0    0  0.14174509815E+03  0.47998320259E+02  0.71103351652E+03  0.73728500135E+03  0.12500000000E+03 0.  0.
</event>
<event>
 5    0  0.5985142E-005  0.3371119E+03  0.7546771E-02  0.1068033E+00
         21   -1    0    0  502  501  0.00000000000E+00  0.00000000000E+00  0.94405909055E+03  0.94405909055E+03  0.00000000000E+00 0.  1.
         21   -1    0    0  501  502 -0.00000000000E+00 -0.00000000000E+00 -0.12037854328E+03  0.12037854328E+03  0.00000000000E+00 0.  1.
         25    1    1    2    0    0 -0.81494891043E+01  0.11375354926E+03  0.10938161771E+03  0.20148355376E+03  0.12500000000E+03 0.  0.
         25    1    1    2    0    0  0.58186103027E+02 -0.74344919375E+02  0.70517756154E+03  0.72236637720E+03  0.12500000000E+03 0.  0.
         25    1    1    2    0    0 -0.50036613923E+02 -0.39408629888E+02  0.91213680342E+01  0.14058770287E+03  0.12500000000E+03 0.  0.
</event>
<event>
 5    0  0.5670250E-005  0.3426872E+03  0.7546771E-02  0.1065657E+00
         21   -1    0    0  502  501  0.00000000000E+00  0.00000000000E+00  0.76271563245E+03  0.76271563245E+03  0.00000000000E+00 0.  1.
         21   -1    0    0  501  502 -0.00000000000E+00 -0.00000000000E+00 -0.15396893518E+03  0.15396893518E+03  0.00000000000E+00 0.  1.
         25    1    1    2    0    0 -0.41946124550E+01  0.11823264949E+03 -0.76456574015E+01  0.17227887351E+03  0.12500000000E+03 0.  0.
         25    1    1    2    0    0 -0.82034631771E+02 -0.17921576671E+03  0.47033864572E+03  0.52506324715E+03  0.12500000000E+03 0.  0.
         25    1    1    2    0    0  0.86229244225E+02  0.60983117216E+02  0.14605370896E+03  0.21934244698E+03  0.12500000000E+03 0.  0.
</event>
<event>
 5    0  0.5670250E-005  0.3123143E+03  0.7546771E-02  0.1079242E+00
         21   -1    0    0  502  501  0.00000000000E+00  0.00000000000E+00  0.32292109248E+03  0.32292109248E+03  0.00000000000E+00 0. -1.
         21   -1    0    0  501  502 -0.00000000000E+00 -0.00000000000E+00 -0.30205598769E+03  0.30205598769E+03  0.00000000000E+00 0. -1.
         25    1    1    2    0    0  0.55892915292E+02  0.52816459502E+01  0.21861071795E+02  0.13876173905E+03  0.12500000000E+03 0.  0.
         25    1    1    2    0    0  0.33387927301E+02 -0.10102693638E+03 -0.17160640594E+03  0.23747621801E+03  0.12500000000E+03 0.  0.
         25    1    1    2    0    0 -0.89280842593E+02  0.95745290426E+02  0.17061043893E+03  0.24873912311E+03  0.12500000000E+03 0.  0.
</event>
<event>
 5    0  0.5670250E-005  0.2628208E+03  0.7546771E-02  0.1105460E+00
         21   -1    0    0  502  501  0.00000000000E+00  0.00000000000E+00  0.41956487652E+03  0.41956487652E+03  0.00000000000E+00 0. -1.
         21   -1    0    0  501  502 -0.00000000000E+00 -0.00000000000E+00 -0.16463427804E+03  0.16463427804E+03  0.00000000000E+00 0. -1.
         25    1    1    2    0    0 -0.83794706884E+02  0.21733783653E+02 -0.42572800250E+02  0.15789665473E+03  0.12500000000E+03 0.  0.
         25    1    1    2    0    0  0.52229803296E+02  0.55367985278E+02  0.96239722514E+02  0.17515892879E+03  0.12500000000E+03 0.  0.
         25    1    1    2    0    0  0.31564903588E+02 -0.77101768932E+02  0.20126367622E+03  0.25114357104E+03  0.12500000000E+03 0.  0.
</event>
<event>
 5    0  0.5670250E-005  0.5230146E+03  0.7546771E-02  0.1007940E+00
         21   -1    0    0  502  501  0.00000000000E+00  0.00000000000E+00  0.13046787111E+03  0.13046787111E+03  0.00000000000E+00 0.  1.
         21   -1    0    0  501  502 -0.00000000000E+00 -0.00000000000E+00 -0.20966410380E+04  0.20966410380E+04  0.00000000000E+00 0.  1.
         25    1    1    2    0    0  0.88916592231E+02  0.25836975073E+03 -0.39749120812E+03  0.49828239884E+03  0.12500000000E+03 0.  0.
         25    1    1    2    0    0 -0.15739819250E+03 -0.20287710913E+03 -0.19303791269E+03  0.34470559634E+03  0.12500000000E+03 0.  0.
         25    1    1    2    0    0  0.68481600273E+02 -0.55492641596E+02 -0.13756440460E+04  0.13841209139E+04  0.12500000000E+03 0.  0.
</event>
<event>
 5    0  0.5670250E-005  0.3960796E+03  0.7546771E-02  0.1045146E+00
         21   -1    0    0  502  501  0.00000000000E+00  0.00000000000E+00  0.32418448257E+03  0.32418448257E+03  0.00000000000E+00 0. -1.
         21   -1    0    0  501  502 -0.00000000000E+00 -0.00000000000E+00 -0.48391897861E+03  0.48391897861E+03  0.00000000000E+00 0. -1.
         25    1    1    2    0    0 -0.10751737200E+02  0.14409996670E+03 -0.87629377722E+02  0.21020063772E+03  0.12500000000E+03 0.  0.
         25    1    1    2    0    0 -0.15069741211E+03 -0.85394706339E+02  0.17203263167E+03  0.27426664443E+03  0.12500000000E+03 0.  0.
         25    1    1    2    0    0  0.16144914931E+03 -0.58705260363E+02 -0.24413774999E+03  0.32363617903E+03  0.12500000000E+03 0.  0.
</event>
<event>
 5    0  0.5670250E-005  0.2530039E+03  0.7546771E-02  0.1111421E+00
         21   -1    0    0  502  501  0.00000000000E+00  0.00000000000E+00  0.94071137558E+03  0.94071137558E+03  0.00000000000E+00 0.  1.
         21   -1    0    0  501  502 -0.00000000000E+00 -0.00000000000E+00 -0.68045259012E+02  0.68045259012E+02  0.00000000000E+00 0.  1.
         25    1    1    2    0    0 -0.83569602250E+02 -0.55921008578E+02  0.24419839009E+03  0.29217955326E+03  0.12500000000E+03 0.  0.
         25    1    1    2    0    0 -0.28360563156E+02  0.10719022501E+03  0.34236827016E+03  0.38096600674E+03  0.12500000000E+03 0.  0.
         25    1    1    2    0    0  0.11193016541E+03 -0.51269216436E+02  0.28609945632E+03  0.33561107459E+03  0.12500000000E+03 0.  0.
</event>
<event>
 5    0  0.5670250E-005  0.3133182E+03  0.7546771E-02  0.1078766E+00
         21   -1    0    0  502  501  0.00000000000E+00  0.00000000000E+00  0.81389815985E+03  0.81389815985E+03  0.00000000000E+00 0. -1.
         21   -1    0    0  501  502 -0.00000000000E+00 -0.00000000000E+00 -0.12061493037E+03  0.12061493037E+03  0.00000000000E+00 0. -1.
         25    1    1    2    0    0 -0.37115066924E+02  0.72502298784E+02  0.84889764817E+02  0.17165483883E+03  0.12500000000E+03 0.  0.
         25    1    1    2    0    0  0.11483109600E+03 -0.10051903688E+03  0.57697583535E+03  0.60976747368E+03  0.12500000000E+03 0.  0.
         25    1    1    2    0    0 -0.77716029072E+02  0.28016738100E+02  0.31417629317E+02  0.15309077771E+03  0.12500000000E+03 0.  0.
</event>
<event>
 5    0  0.5670250E-005  0.3440594E+03  0.7546771E-02  0.1065080E+00
         21   -1    0    0  502  501  0.00000000000E+00  0.00000000000E+00  0.16629185595E+03  0.16629185595E+03  0.00000000000E+00 0. -1.
         21   -1    0    0  501  502 -0.00000000000E+00 -0.00000000000E+00 -0.71186229689E+03  0.71186229689E+03  0.00000000000E+00 0. -1.
         25    1    1    2    0    0 -0.27799904902E+02 -0.13271134105E+03 -0.12928067998E+03  0.22521906885E+03  0.12500000000E+03 0.  0.
         25    1    1    2    0    0  0.14148689170E+03  0.23583923795E+03 -0.21634721038E+03  0.37157745104E+03  0.12500000000E+03 0.  0.
         25    1    1    2    0    0 -0.11368698680E+03 -0.10312789690E+03 -0.19994255058E+03  0.28135763295E+03  0.12500000000E+03 0.  0.
</event>
<event>
 5    0  0.5670250E-005  0.3135063E+03  0.7546771E-02  0.1078677E+00
         21   -1    0    0  502  501  0.00000000000E+00  0.00000000000E+00  0.37899006242E+03  0.37899006242E+03  0.00000000000E+00 0. -1.
         21   -1    0    0  501  502 -0.00000000000E+00 -0.00000000000E+00 -0.25933710377E+03  0.25933710377E+03  0.00000000000E+00 0. -1.
         25    1    1    2    0    0  0.15270946457E+03  0.21113531308E+02  0.84088201755E+02  0.21554996508E+03  0.12500000000E+03 0.  0.
         25    1    1    2    0    0 -0.34415349558E+02 -0.14750306086E+03 -0.31661650660E+02  0.19891965556E+03  0.12500000000E+03 0.  0.
         25    1    1    2    0    0 -0.11829411501E+03  0.12638952955E+03  0.67226407548E+02  0.22385754554E+03  0.12500000000E+03 0.  0.
</event>
<event>
 5    0  0.5670250E-005  0.3115925E+03  0.7546771E-02  0.1079585E+00
         21   -1    0    0  502  501  0.00000000000E+00  0.00000000000E+00  0.34684629821E+02  0.34684629821E+02  0.00000000000E+00 0. -1.
         21   -1    0    0  501  502 -0.00000000000E+00 -0.00000000000E+00 -0.27992195347E+04  0.27992195347E+04  0.00000000000E+00 0. -1.
         25    1    1    2    0    0 -0.50407160597E+02 -0.21495573638E+03 -0.11077642603E+04  0.11364477581E+04  0.12500000000E+03 0.  0.
         25    1    1    2    0    0  0.98891319623E+01  0.98637421356E+01 -0.57915885472E+03  0.59265931810E+03  0.12500000000E+03 0.  0.
         25    1    1    2    0    0  0.40518028634E+02  0.20509199425E+03 -0.10776117898E+04  0.11047970883E+04  0.12500000000E+03 0.  0.
</event>
<event>
 5    0  0.5670250E-005  0.3884839E+03  0.7546771E-02  0.1047842E+00
         21   -1    0    0  502  501  0.00000000000E+00  0.00000000000E+00  0.86161844678E+02  0.86161844678E+02  0.00000000000E+00 0. -1.
         21   -1    0    0  501  502 -0.00000000000E+00 -0.00000000000E+00 -0.17515846747E+04  0.17515846747E+04  0.00000000000E+00 0.  1.
         25    1    1    2    0    0  0.84710413778E+02  0.27850920568E+03 -0.77920259565E+03  0.84114500350E+03  0.12500000000E+03 0.  0.
         25    1    1    2    0    0 -0.49946459428E+02 -0.28316648762E+03 -0.51061340876E+03  0.59919025504E+03  0.12500000000E+03 0.  0.
         25    1    1    2    0    0 -0.34763954350E+02  0.46572819381E+01 -0.37560682564E+03  0.39741126086E+03  0.12500000000E+03 0.  0.
</event>
<event>
 5    0  0.5670250E-005  0.2681885E+03  0.7546771E-02  0.1102321E+00
         21   -1    0    0  502  501  0.00000000000E+00  0.00000000000E+00  0.17483162243E+03  0.17483162243E+03  0.00000000000E+00 0. -1.
         21   -1    0    0  501  502 -0.00000000000E+00 -0.00000000000E+00 -0.41139631393E+03  0.41139631393E+03  0.00000000000E+00 0. -1.
         25    1    1    2    0    0  0.62729909102E+01 -0.85006425268E+02  0.36691452904E+02  0.15568142300E+03  0.12500000000E+03 0.  0.
         25    1    1    2    0    0 -0.65412574923E+02  0.73159511569E+01 -0.22333063432E+03  0.26426104580E+03  0.12500000000E+03 0.  0.
         25    1    1    2    0    0  0.59139584013E+02  0.77690474111E+02 -0.49925510088E+02  0.16628546756E+03  0.12500000000E+03 0.  0.
</event>
<event>
 5    0  0.5670250E-005  0.2424341E+03  0.7546771E-02  0.1118182E+00
         21   -1    0    0  502  501  0.00000000000E+00  0.00000000000E+00  0.10402913566E+04  0.10402913566E+04  0.00000000000E+00 0.  1.
         21   -1    0    0  501  502 -0.00000000000E+00 -0.00000000000E+00 -0.56497937588E+02  0.56497937588E+02  0.00000000000E+00 0.  1.
         25    1    1    2    0    0  0.73813464962E+02 -0.55262932699E+01  0.20024008660E+03  0.24738645842E+03  0.12500000000E+03 0.  0.
         25    1    1    2    0    0 -0.17142771633E+01  0.18142476972E+02  0.13505691235E+03  0.18492554662E+03  0.12500000000E+03 0.  0.
         25    1    1    2    0    0 -0.72099187798E+02 -0.12616183702E+02  0.64849642010E+03  0.66447728920E+03  0.12500000000E+03 0.  0.
</event>
<event>
 5    0  0.5670250E-005  0.2835036E+03  0.7546771E-02  0.1093791E+00
         21   -1    0    0  502  501  0.00000000000E+00  0.00000000000E+00  0.12232238365E+04  0.12232238365E+04  0.00000000000E+00 0.  1.
         21   -1    0    0  501  502 -0.00000000000E+00 -0.00000000000E+00 -0.65706924125E+02  0.65706924125E+02  0.00000000000E+00 0.  1.
         25    1    1    2    0    0  0.26320786278E+02  0.58025568865E+02  0.10378624908E+03  0.17451743732E+03  0.12500000000E+03 0.  0.
         25    1    1    2    0    0 -0.67959907691E+02  0.41903107902E+02  0.22598742004E+03  0.27031413859E+03  0.12500000000E+03 0.  0.
         25    1    1    2    0    0  0.41639121413E+02 -0.99928676767E+02  0.82774324321E+03  0.84409918466E+03  0.12500000000E+03 0.  0.
</event>
<event>
 5    0  0.5670250E-005  0.2702158E+03  0.7546771E-02  0.1101156E+00
         21   -1    0    0  502  501  0.00000000000E+00  0.00000000000E+00  0.39860050889E+02  0.39860050889E+02  0.00000000000E+00 0. -1.
         21   -1    0    0  501  502 -0.00000000000E+00 -0.00000000000E+00 -0.18318232496E+04  0.18318232496E+04  0.00000000000E+00 0. -1.
         25    1    1    2    0    0 -0.12519496319E+03  0.84023513876E+02 -0.60588627411E+03  0.63675498180E+03  0.12500000000E+03 0.  0.
         25    1    1    2    0    0  0.11982308139E+03  0.21720173412E+02 -0.50049916770E+03  0.53005070855E+03  0.12500000000E+03 0.  0.
         25    1    1    2    0    0  0.53718818006E+01 -0.10574368729E+03 -0.68557775686E+03  0.70487761010E+03  0.12500000000E+03 0.  0.
</event>
<event>
 5    0  0.5670250E-005  0.2722842E+03  0.7546771E-02  0.1099979E+00
         21   -1    0    0  502  501  0.00000000000E+00  0.00000000000E+00  0.36441990245E+03  0.36441990245E+03  0.00000000000E+00 0. -1.
         21   -1    0    0  501  502 -0.00000000000E+00 -0.00000000000E+00 -0.20344301684E+03  0.20344301684E+03  0.00000000000E+00 0. -1.
         25    1    1    2    0    0  0.26434348358E+02  0.35063019471E+02  0.12538206398E+02  0.13308041451E+03  0.12500000000E+03 0.  0.
         25    1    1    2    0    0  0.14088004967E+03 -0.43172005988E+01  0.24474226413E+02  0.18997319383E+03  0.12500000000E+03 0.  0.
         25    1    1    2    0    0 -0.16731439803E+03 -0.30745818872E+02  0.12396445280E+03  0.24480931094E+03  0.12500000000E+03 0.  0.
</event>
<event>
 5    0  0.5670250E-005  0.5544007E+03  0.7546771E-02  0.1000480E+00
         21   -1    0    0  502  501  0.00000000000E+00  0.00000000000E+00  0.22391224834E+03  0.22391224834E+03  0.00000000000E+00 0. -1.
         21   -1    0    0  501  502 -0.00000000000E+00 -0.00000000000E+00 -0.13726811207E+04  0.13726811207E+04  0.00000000000E+00 0. -1.
         25    1    1    2    0    0  0.33143525904E+03  0.10563540887E+03 -0.17968509576E+03  0.41099866688E+03  0.12500000000E+03 0.  0.
         25    1    1    2    0    0  0.44971480331E+01 -0.25986942664E+03 -0.34634385310E+03  0.45070101822E+03  0.12500000000E+03 0.  0.
         25    1    1    2    0    0 -0.33593240707E+03  0.15423401777E+03 -0.62273992346E+03  0.73489368390E+03  0.12500000000E+03 0.  0.
</event>
<event>
 5    0  0.5670250E-005  0.2785086E+03  0.7546771E-02  0.1096506E+00
         21   -1    0    0  502  501  0.00000000000E+00  0.00000000000E+00  0.14984767497E+04  0.14984767497E+04  0.00000000000E+00 0.  1.
         21   -1    0    0  501  502 -0.00000000000E+00 -0.00000000000E+00 -0.51763916011E+02  0.51763916011E+02  0.00000000000E+00 0.  1.
         25    1    1    2    0    0  0.55601497910E+02  0.40015778920E+02  0.18798977513E+03  0.23591936056E+03  0.12500000000E+03 0.  0.
         25    1    1    2    0    0  0.66788243997E+02  0.10442289949E+02  0.23572562765E+03  0.27524767481E+03  0.12500000000E+03 0.  0.
         25    1    1    2    0    0 -0.12238974191E+03 -0.50458068869E+02  0.10229974309E+04  0.10390736304E+04  0.12500000000E+03 0.  0.
</event>
<event>
 5    0  0.5670250E-005  0.4608848E+03  0.7546771E-02  0.1024525E+00
         21   -1    0    0  502  501  0.00000000000E+00  0.00000000000E+00  0.87101975330E+03  0.87101975330E+03  0.00000000000E+00 0.  1.
         21   -1    0    0  501  502 -0.00000000000E+00 -0.00000000000E+00 -0.24386909996E+03  0.24386909996E+03  0.00000000000E+00 0.  1.
         25    1    1    2    0    0  0.93391678938E+02  0.54270546614E+02 -0.59327471661E+01  0.16531030039E+03  0.12500000000E+03 0.  0.
         25    1    1    2    0    0  0.19181233292E+03  0.88680695544E+02  0.54203518686E+03  0.59504905732E+03  0.12500000000E+03 0.  0.
         25    1    1    2    0    0 -0.28520401186E+03 -0.14295124216E+03  0.91048213649E+02  0.35452949556E+03  0.12500000000E+03 0.  0.
</event>
<event>
 5    0  0.5670250E-005  0.2894627E+03  0.7546771E-02  0.1090630E+00
         21   -1    0    0  502  501  0.00000000000E+00  0.00000000000E+00  0.20680924592E+03  0.20680924592E+03  0.00000000000E+00 0. -1.
         21   -1    0    0  501  502 -0.00000000000E+00 -0.00000000000E+00 -0.40514955925E+03  0.40514955925E+03  0.00000000000E+00 0. -1.
         25    1    1    2    0    0  0.50444956633E+02 -0.97819051073E+02 -0.14102424534E+03  0.21823404449E+03  0.12500000000E+03 0.  0.
         25    1    1    2    0    0  0.42755684646E+02  0.10427890769E+03 -0.13836267681E+03  0.21787925439E+03  0.12500000000E+03 0.  0.
         25    1    1    2    0    0 -0.93200641280E+02 -0.64598566187E+01  0.81046608815E+02  0.17584550629E+03  0.12500000000E+03 0.  0.
</event>
<event>
 5    0  0.5670250E-005  0.4526693E+03  0.7546771E-02  0.1026929E+00
         21   -1    0    0  502  501  0.00000000000E+00  0.00000000000E+00  0.24744385649E+03  0.24744385649E+03  0.00000000000E+00 0.  1.
         21   -1    0    0  501  502 -0.00000000000E+00 -0.00000000000E+00 -0.82810484738E+03  0.82810484738E+03  0.00000000000E+00 0.  1.
         25    1    1    2    0    0  0.15213916194E+03  0.39758068571E+02 -0.14415737127E+03  0.24725164570E+03  0.12500000000E+03 0.  0.
         25    1    1    2    0    0 -0.31673119056E+03  0.16721690177E+03 -0.36664613536E+03  0.52757419183E+03  0.12500000000E+03 0.  0.
         25    1    1    2    0    0  0.16459202862E+03 -0.20697497034E+03 -0.69857484253E+02  0.30072286634E+03  0.12500000000E+03 0.  0.
</event>
<event>
 5    0  0.5670250E-005  0.3277477E+03  0.7546771E-02  0.1072138E+00
         21   -1    0    0  502  501  0.00000000000E+00  0.00000000000E+00  0.33434080928E+03  0.33434080928E+03  0.00000000000E+00 0. -1.
         21   -1    0    0  501  502 -0.00000000000E+00 -0.00000000000E+00 -0.32128459564E+03  0.32128459564E+03  0.00000000000E+00 0. -1.
         25    1    1    2    0    0 -0.20171838175E+03  0.76188219125E+02 -0.72706234730E+02  0.25962693782E+03  0.12500000000E+03 0.  0.
         25    1    1    2    0    0  0.19587780406E+03 -0.20363560008E+02 -0.20278494612E+01  0.23326358668E+03  0.12500000000E+03 0.  0.
         25    1    1    2    0    0  0.58405776937E+01 -0.55824659117E+02  0.87790297825E+02  0.16273488042E+03  0.12500000000E+03 0.  0.
</event>
<event>
 5    0  0.5670250E-005  0.3577225E+03  0.7546771E-02  0.1059489E+00
         21   -1    0    0  502  501  0.00000000000E+00  0.00000000000E+00  0.27321351939E+03  0.27321351939E+03  0.00000000000E+00 0.  1.
         21   -1    0    0  501  502 -0.00000000000E+00 -0.00000000000E+00 -0.46837133566E+03  0.46837133566E+03  0.00000000000E+00 0.  1.
         25    1    1    2    0    0 -0.47551140514E+02 -0.62749346293E+01  0.57813596120E+02  0.14583517294E+03  0.12500000000E+03 0.  0.
         25    1    1    2    0    0 -0.96504933905E+02  0.75426707234E+02  0.90359522625E+02  0.19695744150E+03  0.12500000000E+03 0.  0.
         25    1    1    2    0    0  0.14405607442E+03 -0.69151772605E+02 -0.34333093502E+03  0.39879224062E+03  0.12500000000E+03 0.  0.
</event>
<event>
 5    0  0.5670250E-005  0.2583671E+03  0.7546771E-02  0.1108128E+00
         21   -1    0    0  502  501  0.00000000000E+00  0.00000000000E+00  0.33289551607E+03  0.33289551607E+03  0.00000000000E+00 0. -1.
         21   -1    0    0  501  502 -0.00000000000E+00 -0.00000000000E+00 -0.20052399695E+03  0.20052399695E+03  0.00000000000E+00 0. -1.
         25    1    1    2    0    0  0.56708708021E+02 -0.55596604621E+02  0.40350502816E+02  0.15349274604E+03  0.12500000000E+03 0.  0.
         25    1    1    2    0    0  0.23481346487E+02 -0.90523259378E+02  0.67737997165E+02  0.17017423536E+03  0.12500000000E+03 0.  0.
         25    1    1    2    0    0 -0.80190054508E+02  0.14611986400E+03  0.24283019139E+02  0.20975253161E+03  0.12500000000E+03 0.  0.
</event>
<event>
 5    0  0.5670250E-005  0.2429690E+03  0.7546771E-02  0.1117831E+00
         21   -1    0    0  502  501  0.00000000000E+00  0.00000000000E+00  0.30379306718E+03  0.30379306718E+03  0.00000000000E+00 0. -1.
         21   -1    0    0  501  502 -0.00000000000E+00 -0.00000000000E+00 -0.19432287223E+03  0.19432287223E+03  0.00000000000E+00 0. -1.
         25    1    1    2    0    0 -0.14374369554E+02 -0.52444085052E+01 -0.43862871218E+01  0.12600938789E+03  0.12500000000E+03 0.  0.
         25    1    1    2    0    0 -0.90796823734E+02  0.78024707222E+02  0.77361574406E+02  0.18958304600E+03  0.12500000000E+03 0.  0.
         25    1    1    2    0    0  0.10517119329E+03 -0.72780298717E+02  0.36494907666E+02  0.18252350551E+03  0.12500000000E+03 0.  0.
</event>
<event>
 5    0  0.5670250E-005  0.4467485E+03  0.7546771E-02  0.1028696E+00
         21   -1    0    0  502  501  0.00000000000E+00  0.00000000000E+00  0.41674603171E+03  0.41674603171E+03  0.00000000000E+00 0. -1.
         21   -1    0    0  501  502 -0.00000000000E+00 -0.00000000000E+00 -0.47891090366E+03  0.47891090366E+03  0.00000000000E+00 0. -1.
         25    1    1    2    0    0  0.23172302408E+03 -0.85285883793E+02 -0.21677906034E+03  0.35155000052E+03  0.12500000000E+03 0.  0.
         25    1    1    2    0    0 -0.14440412254E+03  0.23796019274E+03  0.75930347369E+02  0.31443285704E+03  0.12500000000E+03 0.  0.
         25    1    1    2    0    0 -0.87318901547E+02 -0.15267430895E+03  0.78683841017E+02  0.22967407781E+03  0.12500000000E+03 0.  0.
</event>
<event>
 5    0  0.5670250E-005  0.3039531E+03  0.7546771E-02  0.1083281E+00
         21   -1    0    0  502  501  0.00000000000E+00  0.00000000000E+00  0.11944701623E+04  0.11944701623E+04  0.00000000000E+00 0. -1.
         21   -1    0    0  501  502 -0.00000000000E+00 -0.00000000000E+00 -0.77345975250E+02  0.77345975250E+02  0.00000000000E+00 0. -1.
         25    1    1    2    0    0  0.95284122818E+02  0.84363920338E+02  0.38123286880E+03  0.42090359392E+03  0.12500000000E+03 0.  0.
         25    1    1    2    0    0 -0.15090515155E+03 -0.17131036467E+03  0.51366007071E+03  0.57583962529E+03  0.12500000000E+03 0.  0.
         25    1    1    2    0    0  0.55621028735E+02  0.86946444337E+02  0.22223124749E+03  0.27507291830E+03  0.12500000000E+03 0.  0.
</event>
<event>
 5    0  0.5670250E-005  0.5261355E+03  0.7546771E-02  0.1007174E+00
         21   -1    0    0  502  501  0.00000000000E+00  0.00000000000E+00  0.10609785488E+04  0.10609785488E+04  0.00000000000E+00 0.  1.
         21   -1    0    0  501  502 -0.00000000000E+00 -0.00000000000E+00 -0.26090871191E+03  0.26090871191E+03  0.00000000000E+00 0.  1.
         25    1    1    2    0    0 -0.41045952126E+03 -0.16601734132E+03  0.22862878235E+03  0.51374594532E+03  0.12500000000E+03 0.  0.
         25    1    1    2    0    0  0.14460901559E+02  0.38409931936E+02  0.18296932368E+03  0.22536018716E+03  0.12500000000E+03 0.  0.
         25    1    1    2    0    0  0.39599861970E+03  0.12760740938E+03  0.38847173081E+03  0.58278112819E+03  0.12500000000E+03 0.  0.
</event>
<event>
 5    0  0.5670250E-005  0.4614490E+03  0.7546771E-02  0.1024362E+00
         21   -1    0    0  502  501  0.00000000000E+00  0.00000000000E+00  0.34917852428E+03  0.34917852428E+03  0.00000000000E+00 0.  1.
         21   -1    0    0  501  502 -0.00000000000E+00 -0.00000000000E+00 -0.60981757596E+03  0.60981757596E+03  0.00000000000E+00 0.  1.
         25    1    1    2    0    0  0.42524142474E+02  0.78090240939E+02  0.16937421723E+03  0.22851480014E+03  0.12500000000E+03 0.  0.
         25    1    1    2    0    0  0.80965635977E+02 -0.13328954145E+03 -0.49606662608E+03  0.53481644849E+03  0.12500000000E+03 0.  0.
         25    1    1    2    0    0 -0.12348977845E+03  0.55199300508E+02  0.66053357171E+02  0.19566485160E+03  0.12500000000E+03 0.  0.
</event>
<event>
 5    0  0.5670250E-005  0.3552528E+03  0.7546771E-02  0.1060479E+00
         21   -1    0    0  502  501  0.00000000000E+00  0.00000000000E+00  0.25927787839E+03  0.25927787839E+03  0.00000000000E+00 0.  1.
         21   -1    0    0  501  502 -0.00000000000E+00 -0.00000000000E+00 -0.48675403212E+03  0.48675403212E+03  0.00000000000E+00 0.  1.
         25    1    1    2    0    0 -0.46784194278E+02  0.16539658364E+03  0.65622233067E+02  0.22243216536E+03  0.12500000000E+03 0.  0.
         25    1    1    2    0    0 -0.12295147623E+03 -0.19168229587E+02 -0.13653753492E+03  0.22305152986E+03  0.12500000000E+03 0.  0.
         25    1    1    2    0    0  0.16973567051E+03 -0.14622835406E+03 -0.15656085188E+03  0.30054821529E+03  0.12500000000E+03 0.  0.
</event>
<event>
 5    0  0.5670250E-005  0.3669172E+03  0.7546771E-02  0.1055878E+00
         21   -1    0    0  502  501  0.00000000000E+00  0.00000000000E+00  0.41538821471E+03  0.41538821471E+03  0.00000000000E+00 0. -1.
         21   -1    0    0  501  502 -0.00000000000E+00 -0.00000000000E+00 -0.32410226563E+03  0.32410226563E+03  0.00000000000E+00 0. -1.
         25    1    1    2    0    0  0.58136606639E+02  0.86569908607E+02 -0.10819345330E+03  0.19546108933E+03  0.12500000000E+03 0.  0.
         25    1    1    2    0    0  0.13239418530E+03 -0.69253607506E+02  0.24294310301E+03  0.31140108181E+03  0.12500000000E+03 0.  0.
         25    1    1    2    0    0 -0.19053079194E+03 -0.17316301100E+02 -0.43463700635E+02  0.23262830918E+03  0.12500000000E+03 0.  0.
</event>
<event>
 5    0  0.5670250E-005  0.2854218E+03  0.7546771E-02  0.1092764E+00
         21   -1    0    0  502  501  0.00000000000E+00  0.00000000000E+00  0.12887987093E+04  0.12887987093E+04  0.00000000000E+00 0. -1.
         21   -1    0    0  501  502 -0.00000000000E+00 -0.00000000000E+00 -0.63210489965E+02  0.63210489965E+02  0.00000000000E+00 0. -1.
         25    1    1    2    0    0 -0.40779193204E+02 -0.54361899392E+02  0.56085627353E+03  0.57862156740E+03  0.12500000000E+03 0.  0.
         25    1    1    2    0    0 -0.50100927017E+02 -0.26054311952E+02  0.54499962332E+03  0.56199512407E+03  0.12500000000E+03 0.  0.
         25    1    1    2    0    0  0.90880120222E+02  0.80416211344E+02  0.11973232245E+03  0.21139250776E+03  0.12500000000E+03 0.  0.
</event>
<event>
 5    0  0.5670250E-005  0.2457010E+03  0.7546771E-02  0.1116052E+00
         21   -1    0    0  502  501  0.00000000000E+00  0.00000000000E+00  0.30743739596E+03  0.30743739596E+03  0.00000000000E+00 0. -1.
         21   -1    0    0  501  502 -0.00000000000E+00 -0.00000000000E+00 -0.19636184188E+03  0.19636184188E+03  0.00000000000E+00 0. -1.
         25    1    1    2    0    0  0.10940923977E+03 -0.19051473125E+02  0.67991796953E+02  0.18050270033E+03  0.12500000000E+03 0.  0.
         25    1    1    2    0    0 -0.92100554906E+02  0.45493463148E+02 -0.44048161353E+02  0.16768246158E+03  0.12500000000E+03 0.  0.
         25    1    1    2    0    0 -0.17308684862E+02 -0.26441990023E+02  0.87131918476E+02  0.15561407592E+03  0.12500000000E+03 0.  0.
</event>
<event>
 5    0  0.5670250E-005  0.4599742E+03  0.7546771E-02  0.1024789E+00
         21   -1    0    0  502  501  0.00000000000E+00  0.00000000000E+00  0.19579272382E+03  0.19579272382E+03  0.00000000000E+00 0. -1.
         21   -1    0    0  501  502 -0.00000000000E+00 -0.00000000000E+00 -0.10806133945E+04  0.10806133945E+04  0.00000000000E+00 0. -1.
         25    1    1    2    0    0 -0.78745717449E+02 -0.73140876305E+02 -0.26311679773E+03  0.31049303543E+03  0.12500000000E+03 0.  0.
         25    1    1    2    0    0 -0.43450979955E+01  0.88210646528E+02  0.12902320765E+03  0.20017988448E+03  0.12500000000E+03 0.  0.
         25    1    1    2    0    0  0.83090815444E+02 -0.15069770223E+02 -0.75072708059E+03  0.76573319839E+03  0.12500000000E+03 0.  0.
</event>
<event>
 5    0  0.5670250E-005  0.2638116E+03  0.7546771E-02  0.1104875E+00
         21   -1    0    0  502  501  0.00000000000E+00  0.00000000000E+00  0.29851938744E+03  0.29851938744E+03  0.00000000000E+00 0. -1.
         21   -1    0    0  501  502 -0.00000000000E+00 -0.00000000000E+00 -0.23313915053E+03  0.23313915053E+03  0.00000000000E+00 0. -1.
         25    1    1    2    0    0  0.55426856170E+02 -0.96966270804E+02 -0.92393771836E+01  0.16788376976E+03  0.12500000000E+03 0.  0.
         25    1    1    2    0    0 -0.16775613575E+01  0.12607820274E+02 -0.73588956298E+02  0.14560942907E+03  0.12500000000E+03 0.  0.
         25    1    1    2    0    0 -0.53749294812E+02  0.84358450530E+02  0.14820857039E+03  0.21816533915E+03  0.12500000000E+03 0.  0.
</event>
<event>
 5    0  0.5670250E-005  0.2461379E+03  0.7546771E-02  0.1115770E+00
         21   -1    0    0  502  501  0.00000000000E+00  0.00000000000E+00  0.17812242054E+03  0.17812242054E+03  0.00000000000E+00 0.  1.
         21   -1    0    0  501  502 -0.00000000000E+00 -0.00000000000E+00 -0.34012480377E+03  0.34012480377E+03  0.00000000000E+00 0.  1.
         25    1    1    2    0    0  0.34178920130E+02 -0.22416537486E+02 -0.34474250446E+02  0.13595651392E+03  0.12500000000E+03 0.  0.
         25    1    1    2    0    0  0.42996964613E+02  0.99618580951E+02 -0.13871044180E+03  0.21595876296E+03  0.12500000000E+03 0.  0.
         25    1    1    2    0    0 -0.77175884743E+02 -0.77202043465E+02  0.11182309005E+02  0.16633194743E+03  0.12500000000E+03 0.  0.
</event>
<event>
 5    0  0.5670250E-005  0.2629128E+03  0.7546771E-02  0.1105406E+00
         21   -1    0    0  502  501  0.00000000000E+00  0.00000000000E+00  0.37162615569E+03  0.37162615569E+03  0.00000000000E+00 0.  1.
         21   -1    0    0  501  502 -0.00000000000E+00 -0.00000000000E+00 -0.18600187020E+03  0.18600187020E+03  0.00000000000E+00 0.  1.
         25    1    1    2    0    0 -0.37120900799E+02  0.88121002851E+02  0.10492577723E+02  0.15772877546E+03  0.12500000000E+03 0.  0.
         25    1    1    2    0    0  0.38481704237E+02 -0.72145432392E+01  0.20950022889E+03  0.24707941456E+03  0.12500000000E+03 0.  0.
         25    1    1    2    0    0 -0.13608034373E+01 -0.80906459612E+02 -0.34368521121E+02  0.15281983588E+03  0.12500000000E+03 0.  0.
</event>
<event>
 5    0  0.5670250E-005  0.2728681E+03  0.7546771E-02  0.1099649E+00
         21   -1    0    0  502  501  0.00000000000E+00  0.00000000000E+00  0.32916595419E+03  0.32916595419E+03  0.00000000000E+00 0.  1.
         21   -1    0    0  501  502 -0.00000000000E+00 -0.00000000000E+00 -0.22619889741E+03  0.22619889741E+03  0.00000000000E+00 0.  1.
         25    1    1    2    0    0  0.33540193940E+02 -0.11554327907E+03  0.12338496239E+03  0.21289444072E+03  0.12500000000E+03 0.  0.
         25    1    1    2    0    0 -0.94955638283E+02 -0.16511176248E+01  0.12560592834E+02  0.15748672301E+03  0.12500000000E+03 0.  0.
         25    1    1    2    0    0  0.61415444343E+02  0.11719439669E+03 -0.32978498439E+02  0.18498368787E+03  0.12500000000E+03 0.  0.
</event>
<event>
 5    0  0.5670250E-005  0.2902487E+03  0.7546771E-02  0.1090219E+00
         21   -1    0    0  502  501  0.00000000000E+00  0.00000000000E+00  0.10128061927E+03  0.10128061927E+03  0.00000000000E+00 0.  1.
         21   -1    0    0  501  502 -0.00000000000E+00 -0.00000000000E+00 -0.83179106596E+03  0.83179106596E+03  0.00000000000E+00 0.  1.
         25    1    1    2    0    0 -0.80251281168E+02  0.14655875122E+03 -0.44626600980E+03  0.49264397610E+03  0.12500000000E+03 0.  0.
         25    1    1    2    0    0  0.10414421677E+03 -0.41404724349E+02 -0.17476741829E+03  0.24234070971E+03  0.12500000000E+03 0.  0.
         25    1    1    2    0    0 -0.23892935598E+02 -0.10515402687E+03 -0.10947701861E+03  0.19808699942E+03  0.12500000000E+03 0.  0.
</event>
<event>
 5    0  0.5670250E-005  0.2512412E+03  0.7546771E-02  0.1112523E+00
         21   -1    0    0  502  501  0.00000000000E+00  0.00000000000E+00  0.93588688482E+02  0.93588688482E+02  0.00000000000E+00 0. -1.
         21   -1    0    0  501  502 -0.00000000000E+00 -0.00000000000E+00 -0.67446339420E+03  0.67446339420E+03  0.00000000000E+00 0. -1.
         25    1    1    2    0    0  0.12485328110E+03  0.13314176265E+02 -0.11060342224E+03  0.20886293616E+03  0.12500000000E+03 0.  0.
         25    1    1    2    0    0 -0.50883346660E+02  0.43510963130E+02 -0.27377175764E+03  0.30831525126E+03  0.12500000000E+03 0.  0.
         25    1    1    2    0    0 -0.73969934436E+02 -0.56825139395E+02 -0.19649952584E+03  0.25087389526E+03  0.12500000000E+03 0.  0.
</event>
<event>
 5    0  0.5670250E-005  0.3428571E+03  0.7546771E-02  0.1065586E+00
         21   -1    0    0  502  501  0.00000000000E+00  0.00000000000E+00  0.25329999683E+03  0.25329999683E+03  0.00000000000E+00 0. -1.
         21   -1    0    0  501  502 -0.00000000000E+00 -0.00000000000E+00 -0.46407823845E+03  0.46407823845E+03  0.00000000000E+00 0. -1.
         25    1    1    2    0    0 -0.25775634997E+03  0.66016620060E+02 -0.13760669511E+03  0.32458763472E+03  0.12500000000E+03 0.  0.
         25    1    1    2    0    0  0.15830901833E+03  0.92759404768E+01 -0.77142474250E+02  0.21615677109E+03  0.12500000000E+03 0.  0.
         25    1    1    2    0    0  0.99447331642E+02 -0.75292560537E+02  0.39709277412E+01  0.17663382946E+03  0.12500000000E+03 0.  0.
</event>
<event>
 5    0  0.6588932E-005  0.2911855E+03  0.7546771E-02  0.1089732E+00
         21   -1    0    0  502  501  0.00000000000E+00  0.00000000000E+00  0.22208679082E+03  0.22208679082E+03  0.00000000000E+00 0.  1.
         21   -1    0    0  501  502 -0.00000000000E+00 -0.00000000000E+00 -0.38178323395E+03  0.38178323395E+03  0.00000000000E+00 0.  1.
         25    1    1    2    0    0 -0.52637522086E+02 -0.13894703359E+03 -0.30512361950E+02  0.19655276927E+03  0.12500000000E+03 0.  0.
         25    1    1    2    0    0  0.89389119106E+02  0.14115508334E+03  0.19546896969E+02  0.20957636638E+03  0.12500000000E+03 0.  0.
         25    1    1    2    0    0 -0.36751597020E+02 -0.22080497472E+01 -0.14873097816E+03  0.19774088912E+03  0.12500000000E+03 0.  0.
</event>
<event>
 5    0  0.5670250E-005  0.2349787E+03  0.7546771E-02  0.1123184E+00
         21   -1    0    0  502  501  0.00000000000E+00  0.00000000000E+00  0.53242133680E+02  0.53242133680E+02  0.00000000000E+00 0. -1.
         21   -1    0    0  501  502 -0.00000000000E+00 -0.00000000000E+00 -0.10370542176E+04  0.10370542176E+04  0.00000000000E+00 0. -1.
         25    1    1    2    0    0 -0.81928194611E+02 -0.78039614553E+01 -0.17779950277E+03  0.23240222475E+03  0.12500000000E+03 0.  0.
         25    1    1    2    0    0 -0.11921656302E+02 -0.20106635900E+02 -0.26279708772E+03  0.29194813240E+03  0.12500000000E+03 0.  0.
         25    1    1    2    0    0  0.93849850914E+02  0.27910597356E+02 -0.54321549340E+03  0.56594599410E+03  0.12500000000E+03 0.  0.
</event>
<event>
 5    0  0.6235517E-005  0.2730198E+03  0.7546771E-02  0.1099564E+00
         21   -1    0    0  502  501  0.00000000000E+00  0.00000000000E+00  0.12471643647E+03  0.12471643647E+03  0.00000000000E+00 0. -1.
         21   -1    0    0  501  502 -0.00000000000E+00 -0.00000000000E+00 -0.59767447667E+03  0.59767447667E+03  0.00000000000E+00 0. -1.
         25    1    1    2    0    0  0.78198122894E+02 -0.29264303331E+02 -0.60188114995E+02  0.16192268235E+03  0.12500000000E+03 0.  0.
         25    1    1    2    0    0  0.89977653846E+02 -0.36359354838E+02 -0.15014599088E+03  0.21814398789E+03  0.12500000000E+03 0.  0.
         25    1    1    2    0    0 -0.16817577674E+03  0.65623658169E+02 -0.26262393432E+03  0.34232424289E+03  0.12500000000E+03 0.  0.
</event>
<event>
 5    0  0.5670250E-005  0.3121234E+03  0.7546771E-02  0.1079333E+00
         21   -1    0    0  502  501  0.00000000000E+00  0.00000000000E+00  0.45961161936E+03  0.45961161936E+03  0.00000000000E+00 0.  1.
         21   -1    0    0  501  502 -0.00000000000E+00 -0.00000000000E+00 -0.21196373663E+03  0.21196373663E+03  0.00000000000E+00 0.  1.
         25    1    1    2    0    0  0.12983522145E+03 -0.27829014085E+02  0.27221399151E+03  0.32765392707E+03  0.12500000000E+03 0.  0.
         25    1    1    2    0    0 -0.94253882175E+02 -0.42495631734E+02 -0.86331781221E+02  0.18376030439E+03  0.12500000000E+03 0.  0.
         25    1    1    2    0    0 -0.35581339273E+02  0.70324645818E+02  0.61765672442E+02  0.16016112452E+03  0.12500000000E+03 0.  0.
</event>
<event>
 5    0  0.5670250E-005  0.3538148E+03  0.7546771E-02  0.1061060E+00
         21   -1    0    0  502  501  0.00000000000E+00  0.00000000000E+00  0.86787681596E+03  0.86787681596E+03  0.00000000000E+00 0. -1.
         21   -1    0    0  501  502 -0.00000000000E+00 -0.00000000000E+00 -0.14424270456E+03  0.14424270456E+03  0.00000000000E+00 0. -1.
         25    1    1    2    0    0 -0.15249199518E+03 -0.35334752181E+02  0.12615678799E+03  0.23673379240E+03  0.12500000000E+03 0.  0.
         25    1    1    2    0    0  0.13091087061E+03 -0.17206685217E+03  0.27405876799E+03  0.37078007764E+03  0.12500000000E+03 0.  0.
         25    1    1    2    0    0  0.21581124567E+02  0.20740160435E+03  0.32341855542E+03  0.40460565050E+03  0.12500000000E+03 0.  0.
</event>
<event>
 5    0  0.5670250E-005  0.4870055E+03  0.7546771E-02  0.1017227E+00
         21   -1    0    0  502  501  0.00000000000E+00  0.00000000000E+00  0.51738985063E+03  0.51738985063E+03  0.00000000000E+00 0. -1.
         21   -1    0    0  501  502 -0.00000000000E+00 -0.00000000000E+00 -0.45840556794E+03  0.45840556794E+03  0.00000000000E+00 0. -1.
         25    1    1    2    0    0 -0.24709771761E+03 -0.35104611181E+02  0.13639659737E+03  0.31067450418E+03  0.12500000000E+03 0.  0.
         25    1    1    2    0    0  0.28874074035E+03  0.12712631894E+03 -0.25584332919E+03  0.42498602942E+03  0.12500000000E+03 0.  0.
         25    1    1    2    0    0 -0.41643022747E+02 -0.92021707757E+02  0.17843101451E+03  0.24013488497E+03  0.12500000000E+03 0.  0.
</event>
<event>
 5    0  0.5670250E-005  0.3290484E+03  0.7546771E-02  0.1071559E+00
         21   -1    0    0  502  501  0.00000000000E+00  0.00000000000E+00  0.18960468606E+04  0.18960468606E+04  0.00000000000E+00 0. -1.
         21   -1    0    0  501  502 -0.00000000000E+00 -0.00000000000E+00 -0.57104513255E+02  0.57104513255E+02  0.00000000000E+00 0. -1.
         25    1    1    2    0    0 -0.28149714023E+02 -0.20353564773E+02  0.19490074789E+03  0.23413238889E+03  0.12500000000E+03 0.  0.
         25    1    1    2    0    0  0.76210685461E+02  0.12039916530E+03  0.14523934667E+04  0.14647101453E+04  0.12500000000E+03 0.  0.
         25    1    1    2    0    0 -0.48060971438E+02 -0.10004560053E+03  0.19164813282E+03  0.25430883975E+03  0.12500000000E+03 0.  0.
</event>
<event>
 5    0  0.5670250E-005  0.3289529E+03  0.7546771E-02  0.1071601E+00
         21   -1    0    0  502  501  0.00000000000E+00  0.00000000000E+00  0.13351993078E+03  0.13351993078E+03  0.00000000000E+00 0.  1.
         21   -1    0    0  501  502 -0.00000000000E+00 -0.00000000000E+00 -0.81044098651E+03  0.81044098651E+03  0.00000000000E+00 0.  1.
         25    1    1    2    0    0  0.33701628945E+02 -0.17825520209E+02 -0.23104298466E+03  0.26544191403E+03  0.12500000000E+03 0.  0.
         25    1    1    2    0    0  0.20189646293E+02 -0.47975661455E+02 -0.49994000146E+03  0.51795201608E+03  0.12500000000E+03 0.  0.
         25    1    1    2    0    0 -0.53891275238E+02  0.65801181664E+02  0.54061930381E+02  0.16056698718E+03  0.12500000000E+03 0.  0.
</event>
<event>
 5    0  0.5670250E-005  0.3931701E+03  0.7546771E-02  0.1046171E+00
         21   -1    0    0  502  501  0.00000000000E+00  0.00000000000E+00  0.47566060612E+03  0.47566060612E+03  0.00000000000E+00 0. -1.
         21   -1    0    0  501  502 -0.00000000000E+00 -0.00000000000E+00 -0.32498530266E+03  0.32498530266E+03  0.00000000000E+00 0. -1.
         25    1    1    2    0    0  0.36062222491E+02  0.20427480012E+03  0.96098409822E+02  0.26055437480E+03  0.12500000000E+03 0.  0.
         25    1    1    2    0    0  0.92645841209E+02 -0.16072875425E+03 -0.14627195776E+03  0.26727788903E+03  0.12500000000E+03 0.  0.
         25    1    1    2    0    0 -0.12870806370E+03 -0.43546045865E+02  0.20084885139E+03  0.27281364496E+03  0.12500000000E+03 0.  0.
</event>
<event>
 5    0  0.5670250E-005  0.3575556E+03  0.7546771E-02  0.1059556E+00
         21   -1    0    0  502  501  0.00000000000E+00  0.00000000000E+00  0.18787167071E+03  0.18787167071E+03  0.00000000000E+00 0.  1.
         21   -1    0    0  501  502 -0.00000000000E+00 -0.00000000000E+00 -0.68049641253E+03  0.68049641253E+03  0.00000000000E+00 0.  1.
         25    1    1    2    0    0  0.72729998182E+02  0.13853502553E+03 -0.22616655067E+03  0.30208924936E+03  0.12500000000E+03 0.  0.
         25    1    1    2    0    0 -0.69961245063E+02 -0.21655221860E+03  0.24270755171E+01  0.25965425066E+03  0.12500000000E+03 0.  0.
         25    1    1    2    0    0 -0.27687531187E+01  0.78017193067E+02 -0.26888526666E+03  0.30662458322E+03  0.12500000000E+03 0.  0.
</event>
<event>
 5    0  0.5670250E-005  0.2522575E+03  0.7546771E-02  0.1111886E+00
         21   -1    0    0  502  501  0.00000000000E+00  0.00000000000E+00  0.14790110588E+03  0.14790110588E+03  0.00000000000E+00 0. -1.
         21   -1    0    0  501  502 -0.00000000000E+00 -0.00000000000E+00 -0.43024588642E+03  0.43024588642E+03  0.00000000000E+00 0. -1.
         25    1    1    2    0    0 -0.46777524095E+02  0.23261074009E+01  0.27118169744E+02  0.13621285793E+03  0.12500000000E+03 0.  0.
         25    1    1    2    0    0  0.38890952508E+02  0.66618389557E+02 -0.69245269595E+02  0.16238972682E+03  0.12500000000E+03 0.  0.
         25    1    1    2    0    0  0.78865715871E+01 -0.68944496958E+02 -0.24021768069E+03  0.27954440754E+03  0.12500000000E+03 0.  0.
</event>
<event>
 5    0  0.5670250E-005  0.2676328E+03  0.7546771E-02  0.1102642E+00
         21   -1    0    0  502  501  0.00000000000E+00  0.00000000000E+00  0.96309934171E+02  0.96309934171E+02  0.00000000000E+00 0. -1.
         21   -1    0    0  501  502 -0.00000000000E+00 -0.00000000000E+00 -0.74371681554E+03  0.74371681554E+03  0.00000000000E+00 0. -1.
         25    1    1    2    0    0  0.10678787010E+02 -0.37093519578E+02 -0.23737547575E+03  0.27103889421E+03  0.12500000000E+03 0.  0.
         25    1    1    2    0    0  0.96858588240E+02 -0.89099069517E+02 -0.23817666937E+03  0.29945509870E+03  0.12500000000E+03 0.  0.
         25    1    1    2    0    0 -0.10753737525E+03  0.12619258910E+03 -0.17185473625E+03  0.26953275680E+03  0.12500000000E+03 0.  0.
</event>
<event>
 5    0  0.5670250E-005  0.3390774E+03  0.7546771E-02  0.1067190E+00
         21   -1    0    0  502  501  0.00000000000E+00  0.00000000000E+00  0.16851530363E+04  0.16851530363E+04  0.00000000000E+00 0. -1.
         21   -1    0    0  501  502 -0.00000000000E+00 -0.00000000000E+00 -0.68227342370E+02  0.68227342370E+02  0.00000000000E+00 0. -1.
         25    1    1    2    0    0 -0.90023062046E+02  0.12604407423E+03  0.18705996845E+03  0.27314408678E+03  0.12500000000E+03 0.  0.
         25    1    1    2    0    0  0.23373865249E+02 -0.18765769040E+03  0.78079283981E+03  0.81303395073E+03  0.12500000000E+03 0.  0.
         25    1    1    2    0    0  0.66649196797E+02  0.61613616167E+02  0.64907288566E+03  0.66720234115E+03  0.12500000000E+03 0.  0.
</event>
<event>
 5    0  0.5670250E-005  0.3014185E+03  0.7546771E-02  0.1084534E+00
         21   -1    0    0  502  501  0.00000000000E+00  0.00000000000E+00  0.81240544878E+02  0.81240544878E+02  0.00000000000E+00 0.  1.
         21   -1    0    0  501  502 -0.00000000000E+00 -0.00000000000E+00 -0.11183225060E+04  0.11183225060E+04  0.00000000000E+00 0.  1.
         25    1    1    2    0    0 -0.14238107218E+02  0.16804670974E+03 -0.24532081075E+03  0.32287725306E+03  0.12500000000E+03 0.  0.
         25    1    1    2    0    0  0.50406752607E+02  0.20509161357E+02 -0.40306465156E+03  0.42549686221E+03  0.12500000000E+03 0.  0.
         25    1    1    2    0    0 -0.36168645389E+02 -0.18855587110E+03 -0.38869649879E+03  0.45118893560E+03  0.12500000000E+03 0.  0.
</event>
<event>
 5    0  0.5670250E-005  0.4295264E+03  0.7546771E-02  0.1034010E+00
         21   -1    0    0  502  501  0.00000000000E+00  0.00000000000E+00  0.18588716586E+03  0.18588716586E+03  0.00000000000E+00 0. -1.
         21   -1    0    0  501  502 -0.00000000000E+00 -0.00000000000E+00 -0.99249974754E+03  0.99249974754E+03  0.00000000000E+00 0. -1.
         25    1    1    2    0    0  0.72822311323E+02  0.13514000084E+03 -0.19152318882E+03  0.27544879871E+03  0.12500000000E+03 0.  0.
         25    1    1    2    0    0 -0.17817784871E+03  0.15679166421E+03 -0.95103129712E+02  0.28460600313E+03  0.12500000000E+03 0.  0.
         25    1    1    2    0    0  0.10535553739E+03 -0.29193166506E+03 -0.51998626315E+03  0.61833211156E+03  0.12500000000E+03 0.  0.
</event>
<event>
 5    0  0.5670250E-005  0.4542695E+03  0.7546771E-02  0.1026456E+00
         21   -1    0    0  502  501  0.00000000000E+00  0.00000000000E+00  0.98735134924E+03  0.98735134924E+03  0.00000000000E+00 0.  1.
         21   -1    0    0  501  502 -0.00000000000E+00 -0.00000000000E+00 -0.20900439093E+03  0.20900439093E+03  0.00000000000E+00 0.  1.
         25    1    1    2    0    0  0.16315036170E+03 -0.10563894141E+03  0.41296132264E+03  0.47322265421E+03  0.12500000000E+03 0.  0.
         25    1    1    2    0    0  0.90034922323E+02 -0.10778745710E+03  0.31328439384E+03  0.36537177583E+03  0.12500000000E+03 0.  0.
         25    1    1    2    0    0 -0.25318528402E+03  0.21342639851E+03  0.52101241832E+02  0.35776131013E+03  0.12500000000E+03 0.  0.
</event>
<event>
 5    0  0.5901386E-005  0.4986628E+03  0.7546771E-02  0.1014129E+00
         21   -1    0    0  502  501  0.00000000000E+00  0.00000000000E+00  0.58969344316E+03  0.58969344316E+03  0.00000000000E+00 0.  1.
         21   -1    0    0  501  502 -0.00000000000E+00 -0.00000000000E+00 -0.42168448476E+03  0.42168448476E+03  0.00000000000E+00 0.  1.
         25    1    1    2    0    0 -0.82143405891E+02  0.67889580323E+02 -0.22490151236E+03  0.27849995424E+03  0.12500000000E+03 0.  0.
         25    1    1    2    0    0  0.57431709864E+02  0.19864021222E+03  0.36284135453E+03  0.43593025103E+03  0.12500000000E+03 0.  0.
         25    1    1    2    0    0  0.24711696027E+02 -0.26652979255E+03  0.30069116237E+02  0.29694772265E+03  0.12500000000E+03 0.  0.
</event>
<event>
 5    0  0.5703829E-005  0.4639128E+03  0.7546771E-02  0.1023652E+00
         21   -1    0    0  502  501  0.00000000000E+00  0.00000000000E+00  0.10445014887E+04  0.10445014887E+04  0.00000000000E+00 0. -1.
         21   -1    0    0  501  502 -0.00000000000E+00 -0.00000000000E+00 -0.20604570835E+03  0.20604570835E+03  0.00000000000E+00 0.  1.
         25    1    1    2    0    0  0.32182729245E+03 -0.89234856259E+02  0.35643917646E+03  0.50419197956E+03  0.12500000000E+03 0.  0.
         25    1    1    2    0    0 -0.75627920940E+02 -0.50150764524E+02 -0.20965505183E+02  0.15588211577E+03  0.12500000000E+03 0.  0.
         25    1    1    2    0    0 -0.24619937151E+03  0.13938562078E+03  0.50298210905E+03  0.59047310171E+03  0.12500000000E+03 0.  0.
</event>
<event>
 5    0  0.5670250E-005  0.2310531E+03  0.7546771E-02  0.1125901E+00
         21   -1    0    0  502  501  0.00000000000E+00  0.00000000000E+00  0.30052472620E+04  0.30052472620E+04  0.00000000000E+00 0.  1.
         21   -1    0    0  501  502 -0.00000000000E+00 -0.00000000000E+00 -0.17764101228E+02  0.17764101228E+02  0.00000000000E+00 0.  1.
         25    1    1    2    0    0 -0.18186583397E+02  0.39482521669E+02  0.16233221525E+04  0.16287079027E+04  0.12500000000E+03 0.  0.
         25    1    1    2    0    0  0.34445996147E+02 -0.71221837686E+01  0.98295204200E+03  0.99149229398E+03  0.12500000000E+03 0.  0.
         25    1    1    2    0    0 -0.16259412750E+02 -0.32360337900E+02  0.38120896622E+03  0.40281116655E+03  0.12500000000E+03 0.  0.
</event>
<event>
 5    0  0.5670250E-005  0.2943730E+03  0.7546771E-02  0.1088088E+00
         21   -1    0    0  502  501  0.00000000000E+00  0.00000000000E+00  0.20212092279E+04  0.20212092279E+04  0.00000000000E+00 0. -1.
         21   -1    0    0  501  502 -0.00000000000E+00 -0.00000000000E+00 -0.42873081857E+02  0.42873081857E+02  0.00000000000E+00 0. -1.
         25    1    1    2    0    0  0.86864724809E+02  0.89920656505E+02  0.14410984983E+04  0.14519025748E+04  0.12500000000E+03 0.  0.
         25    1    1    2    0    0 -0.89790570664E+02 -0.52463177336E+02  0.28270356861E+03  0.32613040223E+03  0.12500000000E+03 0.  0.
         25    1    1    2    0    0  0.29258458549E+01 -0.37457479168E+02  0.25453407918E+03  0.28604933278E+03  0.12500000000E+03 0.  0.
</event>
<event>
 5    0  0.5670250E-005  0.2827620E+03  0.7546771E-02  0.1094190E+00
         21   -1    0    0  502  501  0.00000000000E+00  0.00000000000E+00  0.13938683872E+03  0.13938683872E+03  0.00000000000E+00 0.  1.
         21   -1    0    0  501  502 -0.00000000000E+00 -0.00000000000E+00 -0.57361481795E+03  0.57361481795E+03  0.00000000000E+00 0.  1.
         25    1    1    2    0    0 -0.12871515527E+02 -0.61859419485E+02 -0.12072915234E+03  0.18491293064E+03  0.12500000000E+03 0.  0.
         25    1    1    2    0    0  0.57495263796E+02 -0.12766440735E+03 -0.97265137397E+02  0.21139870675E+03  0.12500000000E+03 0.  0.
         25    1    1    2    0    0 -0.44623748269E+02  0.18952382684E+03 -0.21623368948E+03  0.31669001929E+03  0.12500000000E+03 0.  0.
</event>
<event>
 5    0  0.5670250E-005  0.2807948E+03  0.7546771E-02  0.1095256E+00
         21   -1    0    0  502  501  0.00000000000E+00  0.00000000000E+00  0.26791850893E+03  0.26791850893E+03  0.00000000000E+00 0. -1.
         21   -1    0    0  501  502 -0.00000000000E+00 -0.00000000000E+00 -0.29428995108E+03  0.29428995108E+03  0.00000000000E+00 0. -1.
         25    1    1    2    0    0  0.32616979271E+02 -0.60144504563E+02  0.15459696842E+03  0.21025330297E+03  0.12500000000E+03 0.  0.
         25    1    1    2    0    0  0.43050812250E+02 -0.15382783577E+02 -0.51827780537E+02  0.14283249386E+03  0.12500000000E+03 0.  0.
         25    1    1    2    0    0 -0.75667791521E+02  0.75527288141E+02 -0.12914063003E+03  0.20912266318E+03  0.12500000000E+03 0.  0.
</event>
<event>
 5    0  0.5670250E-005  0.2174248E+03  0.7546771E-02  0.1135818E+00
         21   -1    0    0  502  501  0.00000000000E+00  0.00000000000E+00  0.62272026291E+03  0.62272026291E+03  0.00000000000E+00 0.  1.
         21   -1    0    0  501  502 -0.00000000000E+00 -0.00000000000E+00 -0.75914559590E+02  0.75914559590E+02  0.00000000000E+00 0.  1.
         25    1    1    2    0    0 -0.52444676233E+02  0.24090003713E+02  0.10999282840E+03  0.17622200386E+03  0.12500000000E+03 0.  0.
         25    1    1    2    0    0  0.31087994348E+02 -0.61455908297E+02  0.15248939851E+03  0.20885714907E+03  0.12500000000E+03 0.  0.
         25    1    1    2    0    0  0.21356681885E+02  0.37365904584E+02  0.28432347641E+03  0.31355566958E+03  0.12500000000E+03 0.  0.
</event>
<event>
 5    0  0.5670250E-005  0.3120092E+03  0.7546771E-02  0.1079387E+00
         21   -1    0    0  502  501  0.00000000000E+00  0.00000000000E+00  0.65976152296E+03  0.65976152296E+03  0.00000000000E+00 0.  1.
         21   -1    0    0  501  502 -0.00000000000E+00 -0.00000000000E+00 -0.14755291719E+03  0.14755291719E+03  0.00000000000E+00 0. -1.
         25    1    1    2    0    0  0.18016455470E+02 -0.76156110934E+00  0.12334010371E+03  0.17653031985E+03  0.12500000000E+03 0.  0.
         25    1    1    2    0    0 -0.18678609845E+03 -0.11694992853E+03  0.23119591556E+03  0.34299108404E+03  0.12500000000E+03 0.  0.
         25    1    1    2    0    0  0.16876964298E+03  0.11771148964E+03  0.15767258651E+03  0.28779303626E+03  0.12500000000E+03 0.  0.
</event>
<event>
 5    0  0.5670250E-005  0.2321817E+03  0.7546771E-02  0.1125114E+00
         21   -1    0    0  502  501  0.00000000000E+00  0.00000000000E+00  0.10452258123E+03  0.10452258123E+03  0.00000000000E+00 0. -1.
         21   -1    0    0  501  502 -0.00000000000E+00 -0.00000000000E+00 -0.51575773203E+03  0.51575773203E+03  0.00000000000E+00 0. -1.
         25    1    1    2    0    0 -0.36404520180E+02  0.67688957755E+02 -0.10656929742E+03  0.18135352008E+03  0.12500000000E+03 0.  0.
         25    1    1    2    0    0  0.32920878270E+02 -0.60268630441E+02 -0.43232032002E+02  0.14903053591E+03  0.12500000000E+03 0.  0.
         25    1    1    2    0    0  0.34836419096E+01 -0.74203273136E+01 -0.26143382138E+03  0.28989625727E+03  0.12500000000E+03 0.  0.
</event>
<event>
 5    0  0.5670250E-005  0.2705985E+03  0.7546771E-02  0.1100938E+00
         21   -1    0    0  502  501  0.00000000000E+00  0.00000000000E+00  0.40379336631E+03  0.40379336631E+03  0.00000000000E+00 0. -1.
         21   -1    0    0  501  502 -0.00000000000E+00 -0.00000000000E+00 -0.18133915395E+03  0.18133915395E+03  0.00000000000E+00 0. -1.
         25    1    1    2    0    0  0.67277107005E+02 -0.81839743068E+02  0.29783369761E+02  0.16654129154E+03  0.12500000000E+03 0.  0.
         25    1    1    2    0    0  0.74654147121E+01 -0.54773727628E+02  0.16923414812E+03  0.21753411352E+03  0.12500000000E+03 0.  0.
         25    1    1    2    0    0 -0.74742521717E+02  0.13661347070E+03  0.23436694480E+02  0.20105711521E+03  0.12500000000E+03 0.  0.
</event>
<event>
 5    0  0.5670250E-005  0.2848860E+03  0.7546771E-02  0.1093050E+00
         21   -1    0    0  502  501  0.00000000000E+00  0.00000000000E+00  0.27415558292E+03  0.27415558292E+03  0.00000000000E+00 0.  1.
         21   -1    0    0  501  502 -0.00000000000E+00 -0.00000000000E+00 -0.29603638801E+03  0.29603638801E+03  0.00000000000E+00 0.  1.
         25    1    1    2    0    0  0.75654346959E+02 -0.89741699979E+02 -0.63378272404E+01  0.17158764811E+03  0.12500000000E+03 0.  0.
         25    1    1    2    0    0  0.24177613782E+02  0.15021960718E+03  0.67923165637E+02  0.20830036923E+03  0.12500000000E+03 0.  0.
         25    1    1    2    0    0 -0.99831960741E+02 -0.60477907201E+02 -0.83466143492E+02  0.19030395360E+03  0.12500000000E+03 0.  0.
</event>
<event>
 5    0  0.5670250E-005  0.2521322E+03  0.7546771E-02  0.1111965E+00
         21   -1    0    0  502  501  0.00000000000E+00  0.00000000000E+00  0.30280612324E+03  0.30280612324E+03  0.00000000000E+00 0. -1.
         21   -1    0    0  501  502 -0.00000000000E+00 -0.00000000000E+00 -0.20993841672E+03  0.20993841672E+03  0.00000000000E+00 0. -1.
         25    1    1    2    0    0 -0.46813597399E+01 -0.33014321060E+02  0.53959710773E+02  0.14017314618E+03  0.12500000000E+03 0.  0.
         25    1    1    2    0    0  0.12748021587E+03  0.58643526072E+02 -0.12004626116E+02  0.18830661071E+03  0.12500000000E+03 0.  0.
         25    1    1    2    0    0 -0.12279885613E+03 -0.25629205012E+02  0.50912621863E+02  0.18426478307E+03  0.12500000000E+03 0.  0.
</event>
<event>
 5    0  0.5670250E-005  0.2938239E+03  0.7546771E-02  0.1088369E+00
         21   -1    0    0  502  501  0.00000000000E+00  0.00000000000E+00  0.32655337304E+03  0.32655337304E+03  0.00000000000E+00 0.  1.
         21   -1    0    0  501  502 -0.00000000000E+00 -0.00000000000E+00 -0.26437484687E+03  0.26437484687E+03  0.00000000000E+00 0.  1.
         25    1    1    2    0    0  0.24134265682E+02  0.14042956564E+03 -0.10368106503E+03  0.21605020003E+03  0.12500000000E+03 0.  0.
         25    1    1    2    0    0 -0.42643340186E+02 -0.15213786755E+03  0.61707662479E+02  0.21070648024E+03  0.12500000000E+03 0.  0.
         25    1    1    2    0    0  0.18509074504E+02  0.11708301906E+02  0.10415192872E+03  0.16417153964E+03  0.12500000000E+03 0.  0.
</event>
<event>
 5    0  0.5670250E-005  0.4159900E+03  0.7546771E-02  0.1038379E+00
         21   -1    0    0  502  501  0.00000000000E+00  0.00000000000E+00  0.11879107508E+03  0.11879107508E+03  0.00000000000E+00 0. -1.
         21   -1    0    0  501  502 -0.00000000000E+00 -0.00000000000E+00 -0.14567400365E+04  0.14567400365E+04  0.00000000000E+00 0. -1.
         25    1    1    2    0    0  0.36291439029E+02 -0.13277696041E+03 -0.76716677631E+03  0.78937738278E+03  0.12500000000E+03 0.  0.
         25    1    1    2    0    0 -0.16434456218E+02 -0.83729180750E+02  0.11880268994E+02  0.15181175136E+03  0.12500000000E+03 0.  0.
         25    1    1    2    0    0 -0.19856982811E+02  0.21650614116E+03 -0.58266245407E+03  0.63434197741E+03  0.12500000000E+03 0.  0.
</event>
<event>
 5    0  0.5670250E-005  0.3004765E+03  0.7546771E-02  0.1085003E+00
         21   -1    0    0  502  501  0.00000000000E+00  0.00000000000E+00  0.48760298424E+02  0.48760298424E+02  0.00000000000E+00 0. -1.
         21   -1    0    0  501  502 -0.00000000000E+00 -0.00000000000E+00 -0.18516319974E+04  0.18516319974E+04  0.00000000000E+00 0. -1.
         25    1    1    2    0    0  0.89710991701E+02  0.12717058802E+02 -0.26910853179E+03  0.31024858984E+03  0.12500000000E+03 0.  0.
         25    1    1    2    0    0 -0.18077163280E+03 -0.19861844010E+02 -0.12252587395E+04  0.12449726321E+04  0.12500000000E+03 0.  0.
         25    1    1    2    0    0  0.91060641103E+02  0.71447852077E+01 -0.30850442773E+03  0.34517107388E+03  0.12500000000E+03 0.  0.
</event>
<event>
 5    0  0.5670250E-005  0.3390980E+03  0.7546771E-02  0.1067181E+00
         21   -1    0    0  502  501  0.00000000000E+00  0.00000000000E+00  0.34835033049E+03  0.34835033049E+03  0.00000000000E+00 0.  1.
         21   -1    0    0  501  502 -0.00000000000E+00 -0.00000000000E+00 -0.33009136941E+03  0.33009136941E+03  0.00000000000E+00 0.  1.
         25    1    1    2    0    0  0.83738702300E+01 -0.65636690318E+02  0.75548301910E+02  0.16034600943E+03  0.12500000000E+03 0.  0.
         25    1    1    2    0    0 -0.25519425807E+02  0.99230202434E+02 -0.24253832941E+03  0.29145791361E+03  0.12500000000E+03 0.  0.
         25    1    1    2    0    0  0.17145555577E+02 -0.33593512116E+02  0.18524898858E+03  0.22663777687E+03  0.12500000000E+03 0.  0.
</event>
<event>
 5    0  0.5670250E-005  0.2897453E+03  0.7546771E-02  0.1090482E+00
         21   -1    0    0  502  501  0.00000000000E+00  0.00000000000E+00  0.10810634578E+04  0.10810634578E+04  0.00000000000E+00 0. -1.
         21   -1    0    0  501  502 -0.00000000000E+00 -0.00000000000E+00 -0.77657153572E+02  0.77657153572E+02  0.00000000000E+00 0. -1.
         25    1    1    2    0    0 -0.26737727458E+02 -0.68189408498E+02  0.72654726014E+02  0.16207532420E+03  0.12500000000E+03 0.  0.
         25    1    1    2    0    0  0.76213389340E+02 -0.14189435073E+02  0.19535696160E+03  0.24453867430E+03  0.12500000000E+03 0.  0.
         25    1    1    2    0    0 -0.49475661882E+02  0.82378843570E+02  0.73539461659E+03  0.75210661285E+03  0.12500000000E+03 0.  0.
</event>
<event>
 5    0  0.5670250E-005  0.3128443E+03  0.7546771E-02  0.1078991E+00
         21   -1    0    0  502  501  0.00000000000E+00  0.00000000000E+00  0.14531540259E+03  0.14531540259E+03  0.00000000000E+00 0. -1.
         21   -1    0    0  501  502 -0.00000000000E+00 -0.00000000000E+00 -0.67351111308E+03  0.67351111308E+03  0.00000000000E+00 0. -1.
         25    1    1    2    0    0 -0.94488814141E+02  0.36898865960E+02 -0.79361545953E+02  0.17947957344E+03  0.12500000000E+03 0.  0.
         25    1    1    2    0    0  0.74161291336E+02  0.73766615463E+02 -0.44192380118E+03  0.47102341422E+03  0.12500000000E+03 0.  0.
         25    1    1    2    0    0  0.20327522805E+02 -0.11066548142E+03 -0.69103633516E+01  0.16832352802E+03  0.12500000000E+03 0.  0.
</event>
<event>
 5    0  0.5670250E-005  0.2720392E+03  0.7546771E-02  0.1100118E+00
         21   -1    0    0  502  501  0.00000000000E+00  0.00000000000E+00  0.10952602742E+03  0.10952602742E+03  0.00000000000E+00 0.  1.
         21   -1    0    0  501  502 -0.00000000000E+00 -0.00000000000E+00 -0.67568734863E+03  0.67568734863E+03  0.00000000000E+00 0.  1.
         25    1    1    2    0    0 -0.13067612244E+03  0.93153080576E+02 -0.31452833117E+03  0.37457551509E+03  0.12500000000E+03 0.  0.
         25    1    1    2    0    0  0.85709883285E+00 -0.18001366664E+02 -0.12633723485E+03  0.17863616859E+03  0.12500000000E+03 0.  0.
         25    1    1    2    0    0  0.12981902361E+03 -0.75151713912E+02 -0.12529575519E+03  0.23200169237E+03  0.12500000000E+03 0.  0.
</event>
<event>
 5    0  0.5670250E-005  0.2941100E+03  0.7546771E-02  0.1088223E+00
         21   -1    0    0  502  501  0.00000000000E+00  0.00000000000E+00  0.14521189553E+03  0.14521189553E+03  0.00000000000E+00 0. -1.
         21   -1    0    0  501  502 -0.00000000000E+00 -0.00000000000E+00 -0.59568581839E+03  0.59568581839E+03  0.00000000000E+00 0. -1.
         25    1    1    2    0    0  0.43978988355E+02 -0.96582010558E+02 -0.30984127651E+03  0.35055506388E+03  0.12500000000E+03 0.  0.
         25    1    1    2    0    0 -0.11888841146E+03 -0.12890245610E+02 -0.25758655174E+02  0.17489745890E+03  0.12500000000E+03 0.  0.
         25    1    1    2    0    0  0.74909423108E+02  0.10947225617E+03 -0.11487399118E+03  0.21544519115E+03  0.12500000000E+03 0.  0.
</event>
<event>
 5    0  0.5670250E-005  0.3545239E+03  0.7546771E-02  0.1060773E+00
         21   -1    0    0  502  501  0.00000000000E+00  0.00000000000E+00  0.70305412947E+02  0.70305412947E+02  0.00000000000E+00 0.  1.
         21   -1    0    0  501  502 -0.00000000000E+00 -0.00000000000E+00 -0.17877312787E+04  0.17877312787E+04  0.00000000000E+00 0.  1.
         25    1    1    2    0    0  0.15060288926E+03  0.69320424820E+02 -0.30104342525E+03  0.36570301535E+03  0.12500000000E+03 0.  0.
         25    1    1    2    0    0 -0.23789956630E+03 -0.10279234736E+03 -0.11312710558E+04  0.11672881701E+04  0.12500000000E+03 0.  0.
         25    1    1    2    0    0  0.87296677044E+02  0.33471922538E+02 -0.28511138465E+03  0.32504550617E+03  0.12500000000E+03 0.  0.
</event>
<event>
 5    0  0.5670250E-005  0.2236216E+03  0.7546771E-02  0.1131211E+00
         21   -1    0    0  502  501  0.00000000000E+00  0.00000000000E+00  0.32453961272E+03  0.32453961272E+03  0.00000000000E+00 0.  1.
         21   -1    0    0  501  502 -0.00000000000E+00 -0.00000000000E+00 -0.15408482101E+03  0.15408482101E+03  0.00000000000E+00 0.  1.
         25    1    1    2    0    0 -0.44875143082E+02  0.66138881891E+01  0.16239499669E+03  0.20989201255E+03  0.12500000000E+03 0.  0.
         25    1    1    2    0    0  0.30397727986E+02  0.39515142042E+02  0.27574670397E+01  0.13460338756E+03  0.12500000000E+03 0.  0.
         25    1    1    2    0    0  0.14477415096E+02 -0.46129030231E+02  0.53023279833E+01  0.13412903362E+03  0.12500000000E+03 0.  0.
</event>
<event>
 5    0  0.5670250E-005  0.3281544E+03  0.7546771E-02  0.1071956E+00
         21   -1    0    0  502  501  0.00000000000E+00  0.00000000000E+00  0.10969397558E+04  0.10969397558E+04  0.00000000000E+00 0. -1.
         21   -1    0    0  501  502 -0.00000000000E+00 -0.00000000000E+00 -0.98168830086E+02  0.98168830086E+02  0.00000000000E+00 0. -1.
         25    1    1    2    0    0 -0.11501972960E+03 -0.83821681308E+02  0.63249231379E+03  0.66024778641E+03  0.12500000000E+03 0.  0.
         25    1    1    2    0    0  0.17651963567E+03 -0.15100044677E+02  0.23203529683E+03  0.31757293981E+03  0.12500000000E+03 0.  0.
         25    1    1    2    0    0 -0.61499906067E+02  0.98921725985E+02  0.13424331514E+03  0.21728785971E+03  0.12500000000E+03 0.  0.
</event>
<event>
 5    0  0.5670250E-005  0.2271770E+03  0.7546771E-02  0.1128643E+00
         21   -1    0    0  502  501  0.00000000000E+00  0.00000000000E+00  0.13957782327E+03  0.13957782327E+03  0.00000000000E+00 0.  1.
         21   -1    0    0  501  502 -0.00000000000E+00 -0.00000000000E+00 -0.36975364311E+03  0.36975364311E+03  0.00000000000E+00 0.  1.
         25    1    1    2    0    0 -0.68960251714E+02 -0.50641305470E+02 -0.66230224744E+02  0.16532241471E+03  0.12500000000E+03 0.  0.
         25    1    1    2    0    0  0.68186273192E+02 -0.15179560392E+02 -0.24068366858E+02  0.14520355777E+03  0.12500000000E+03 0.  0.
         25    1    1    2    0    0  0.77397852167E+00  0.65820865862E+02 -0.13987722823E+03  0.19880549390E+03  0.12500000000E+03 0.  0.
</event>
<event>
 5    0  0.5965120E-005  0.4372238E+03  0.7546771E-02  0.1031602E+00
         21   -1    0    0  502  501  0.00000000000E+00  0.00000000000E+00  0.33969255909E+03  0.33969255909E+03  0.00000000000E+00 0. -1.
         21   -1    0    0  501  502 -0.00000000000E+00 -0.00000000000E+00 -0.56275781056E+03  0.56275781056E+03  0.00000000000E+00 0. -1.
         25    1    1    2    0    0 -0.11115249889E+03  0.21436940428E+03 -0.27955381229E+03  0.38998006804E+03  0.12500000000E+03 0.  0.
         25    1    1    2    0    0  0.43875936818E+02  0.79124231106E+02  0.99528026653E+02  0.18362072287E+03  0.12500000000E+03 0.  0.
         25    1    1    2    0    0  0.67276562071E+02 -0.29349363538E+03 -0.43039465839E+02  0.32884957874E+03  0.12500000000E+03 0.  0.
</event>
<event>
 5    0  0.5670250E-005  0.4384372E+03  0.7546771E-02  0.1031227E+00
         21   -1    0    0  502  501  0.00000000000E+00  0.00000000000E+00  0.10605769210E+04  0.10605769210E+04  0.00000000000E+00 0. -1.
         21   -1    0    0  501  502 -0.00000000000E+00 -0.00000000000E+00 -0.18124776665E+03  0.18124776665E+03  0.00000000000E+00 0. -1.
         25    1    1    2    0    0  0.25813959606E+03  0.57746325868E+02  0.36700046464E+03  0.46934532090E+03  0.12500000000E+03 0.  0.
         25    1    1    2    0    0  0.11784394433E+03 -0.55510166935E+02  0.13610572054E+03  0.22609365540E+03  0.12500000000E+03 0.  0.
         25    1    1    2    0    0 -0.37598354039E+03 -0.22361589329E+01  0.37622296922E+03  0.54638571140E+03  0.12500000000E+03 0.  0.
</event>
<event>
 5    0  0.5856966E-005  0.2893645E+03  0.7546771E-02  0.1090681E+00
         21   -1    0    0  502  501  0.00000000000E+00  0.00000000000E+00  0.12925452645E+03  0.12925452645E+03  0.00000000000E+00 0. -1.
         21   -1    0    0  501  502 -0.00000000000E+00 -0.00000000000E+00 -0.64780579255E+03  0.64780579255E+03  0.00000000000E+00 0. -1.
         25    1    1    2    0    0  0.33151525642E+02 -0.71749076381E+02 -0.72629872789E+02  0.16476362473E+03  0.12500000000E+03 0.  0.
         25    1    1    2    0    0 -0.93652372951E+01  0.16672093901E+03 -0.39301276040E+03  0.44493551107E+03  0.12500000000E+03 0.  0.
         25    1    1    2    0    0 -0.23786288347E+02 -0.94971862632E+02 -0.52908632909E+02  0.16736118320E+03  0.12500000000E+03 0.  0.
</event>
<event>
 5    0  0.5670250E-005  0.2116022E+03  0.7546771E-02  0.1140303E+00
         21   -1    0    0  502  501  0.00000000000E+00  0.00000000000E+00  0.24849020380E+04  0.24849020380E+04  0.00000000000E+00 0.  1.
         21   -1    0    0  501  502 -0.00000000000E+00 -0.00000000000E+00 -0.18019016977E+02  0.18019016977E+02  0.00000000000E+00 0.  1.
         25    1    1    2    0    0  0.24947738129E+02 -0.75365409914E+02  0.99735051454E+03  0.10082833845E+04  0.12500000000E+03 0.  0.
         25    1    1    2    0    0 -0.40424837676E+02  0.12713155422E+02  0.68843425375E+03  0.70097254836E+03  0.12500000000E+03 0.  0.
         25    1    1    2    0    0  0.15477099546E+02  0.62652254492E+02  0.78109825276E+03  0.79366512212E+03  0.12500000000E+03 0.  0.
</event>
<event>
 5    0  0.5670250E-005  0.2558549E+03  0.7546771E-02  0.1109660E+00
         21   -1    0    0  502  501  0.00000000000E+00  0.00000000000E+00  0.95483384754E+03  0.95483384754E+03  0.00000000000E+00 0.  1.
         21   -1    0    0  501  502 -0.00000000000E+00 -0.00000000000E+00 -0.68558260622E+02  0.68558260622E+02  0.00000000000E+00 0.  1.
         25    1    1    2    0    0  0.90424189503E+02  0.29262100493E+01  0.11505090816E+03  0.19247547434E+03  0.12500000000E+03 0.  0.
         25    1    1    2    0    0 -0.11334743667E+03  0.41889818130E+02  0.40790679486E+03  0.44341329655E+03  0.12500000000E+03 0.  0.
         25    1    1    2    0    0  0.22923247163E+02 -0.44816028180E+02  0.36331788390E+03  0.38750333728E+03  0.12500000000E+03 0.  0.
</event>
<event>
 5    0  0.5670250E-005  0.2260993E+03  0.7546771E-02  0.1129416E+00
         21   -1    0    0  502  501  0.00000000000E+00  0.00000000000E+00  0.15097941549E+04  0.15097941549E+04  0.00000000000E+00 0.  1.
         21   -1    0    0  501  502 -0.00000000000E+00 -0.00000000000E+00 -0.33859514866E+02  0.33859514866E+02  0.00000000000E+00 0.  1.
         25    1    1    2    0    0 -0.58368349360E+02  0.13836727910E+02  0.52617428963E+03  0.54413481998E+03  0.12500000000E+03 0.  0.
         25    1    1    2    0    0  0.99331549069E+02 -0.57747856980E+02  0.59044887184E+03  0.61437483826E+03  0.12500000000E+03 0.  0.
         25    1    1    2    0    0 -0.40963199708E+02  0.43911129071E+02  0.35931147852E+03  0.38514401148E+03  0.12500000000E+03 0.  0.
</event>
<event>
 5    0  0.5670250E-005  0.2766671E+03  0.7546771E-02  0.1097523E+00
         21   -1    0    0  502  501  0.00000000000E+00  0.00000000000E+00  0.40607367253E+03  0.40607367253E+03  0.00000000000E+00 0. -1.
         21   -1    0    0  501  502 -0.00000000000E+00 -0.00000000000E+00 -0.18849947766E+03  0.18849947766E+03  0.00000000000E+00 0. -1.
         25    1    1    2    0    0 -0.67937115150E+02 -0.50238784270E+02  0.15488396560E+03  0.21622541446E+03  0.12500000000E+03 0.  0.
         25    1    1    2    0    0  0.14298745652E+03  0.40722562070E+02  0.11190921438E+03  0.22417049772E+03  0.12500000000E+03 0.  0.
         25    1    1    2    0    0 -0.75050341369E+02  0.95162221996E+01 -0.49218985111E+02  0.15417723801E+03  0.12500000000E+03 0.  0.
</event>
<event>
 5    0  0.5670250E-005  0.2900793E+03  0.7546771E-02  0.1090308E+00
         21   -1    0    0  502  501  0.00000000000E+00  0.00000000000E+00  0.10304669203E+04  0.10304669203E+04  0.00000000000E+00 0. -1.
         21   -1    0    0  501  502 -0.00000000000E+00 -0.00000000000E+00 -0.81658102569E+02  0.81658102569E+02  0.00000000000E+00 0. -1.
         25    1    1    2    0    0 -0.10435107684E+03  0.16684200441E+03  0.27215341457E+03  0.35835440940E+03  0.12500000000E+03 0.  0.
         25    1    1    2    0    0  0.28377708800E+02 -0.71053995092E+02  0.21580359426E+03  0.26086424798E+03  0.12500000000E+03 0.  0.
         25    1    1    2    0    0  0.75973368044E+02 -0.95788009321E+02  0.46085180894E+03  0.49290636553E+03  0.12500000000E+03 0.  0.
</event>
<event>
 5    0  0.5670250E-005  0.2833876E+03  0.7546771E-02  0.1093853E+00
         21   -1    0    0  502  501  0.00000000000E+00  0.00000000000E+00  0.45057763767E+03  0.45057763767E+03  0.00000000000E+00 0.  1.
         21   -1    0    0  501  502 -0.00000000000E+00 -0.00000000000E+00 -0.17823459343E+03  0.17823459343E+03  0.00000000000E+00 0.  1.
         25    1    1    2    0    0  0.56695236619E+02  0.65648506613E+02  0.10097018650E+03  0.18260354552E+03  0.12500000000E+03 0.  0.
         25    1    1    2    0    0  0.25877443856E+02 -0.11743902800E+03 -0.43852322528E+02  0.17891225109E+03  0.12500000000E+03 0.  0.
         25    1    1    2    0    0 -0.82572680476E+02  0.51790521389E+02  0.21522518027E+03  0.26729643449E+03  0.12500000000E+03 0.  0.
</event>
<event>
 5    0  0.6073167E-005  0.6355359E+03  0.7546771E-02  0.9834305E-01
         21   -1    0    0  502  501  0.00000000000E+00  0.00000000000E+00  0.40961157375E+03  0.40961157375E+03  0.00000000000E+00 0. -1.
         21   -1    0    0  501  502 -0.00000000000E+00 -0.00000000000E+00 -0.98607051209E+03  0.98607051209E+03  0.00000000000E+00 0. -1.
         25    1    1    2    0    0  0.10303550687E+03  0.37994026223E+03  0.37850263038E+02  0.41476325892E+03  0.12500000000E+03 0.  0.
         25    1    1    2    0    0 -0.37361798039E+02 -0.47699294698E+03 -0.20154794332E+03  0.53400819177E+03  0.12500000000E+03 0.  0.
         25    1    1    2    0    0 -0.65673708830E+02  0.97052684744E+02 -0.41276125806E+03  0.44691063514E+03  0.12500000000E+03 0.  0.
</event>
<event>
 5    0  0.5670250E-005  0.5293055E+03  0.7546771E-02  0.1006401E+00
         21   -1    0    0  502  501  0.00000000000E+00  0.00000000000E+00  0.26809203350E+03  0.26809203350E+03  0.00000000000E+00 0.  1.
         21   -1    0    0  501  502 -0.00000000000E+00 -0.00000000000E+00 -0.10450304833E+04  0.10450304833E+04  0.00000000000E+00 0.  1.
         25    1    1    2    0    0  0.16723103942E+03  0.28402941620E+03 -0.46231081598E+03  0.58137356355E+03  0.12500000000E+03 0.  0.
         25    1    1    2    0    0 -0.34569980932E+03 -0.15551593877E+03 -0.13447942173E+03  0.42119268778E+03  0.12500000000E+03 0.  0.
         25    1    1    2    0    0  0.17846876990E+03 -0.12851347743E+03 -0.18014821208E+03  0.31055626547E+03  0.12500000000E+03 0.  0.
</event>
<event>
 5    0  0.5670250E-005  0.2672775E+03  0.7546771E-02  0.1102848E+00
         21   -1    0    0  502  501  0.00000000000E+00  0.00000000000E+00  0.91155098672E+03  0.91155098672E+03  0.00000000000E+00 0.  1.
         21   -1    0    0  501  502 -0.00000000000E+00 -0.00000000000E+00 -0.78368932456E+02  0.78368932456E+02  0.00000000000E+00 0.  1.
         25    1    1    2    0    0 -0.23670534000E+02  0.29412006049E+02  0.41138331918E+03  0.43160930896E+03  0.12500000000E+03 0.  0.
         25    1    1    2    0    0 -0.16684394405E+02  0.46195082492E+01  0.40180548163E+03  0.42115597341E+03  0.12500000000E+03 0.  0.
         25    1    1    2    0    0  0.40354928405E+02 -0.34031514298E+02  0.19993253446E+02  0.13715463680E+03  0.12500000000E+03 0.  0.
</event>
<event>
 5    0  0.5670250E-005  0.2563159E+03  0.7546771E-02  0.1109377E+00
         21   -1    0    0  502  501  0.00000000000E+00  0.00000000000E+00  0.20755830709E+03  0.20755830709E+03  0.00000000000E+00 0. -1.
         21   -1    0    0  501  502 -0.00000000000E+00 -0.00000000000E+00 -0.31652712281E+03  0.31652712281E+03  0.00000000000E+00 0. -1.
         25    1    1    2    0    0  0.10185948971E+01  0.97842748849E+02 -0.68898762435E+02  0.17304993644E+03  0.12500000000E+03 0.  0.
         25    1    1    2    0    0 -0.65031147807E+02 -0.12030267367E+03 -0.82220108330E+02  0.20269911122E+03  0.12500000000E+03 0.  0.
         25    1    1    2    0    0  0.64012552910E+02  0.22459924817E+02  0.42150055052E+02  0.14833638223E+03  0.12500000000E+03 0.  0.
</event>
<event>
 5    0  0.5670250E-005  0.4198314E+03  0.7546771E-02  0.1037121E+00
         21   -1    0    0  502  501  0.00000000000E+00  0.00000000000E+00  0.10167212421E+03  0.10167212421E+03  0.00000000000E+00 0. -1.
         21   -1    0    0  501  502 -0.00000000000E+00 -0.00000000000E+00 -0.17335957997E+04  0.17335957997E+04  0.00000000000E+00 0. -1.
         25    1    1    2    0    0  0.27309366535E+03  0.21515706793E+03 -0.96632129375E+03  0.10345407468E+04  0.12500000000E+03 0.  0.
         25    1    1    2    0    0 -0.13869793519E+03 -0.17772863251E+03 -0.39006845098E+03  0.46754997647E+03  0.12500000000E+03 0.  0.
         25    1    1    2    0    0 -0.13439573016E+03 -0.37428435415E+02 -0.27553393071E+03  0.33317720065E+03  0.12500000000E+03 0.  0.
</event>
<event>
 5    0  0.5670250E-005  0.3005292E+03  0.7546771E-02  0.1084976E+00
         21   -1    0    0  502  501  0.00000000000E+00  0.00000000000E+00  0.18557436750E+03  0.18557436750E+03  0.00000000000E+00 0. -1.
         21   -1    0    0  501  502 -0.00000000000E+00 -0.00000000000E+00 -0.48669325652E+03  0.48669325652E+03  0.00000000000E+00 0. -1.
         25    1    1    2    0    0  0.13267577185E+03 -0.10805082538E+03  0.29785680814E+02  0.21398604647E+03  0.12500000000E+03 0.  0.
         25    1    1    2    0    0 -0.77893152566E+02  0.75006247965E+01 -0.14939349469E+03  0.20992145875E+03  0.12500000000E+03 0.  0.
         25    1    1    2    0    0 -0.54782619288E+02  0.10055020058E+03 -0.18151107515E+03  0.24836011881E+03  0.12500000000E+03 0.  0.
</event>
<event>
 5    0  0.5670250E-005  0.2606914E+03  0.7546771E-02  0.1106729E+00
         21   -1    0    0  502  501  0.00000000000E+00  0.00000000000E+00  0.61419557143E+02  0.61419557143E+02  0.00000000000E+00 0.  1.
         21   -1    0    0  501  502 -0.00000000000E+00 -0.00000000000E+00 -0.11064878456E+04  0.11064878456E+04  0.00000000000E+00 0.  1.
         25    1    1    2    0    0 -0.32439658694E+02  0.12537839207E+03 -0.47601174905E+03  0.50890495958E+03  0.12500000000E+03 0.  0.
         25    1    1    2    0    0 -0.95729588444E+01 -0.36479961817E+02 -0.42435538682E+03  0.44398752626E+03  0.12500000000E+03 0.  0.
         25    1    1    2    0    0  0.42012617539E+02 -0.88898430249E+02 -0.14470115263E+03  0.21501491693E+03  0.12500000000E+03 0.  0.
</event>
<event>
 5    0  0.5670250E-005  0.4383516E+03  0.7546771E-02  0.1031254E+00
         21   -1    0    0  502  501  0.00000000000E+00  0.00000000000E+00  0.31776878312E+03  0.31776878312E+03  0.00000000000E+00 0.  1.
         21   -1    0    0  501  502 -0.00000000000E+00 -0.00000000000E+00 -0.60469156786E+03  0.60469156786E+03  0.00000000000E+00 0.  1.
         25    1    1    2    0    0  0.16490111759E+03  0.44914783744E+02 -0.14034352647E+03  0.25402956876E+03  0.12500000000E+03 0.  0.
         25    1    1    2    0    0 -0.12440378659E+03  0.13646769641E+03  0.17016308271E+03  0.28049992692E+03  0.12500000000E+03 0.  0.
         25    1    1    2    0    0 -0.40497331000E+02 -0.18138248016E+03 -0.31674234098E+03  0.38793085530E+03  0.12500000000E+03 0.  0.
</event>
<event>
 5    0  0.5670250E-005  0.2966833E+03  0.7546771E-02  0.1086910E+00
         21   -1    0    0  502  501  0.00000000000E+00  0.00000000000E+00  0.83176971502E+02  0.83176971502E+02  0.00000000000E+00 0.  1.
         21   -1    0    0  501  502 -0.00000000000E+00 -0.00000000000E+00 -0.10582374313E+04  0.10582374313E+04  0.00000000000E+00 0.  1.
         25    1    1    2    0    0  0.72931641946E+02 -0.13454656558E+03 -0.28438163014E+03  0.34629425965E+03  0.12500000000E+03 0.  0.
         25    1    1    2    0    0 -0.10342713607E+03  0.18394127758E+03 -0.52604172038E+03  0.58041059402E+03  0.12500000000E+03 0.  0.
         25    1    1    2    0    0  0.30495494124E+02 -0.49394711992E+02 -0.16463710927E+03  0.21470954912E+03  0.12500000000E+03 0.  0.
</event>
<event>
 5    0  0.5670250E-005  0.3731313E+03  0.7546771E-02  0.1053502E+00
         21   -1    0    0  502  501  0.00000000000E+00  0.00000000000E+00  0.90954915528E+02  0.90954915528E+02  0.00000000000E+00 0. -1.
         21   -1    0    0  501  502 -0.00000000000E+00 -0.00000000000E+00 -0.15307253148E+04  0.15307253148E+04  0.00000000000E+00 0. -1.
         25    1    1    2    0    0  0.44154721060E+02  0.24654340691E+02 -0.38163068378E+03  0.40475233749E+03  0.12500000000E+03 0.  0.
         25    1    1    2    0    0  0.55628775493E+02 -0.17829017887E+03 -0.12370309895E+03  0.25653343882E+03  0.12500000000E+03 0.  0.
         25    1    1    2    0    0 -0.99783496553E+02  0.15363583818E+03 -0.93443661657E+03  0.96039445403E+03  0.12500000000E+03 0.  0.
</event>
<event>
 5    0  0.5670250E-005  0.3029759E+03  0.7546771E-02  0.1083762E+00
         21   -1    0    0  502  501  0.00000000000E+00  0.00000000000E+00  0.91942931338E+03  0.91942931338E+03  0.00000000000E+00 0.  1.
         21   -1    0    0  501  502 -0.00000000000E+00 -0.00000000000E+00 -0.99838454784E+02  0.99838454784E+02  0.00000000000E+00 0.  1.
         25    1    1    2    0    0 -0.82205682887E+02  0.37916651477E+02  0.39477028936E+03  0.42386793712E+03  0.12500000000E+03 0.  0.
         25    1    1    2    0    0  0.97913255402E+01  0.13736981411E+03  0.15054756117E+03  0.23928205962E+03  0.12500000000E+03 0.  0.
         25    1    1    2    0    0  0.72414357347E+02 -0.17528646558E+03  0.27427300807E+03  0.35611777142E+03  0.12500000000E+03 0.  0.
</event>
<event>
 5    0  0.5670250E-005  0.4196058E+03  0.7546771E-02  0.1037195E+00
         21   -1    0    0  502  501  0.00000000000E+00  0.00000000000E+00  0.75206887879E+03  0.75206887879E+03  0.00000000000E+00 0.  1.
         21   -1    0    0  501  502 -0.00000000000E+00 -0.00000000000E+00 -0.23411290917E+03  0.23411290917E+03  0.00000000000E+00 0.  1.
         25    1    1    2    0    0  0.22943957316E+03  0.19976420953E+03  0.22593865808E+03  0.39902573145E+03  0.12500000000E+03 0.  0.
         25    1    1    2    0    0 -0.13897131952E+03 -0.18016834021E+03  0.37932389567E+01  0.25964022632E+03  0.12500000000E+03 0.  0.
         25    1    1    2    0    0 -0.90468253637E+02 -0.19595869325E+02  0.28822407258E+03  0.32751583019E+03  0.12500000000E+03 0.  0.
</event>
<event>
 5    0  0.5670250E-005  0.2831452E+03  0.7546771E-02  0.1093983E+00
         21   -1    0    0  502  501  0.00000000000E+00  0.00000000000E+00  0.42224331979E+02  0.42224331979E+02  0.00000000000E+00 0. -1.
         21   -1    0    0  501  502 -0.00000000000E+00 -0.00000000000E+00 -0.18986967196E+04  0.18986967196E+04  0.00000000000E+00 0. -1.
         25    1    1    2    0    0  0.11746999577E+02 -0.35595314416E+02 -0.17955614097E+03  0.22196942620E+03  0.12500000000E+03 0.  0.
         25    1    1    2    0    0 -0.46279069278E+02 -0.61644799908E+02 -0.31647844864E+03  0.34889173401E+03  0.12500000000E+03 0.  0.
         25    1    1    2    0    0  0.34532069701E+02  0.97240114324E+02 -0.13604377980E+04  0.13700598914E+04  0.12500000000E+03 0.  0.
</event>
<event>
 5    0  0.5670250E-005  0.3345712E+03  0.7546771E-02  0.1069132E+00
         21   -1    0    0  502  501  0.00000000000E+00  0.00000000000E+00  0.35455030845E+03  0.35455030845E+03  0.00000000000E+00 0. -1.
         21   -1    0    0  501  502 -0.00000000000E+00 -0.00000000000E+00 -0.31571798343E+03  0.31571798343E+03  0.00000000000E+00 0. -1.
         25    1    1    2    0    0 -0.37731788449E+02  0.48551714463E+02 -0.86463277787E+02  0.16395687007E+03  0.12500000000E+03 0.  0.
         25    1    1    2    0    0 -0.26646718640E+02  0.17701196320E+03  0.15988981251E+02  0.21891534951E+03  0.12500000000E+03 0.  0.
         25    1    1    2    0    0  0.64378507089E+02 -0.22556367767E+03  0.10930662155E+03  0.28739607230E+03  0.12500000000E+03 0.  0.
</event>
<event>
 5    0  0.5670250E-005  0.3430480E+03  0.7546771E-02  0.1065505E+00
         21   -1    0    0  502  501  0.00000000000E+00  0.00000000000E+00  0.10881375487E+04  0.10881375487E+04  0.00000000000E+00 0.  1.
         21   -1    0    0  501  502 -0.00000000000E+00 -0.00000000000E+00 -0.10814987847E+03  0.10814987847E+03  0.00000000000E+00 0.  1.
         25    1    1    2    0    0 -0.76564683534E+02  0.80254094138E+02  0.75081763898E+02  0.18320791921E+03  0.12500000000E+03 0.  0.
         25    1    1    2    0    0  0.50500050671E+02 -0.27720699831E+02  0.48984521505E+02  0.14609303770E+03  0.12500000000E+03 0.  0.
         25    1    1    2    0    0  0.26064632863E+02 -0.52533394308E+02  0.85592138483E+03  0.86698647026E+03  0.12500000000E+03 0.  0.
</event>
<event>
 5    0  0.5670250E-005  0.2768362E+03  0.7546771E-02  0.1097430E+00
         21   -1    0    0  502  501  0.00000000000E+00  0.00000000000E+00  0.25927414765E+03  0.25927414765E+03  0.00000000000E+00 0. -1.
         21   -1    0    0  501  502 -0.00000000000E+00 -0.00000000000E+00 -0.29558785496E+03  0.29558785496E+03  0.00000000000E+00 0. -1.
         25    1    1    2    0    0 -0.17470004405E+02 -0.57775688140E+02  0.12477525517E+03  0.18664698094E+03  0.12500000000E+03 0.  0.
         25    1    1    2    0    0 -0.90448065877E+02  0.20708145832E+02 -0.41917821383E+02  0.16121967521E+03  0.12500000000E+03 0.  0.
         25    1    1    2    0    0  0.10791807028E+03  0.37067542309E+02 -0.11917114109E+03  0.20699534646E+03  0.12500000000E+03 0.  0.
</event>
<event>
 5    0  0.5670250E-005  0.3071004E+03  0.7546771E-02  0.1081744E+00
         21   -1    0    0  502  501  0.00000000000E+00  0.00000000000E+00  0.96393813071E+03  0.96393813071E+03  0.00000000000E+00 0.  1.
         21   -1    0    0  501  502 -0.00000000000E+00 -0.00000000000E+00 -0.97838881895E+02  0.97838881895E+02  0.00000000000E+00 0.  1.
         25    1    1    2    0    0  0.15230936774E+03  0.54349457770E+02  0.36614271633E+03  0.41932981743E+03  0.12500000000E+03 0.  0.
         25    1    1    2    0    0  0.20503218476E+02 -0.34571312619E+02  0.36834289606E+03  0.39104609281E+03  0.12500000000E+03 0.  0.
         25    1    1    2    0    0 -0.17281258621E+03 -0.19778145151E+02  0.13161363642E+03  0.25140110237E+03  0.12500000000E+03 0.  0.
</event>
<event>
 5    0  0.5670250E-005  0.3225426E+03  0.7546771E-02  0.1074485E+00
         21   -1    0    0  502  501  0.00000000000E+00  0.00000000000E+00  0.68823429226E+03  0.68823429226E+03  0.00000000000E+00 0. -1.
         21   -1    0    0  501  502 -0.00000000000E+00 -0.00000000000E+00 -0.15116032095E+03  0.15116032095E+03  0.00000000000E+00 0.  1.
         25    1    1    2    0    0 -0.21811223891E+03  0.28460449328E+02  0.21957171093E+03  0.33499206286E+03  0.12500000000E+03 0.  0.
         25    1    1    2    0    0  0.44580223013E+02  0.26696307588E+02  0.22991273889E+03  0.26680509108E+03  0.12500000000E+03 0.  0.
         25    1    1    2    0    0  0.17353201590E+03 -0.55156756916E+02  0.87589521490E+02  0.23759745927E+03  0.12500000000E+03 0.  0.
</event>
<event>
 5    0  0.5670250E-005  0.2682519E+03  0.7546771E-02  0.1102284E+00
         21   -1    0    0  502  501  0.00000000000E+00  0.00000000000E+00  0.31865061668E+03  0.31865061668E+03  0.00000000000E+00 0. -1.
         21   -1    0    0  501  502 -0.00000000000E+00 -0.00000000000E+00 -0.22582433875E+03  0.22582433875E+03  0.00000000000E+00 0.  1.
         25    1    1    2    0    0  0.40508405304E+02 -0.14543296906E+02  0.46448676016E+02  0.14012465125E+03  0.12500000000E+03 0.  0.
         25    1    1    2    0    0  0.36833440038E+02 -0.13527930792E+03 -0.63367639289E+01  0.18794240616E+03  0.12500000000E+03 0.  0.
         25    1    1    2    0    0 -0.77341845342E+02  0.14982260482E+03  0.52714365845E+02  0.21640789801E+03  0.12500000000E+03 0.  0.
</event>
<event>
 5    0  0.5670250E-005  0.4231946E+03  0.7546771E-02  0.1036032E+00
         21   -1    0    0  502  501  0.00000000000E+00  0.00000000000E+00  0.10363294605E+04  0.10363294605E+04  0.00000000000E+00 0.  1.
         21   -1    0    0  501  502 -0.00000000000E+00 -0.00000000000E+00 -0.17281537558E+03  0.17281537558E+03  0.00000000000E+00 0.  1.
         25    1    1    2    0    0 -0.14629421478E+03  0.10732049173E+03  0.40720098637E+03  0.46298739564E+03  0.12500000000E+03 0.  0.
         25    1    1    2    0    0  0.30744091426E+03 -0.10258723649E+03  0.40924907692E+03  0.53679964960E+03  0.12500000000E+03 0.  0.
         25    1    1    2    0    0 -0.16114669948E+03 -0.47332552445E+01  0.47064021645E+02  0.20935779086E+03  0.12500000000E+03 0.  0.
</event>
<event>
 5    0  0.5670250E-005  0.3628168E+03  0.7546771E-02  0.1057474E+00
         21   -1    0    0  502  501  0.00000000000E+00  0.00000000000E+00  0.10767053793E+04  0.10767053793E+04  0.00000000000E+00 0.  1.
         21   -1    0    0  501  502 -0.00000000000E+00 -0.00000000000E+00 -0.12225814961E+03  0.12225814961E+03  0.00000000000E+00 0.  1.
         25    1    1    2    0    0  0.10273677036E+03  0.20329199670E+02  0.20284159958E+03  0.26026493207E+03  0.12500000000E+03 0.  0.
         25    1    1    2    0    0  0.13128089876E+03 -0.38017688257E+02  0.60988700042E+03  0.63739091010E+03  0.12500000000E+03 0.  0.
         25    1    1    2    0    0 -0.23401766912E+03  0.17688488587E+02  0.14171862971E+03  0.30130768675E+03  0.12500000000E+03 0.  0.
</event>
<event>
 5    0  0.5670250E-005  0.4219419E+03  0.7546771E-02  0.1036436E+00
         21   -1    0    0  502  501  0.00000000000E+00  0.00000000000E+00  0.15002580375E+03  0.15002580375E+03  0.00000000000E+00 0. -1.
         21   -1    0    0  501  502 -0.00000000000E+00 -0.00000000000E+00 -0.11866957885E+04  0.11866957885E+04  0.00000000000E+00 0. -1.
         25    1    1    2    0    0 -0.13365346083E+03 -0.13074859676E+03 -0.29507404198E+03  0.37101500428E+03  0.12500000000E+03 0.  0.
         25    1    1    2    0    0  0.25839101732E+03  0.25763969996E+03 -0.57220488255E+03  0.69006344668E+03  0.12500000000E+03 0.  0.
         25    1    1    2    0    0 -0.12473755649E+03 -0.12689110320E+03 -0.16939106024E+03  0.27564314132E+03  0.12500000000E+03 0.  0.
</event>
<event>
 5    0  0.5670250E-005  0.3198500E+03  0.7546771E-02  0.1075718E+00
         21   -1    0    0  502  501  0.00000000000E+00  0.00000000000E+00  0.77015257726E+02  0.77015257726E+02  0.00000000000E+00 0.  1.
         21   -1    0    0  501  502 -0.00000000000E+00 -0.00000000000E+00 -0.13283606361E+04  0.13283606361E+04  0.00000000000E+00 0.  1.
         25    1    1    2    0    0 -0.27554096942E+02  0.54814878346E+02 -0.87132254198E+02  0.16425872539E+03  0.12500000000E+03 0.  0.
         25    1    1    2    0    0 -0.41675866597E+02 -0.11043791506E+03 -0.10067704423E+04  0.10213447676E+04  0.12500000000E+03 0.  0.
         25    1    1    2    0    0  0.69229963540E+02  0.55623036711E+02 -0.15744268188E+03  0.21977240077E+03  0.12500000000E+03 0.  0.
</event>
<event>
 5    0  0.5670250E-005  0.2442477E+03  0.7546771E-02  0.1116995E+00
         21   -1    0    0  502  501  0.00000000000E+00  0.00000000000E+00  0.28201636510E+02  0.28201636510E+02  0.00000000000E+00 0. -1.
         21   -1    0    0  501  502 -0.00000000000E+00 -0.00000000000E+00 -0.21153713652E+04  0.21153713652E+04  0.00000000000E+00 0. -1.
         25    1    1    2    0    0  0.34433196802E+02 -0.54245048591E+02 -0.11254492196E+04  0.11341909522E+04  0.12500000000E+03 0.  0.
         25    1    1    2    0    0 -0.21761212583E+02  0.10669182355E+03 -0.44011596478E+03  0.47030177337E+03  0.12500000000E+03 0.  0.
         25    1    1    2    0    0 -0.12671984220E+02 -0.52446774955E+02 -0.52160454436E+03  0.53908027610E+03  0.12500000000E+03 0.  0.
</event>
<event>
 5    0  0.5670250E-005  0.2372793E+03  0.7546771E-02  0.1121619E+00
         21   -1    0    0  502  501  0.00000000000E+00  0.00000000000E+00  0.42644423696E+02  0.42644423696E+02  0.00000000000E+00 0. -1.
         21   -1    0    0  501  502 -0.00000000000E+00 -0.00000000000E+00 -0.13202537684E+04  0.13202537684E+04  0.00000000000E+00 0. -1.
         25    1    1    2    0    0 -0.99051461748E+02  0.57085995179E+02 -0.30530592142E+03  0.34915141210E+03  0.12500000000E+03 0.  0.
         25    1    1    2    0    0  0.71476381601E+02 -0.66188815106E+02 -0.54980988219E+03  0.57219379490E+03  0.12500000000E+03 0.  0.
         25    1    1    2    0    0  0.27575080147E+02  0.91028199263E+01 -0.42249354111E+03  0.44155298511E+03  0.12500000000E+03 0.  0.
</event>
<event>
 5    0  0.5670250E-005  0.3492854E+03  0.7546771E-02  0.1062909E+00
         21   -1    0    0  502  501  0.00000000000E+00  0.00000000000E+00  0.31492875290E+03  0.31492875290E+03  0.00000000000E+00 0. -1.
         21   -1    0    0  501  502 -0.00000000000E+00 -0.00000000000E+00 -0.38739011966E+03  0.38739011966E+03  0.00000000000E+00 0. -1.
         25    1    1    2    0    0  0.62686614933E+02 -0.98928333438E+02 -0.56210888439E+02  0.18028058916E+03  0.12500000000E+03 0.  0.
         25    1    1    2    0    0  0.92074679181E+02  0.14684650670E+03  0.14774980693E+03  0.25980117114E+03  0.12500000000E+03 0.  0.
         25    1    1    2    0    0 -0.15476129411E+03 -0.47918173267E+02 -0.16400028525E+03  0.26223711226E+03  0.12500000000E+03 0.  0.
</event>
<event>
 5    0  0.5670250E-005  0.3550432E+03  0.7546771E-02  0.1060564E+00
         21   -1    0    0  502  501  0.00000000000E+00  0.00000000000E+00  0.93747261025E+03  0.93747261025E+03  0.00000000000E+00 0. -1.
         21   -1    0    0  501  502 -0.00000000000E+00 -0.00000000000E+00 -0.13446332929E+03  0.13446332929E+03  0.00000000000E+00 0. -1.
         25    1    1    2    0    0  0.21008013207E+02 -0.51258477412E+02  0.43519657540E+03  0.45616863917E+03  0.12500000000E+03 0.  0.
         25    1    1    2    0    0  0.89690660518E+02  0.18506776222E+03  0.73006722440E+02  0.25149447850E+03  0.12500000000E+03 0.  0.
         25    1    1    2    0    0 -0.11069867372E+03 -0.13380928480E+03  0.29480598312E+03  0.36427282186E+03  0.12500000000E+03 0.  0.
</event>
<event>
 5    0  0.6449915E-005  0.3298062E+03  0.7546771E-02  0.1071223E+00
         21   -1    0    0  502  501  0.00000000000E+00  0.00000000000E+00  0.15141091551E+03  0.15141091551E+03  0.00000000000E+00 0. -1.
         21   -1    0    0  501  502 -0.00000000000E+00 -0.00000000000E+00 -0.71839030204E+03  0.71839030204E+03  0.00000000000E+00 0. -1.
         25    1    1    2    0    0  0.74227750525E+01 -0.13502350023E+03 -0.63638654032E+02  0.19483665336E+03  0.12500000000E+03 0.  0.
         25    1    1    2    0    0  0.46713469224E+02 -0.85024092109E+02 -0.32255612078E+03  0.35927523641E+03  0.12500000000E+03 0.  0.
         25    1    1    2    0    0 -0.54136244276E+02  0.22004759234E+03 -0.18078461173E+03  0.31568932779E+03  0.12500000000E+03 0.  0.
</event>
<event>
 5    0  0.5670250E-005  0.5046592E+03  0.7546771E-02  0.1012570E+00
         21   -1    0    0  502  501  0.00000000000E+00  0.00000000000E+00  0.12046276587E+04  0.12046276587E+04  0.00000000000E+00 0.  1.
         21   -1    0    0  501  502 -0.00000000000E+00 -0.00000000000E+00 -0.21141880973E+03  0.21141880973E+03  0.00000000000E+00 0. -1.
         25    1    1    2    0    0  0.42557912368E+02 -0.34550521183E+03  0.64883349370E+03  0.74685669968E+03  0.12500000000E+03 0.  0.
         25    1    1    2    0    0 -0.13135486745E+02  0.35561481489E+03  0.38013832176E+03  0.53550404411E+03  0.12500000000E+03 0.  0.
         25    1    1    2    0    0 -0.29422425623E+02 -0.10109603059E+02 -0.35762966489E+02  0.13368572465E+03  0.12500000000E+03 0.  0.
</event>
<event>
 5    0  0.5670250E-005  0.6707243E+03  0.7546771E-02  0.9768650E-01
         21   -1    0    0  502  501  0.00000000000E+00  0.00000000000E+00  0.40047812890E+03  0.40047812890E+03  0.00000000000E+00 0. -1.
         21   -1    0    0  501  502 -0.00000000000E+00 -0.00000000000E+00 -0.11233348715E+04  0.11233348715E+04  0.00000000000E+00 0. -1.
         25    1    1    2    0    0 -0.17349903348E+03 -0.31029088338E+02 -0.52647605989E+02  0.22239939154E+03  0.12500000000E+03 0.  0.
         25    1    1    2    0    0 -0.18638522892E+03 -0.80333800651E+02  0.22147712620E+03  0.32537684385E+03  0.12500000000E+03 0.  0.
         25    1    1    2    0    0  0.35988426240E+03  0.11136288899E+03 -0.89168626278E+03  0.97603676498E+03  0.12500000000E+03 0.  0.
</event>
<event>
 5    0  0.5670250E-005  0.2965380E+03  0.7546771E-02  0.1086984E+00
         21   -1    0    0  502  501  0.00000000000E+00  0.00000000000E+00  0.13399626264E+04  0.13399626264E+04  0.00000000000E+00 0. -1.
         21   -1    0    0  501  502 -0.00000000000E+00 -0.00000000000E+00 -0.65624784101E+02  0.65624784101E+02  0.00000000000E+00 0. -1.
         25    1    1    2    0    0 -0.48753811150E+02 -0.46519734142E+02  0.74274732946E+03  0.75620077704E+03  0.12500000000E+03 0.  0.
         25    1    1    2    0    0 -0.19543435743E+02 -0.10519863474E+03  0.24842235078E+03  0.29797208426E+03  0.12500000000E+03 0.  0.
         25    1    1    2    0    0  0.68297246893E+02  0.15171836888E+03  0.28316816205E+03  0.35141454920E+03  0.12500000000E+03 0.  0.
</event>
<event>
 5    0  0.5670250E-005  0.2079192E+03  0.7546771E-02  0.1143224E+00
         21   -1    0    0  502  501  0.00000000000E+00  0.00000000000E+00  0.32318441145E+03  0.32318441145E+03  0.00000000000E+00 0. -1.
         21   -1    0    0  501  502 -0.00000000000E+00 -0.00000000000E+00 -0.13376391311E+03  0.13376391311E+03  0.00000000000E+00 0. -1.
         25    1    1    2    0    0  0.44176554990E+02  0.27767957002E+02  0.33511845732E+02  0.13953734716E+03  0.12500000000E+03 0.  0.
         25    1    1    2    0    0 -0.45705641632E+02  0.27451688167E+02  0.51097328927E+02  0.14518449602E+03  0.12500000000E+03 0.  0.
         25    1    1    2    0    0  0.15290866422E+01 -0.55219645168E+02  0.10481132368E+03  0.17222648139E+03  0.12500000000E+03 0.  0.
</event>
<event>
 5    0  0.5670250E-005  0.3350602E+03  0.7546771E-02  0.1068920E+00
         21   -1    0    0  502  501  0.00000000000E+00  0.00000000000E+00  0.45306171497E+02  0.45306171497E+02  0.00000000000E+00 0.  1.
         21   -1    0    0  501  502 -0.00000000000E+00 -0.00000000000E+00 -0.24779265196E+04  0.24779265196E+04  0.00000000000E+00 0.  1.
         25    1    1    2    0    0 -0.13122720893E+03  0.30946863870E+02 -0.10573345623E+04  0.10732006641E+04  0.12500000000E+03 0.  0.
         25    1    1    2    0    0  0.14301159239E+02  0.15746021713E+03 -0.69697862212E+03  0.72553596936E+03  0.12500000000E+03 0.  0.
         25    1    1    2    0    0  0.11692604969E+03 -0.18840708100E+03 -0.67830716367E+03  0.72449605765E+03  0.12500000000E+03 0.  0.
</event>
<event>
 5    0  0.5670250E-005  0.2286229E+03  0.7546771E-02  0.1127613E+00
         21   -1    0    0  502  501  0.00000000000E+00  0.00000000000E+00  0.65636329143E+02  0.65636329143E+02  0.00000000000E+00 0. -1.
         21   -1    0    0  501  502 -0.00000000000E+00 -0.00000000000E+00 -0.79633417548E+03  0.79633417548E+03  0.00000000000E+00 0. -1.
         25    1    1    2    0    0  0.17615885930E+02  0.46788945825E+02 -0.15073203880E+03  0.20210064921E+03  0.12500000000E+03 0.  0.
         25    1    1    2    0    0  0.57967893166E+02 -0.86853075614E+02 -0.28376848729E+03  0.32718998726E+03  0.12500000000E+03 0.  0.
         25    1    1    2    0    0 -0.75583779097E+02  0.40064129789E+02 -0.29619732024E+03  0.33267986815E+03  0.12500000000E+03 0.  0.
</event>
<event>
 5    0  0.6338891E-005  0.3749714E+03  0.7546771E-02  0.1052808E+00
         21   -1    0    0  502  501  0.00000000000E+00  0.00000000000E+00  0.66135773410E+03  0.66135773410E+03  0.00000000000E+00 0. -1.
         21   -1    0    0  501  502 -0.00000000000E+00 -0.00000000000E+00 -0.21259828720E+03  0.21259828720E+03  0.00000000000E+00 0. -1.
         25    1    1    2    0    0  0.10908719494E+02  0.22421682926E+03  0.64614362696E+02  0.26493811080E+03  0.12500000000E+03 0.  0.
         25    1    1    2    0    0 -0.38179432266E+01 -0.18124719906E+03  0.19471808320E+02  0.22106396173E+03  0.12500000000E+03 0.  0.
         25    1    1    2    0    0 -0.70907762679E+01 -0.42969630206E+02  0.36467327588E+03  0.38795394878E+03  0.12500000000E+03 0.  0.
</event>
<event>
 5    0  0.5670250E-005  0.3081452E+03  0.7546771E-02  0.1081238E+00
         21   -1    0    0  502  501  0.00000000000E+00  0.00000000000E+00  0.19812074311E+04  0.19812074311E+04  0.00000000000E+00 0.  1.
         21   -1    0    0  501  502 -0.00000000000E+00 -0.00000000000E+00 -0.47927071781E+02  0.47927071781E+02  0.00000000000E+00 0.  1.
         25    1    1    2    0    0  0.23259763859E+02  0.10747753128E+02  0.20229985210E+03  0.23917934897E+03  0.12500000000E+03 0.  0.
         25    1    1    2    0    0 -0.53560538161E+02 -0.67503216578E+02  0.19298472063E+03  0.24554738421E+03  0.12500000000E+03 0.  0.
         25    1    1    2    0    0  0.30300774302E+02  0.56755463450E+02  0.15379957866E+04  0.15444077697E+04  0.12500000000E+03 0.  0.
</event>
<event>
 5    0  0.5670250E-005  0.2210622E+03  0.7546771E-02  0.1133094E+00
         21   -1    0    0  502  501  0.00000000000E+00  0.00000000000E+00  0.42206587798E+03  0.42206587798E+03  0.00000000000E+00 0.  1.
         21   -1    0    0  501  502 -0.00000000000E+00 -0.00000000000E+00 -0.11578402852E+03  0.11578402852E+03  0.00000000000E+00 0.  1.
         25    1    1    2    0    0  0.84670377075E+01 -0.33547329171E+02  0.19387076055E+02  0.13114104140E+03  0.12500000000E+03 0.  0.
         25    1    1    2    0    0 -0.30947974595E+02 -0.44051312640E+02  0.10634302064E+03  0.17271981159E+03  0.12500000000E+03 0.  0.
         25    1    1    2    0    0  0.22480936888E+02  0.77598641811E+02  0.18055175277E+03  0.23398905351E+03  0.12500000000E+03 0.  0.
</event>
<event>
 5    0  0.5670250E-005  0.3137306E+03  0.7546771E-02  0.1078571E+00
         21   -1    0    0  502  501  0.00000000000E+00  0.00000000000E+00  0.10521071666E+03  0.10521071666E+03  0.00000000000E+00 0.  1.
         21   -1    0    0  501  502 -0.00000000000E+00 -0.00000000000E+00 -0.93552165956E+03  0.93552165956E+03  0.00000000000E+00 0.  1.
         25    1    1    2    0    0  0.16892899679E+03  0.73907698874E+02 -0.19549620983E+03  0.29638340367E+03  0.12500000000E+03 0.  0.
         25    1    1    2    0    0 -0.89374822117E+02 -0.12363366782E+03 -0.50162788812E+03  0.53900712498E+03  0.12500000000E+03 0.  0.
         25    1    1    2    0    0 -0.79554174674E+02  0.49725968944E+02 -0.13318684494E+03  0.20534184757E+03  0.12500000000E+03 0.  0.
</event>
<event>
 5    0  0.5670250E-005  0.3536370E+03  0.7546771E-02  0.1061132E+00
         21   -1    0    0  502  501  0.00000000000E+00  0.00000000000E+00  0.12202746173E+04  0.12202746173E+04  0.00000000000E+00 0.  1.
         21   -1    0    0  501  502 -0.00000000000E+00 -0.00000000000E+00 -0.10248438996E+03  0.10248438996E+03  0.00000000000E+00 0.  1.
         25    1    1    2    0    0  0.10996732488E+03  0.18721933075E+03  0.26378562532E+03  0.36380179559E+03  0.12500000000E+03 0.  0.
         25    1    1    2    0    0 -0.17916535032E+03 -0.28348006308E+02  0.38486656228E+03  0.44345360860E+03  0.12500000000E+03 0.  0.
         25    1    1    2    0    0  0.69198025440E+02 -0.15887132445E+03  0.46913803978E+03  0.51550360311E+03  0.12500000000E+03 0.  0.
</event>
<event>
 5    0  0.6488762E-005  0.2997167E+03  0.7546771E-02  0.1085382E+00
         21   -1    0    0  502  501  0.00000000000E+00  0.00000000000E+00  0.56211056711E+03  0.56211056711E+03  0.00000000000E+00 0. -1.
         21   -1    0    0  501  502 -0.00000000000E+00 -0.00000000000E+00 -0.15980855458E+03  0.15980855458E+03  0.00000000000E+00 0. -1.
         25    1    1    2    0    0  0.56138032922E+02  0.73973857129E+02  0.56334731157E+02  0.16559653442E+03  0.12500000000E+03 0.  0.
         25    1    1    2    0    0 -0.17593352406E+03 -0.94587635646E+01  0.29316535224E+03  0.36416067450E+03  0.12500000000E+03 0.  0.
         25    1    1    2    0    0  0.11979549114E+03 -0.64515093564E+02  0.52801929126E+02  0.19216191276E+03  0.12500000000E+03 0.  0.
</event>
<event>
 5    0  0.5670250E-005  0.2737348E+03  0.7546771E-02  0.1099161E+00
         21   -1    0    0  502  501  0.00000000000E+00  0.00000000000E+00  0.22941654937E+04  0.22941654937E+04  0.00000000000E+00 0. -1.
         21   -1    0    0  501  502 -0.00000000000E+00 -0.00000000000E+00 -0.32661425382E+02  0.32661425382E+02  0.00000000000E+00 0. -1.
         25    1    1    2    0    0 -0.11189712958E+03 -0.10190964309E+03  0.14426991318E+04  0.14559918708E+04  0.12500000000E+03 0.  0.
         25    1    1    2    0    0  0.62613918136E+02  0.43833474430E+02  0.47728647327E+03  0.49926871902E+03  0.12500000000E+03 0.  0.
         25    1    1    2    0    0  0.49283211442E+02  0.58076168665E+02  0.34151846327E+03  0.37156632927E+03  0.12500000000E+03 0.  0.
</event>
<event>
 5    0  0.5670250E-005  0.2834002E+03  0.7546771E-02  0.1093846E+00
         21   -1    0    0  502  501  0.00000000000E+00  0.00000000000E+00  0.11689702868E+04  0.11689702868E+04  0.00000000000E+00 0.  1.
         21   -1    0    0  501  502 -0.00000000000E+00 -0.00000000000E+00 -0.68706336209E+02  0.68706336209E+02  0.00000000000E+00 0.  1.
         25    1    1    2    0    0 -0.70762160558E+02 -0.12628813552E+03  0.51734075517E+03  0.55156362598E+03  0.12500000000E+03 0.  0.
         25    1    1    2    0    0 -0.59449275944E+02  0.11544151509E+03  0.26806748926E+03  0.32302652927E+03  0.12500000000E+03 0.  0.
         25    1    1    2    0    0  0.13021143650E+03  0.10846620439E+02  0.31485570619E+03  0.36308646779E+03  0.12500000000E+03 0.  0.
</event>
<event>
 5    0  0.5670250E-005  0.3884712E+03  0.7546771E-02  0.1047846E+00
         21   -1    0    0  502  501  0.00000000000E+00  0.00000000000E+00  0.87521636513E+03  0.87521636513E+03  0.00000000000E+00 0.  1.
         21   -1    0    0  501  502 -0.00000000000E+00 -0.00000000000E+00 -0.17242576443E+03  0.17242576443E+03  0.00000000000E+00 0.  1.
         25    1    1    2    0    0 -0.49403630960E+02 -0.13618907463E+03  0.32894449511E+03  0.38054916064E+03  0.12500000000E+03 0.  0.
         25    1    1    2    0    0 -0.75469920764E+02  0.28568143819E+03  0.20790955225E+03  0.38231005085E+03  0.12500000000E+03 0.  0.
         25    1    1    2    0    0  0.12487355172E+03 -0.14949236356E+03  0.16593655335E+03  0.28478291806E+03  0.12500000000E+03 0.  0.
</event>
<event>
 5    0  0.5670250E-005  0.2399839E+03  0.7546771E-02  0.1119804E+00
         21   -1    0    0  502  501  0.00000000000E+00  0.00000000000E+00  0.12212017144E+03  0.12212017144E+03  0.00000000000E+00 0. -1.
         21   -1    0    0  501  502 -0.00000000000E+00 -0.00000000000E+00 -0.47160330122E+03  0.47160330122E+03  0.00000000000E+00 0. -1.
         25    1    1    2    0    0  0.59419093708E+02  0.11070212211E+03 -0.14036445648E+03  0.22608133311E+03  0.12500000000E+03 0.  0.
         25    1    1    2    0    0 -0.32434213380E+02 -0.65821797512E+02 -0.38929183165E+02  0.15008320535E+03  0.12500000000E+03 0.  0.
         25    1    1    2    0    0 -0.26984880328E+02 -0.44880324601E+02 -0.17018949013E+03  0.21755893421E+03  0.12500000000E+03 0.  0.
</event>
<event>
 5    0  0.7537112E-005  0.3531937E+03  0.7546771E-02  0.1061312E+00
         21   -1    0    0  502  501  0.00000000000E+00  0.00000000000E+00  0.71321999294E+03  0.71321999294E+03  0.00000000000E+00 0. -1.
         21   -1    0    0  501  502 -0.00000000000E+00 -0.00000000000E+00 -0.17490505290E+03  0.17490505290E+03  0.00000000000E+00 0. -1.
         25    1    1    2    0    0 -0.15764128301E+03  0.14679500179E+03  0.37346268633E+03  0.44888631605E+03  0.12500000000E+03 0.  0.
         25    1    1    2    0    0  0.14435415792E+03 -0.16008317238E+03  0.18617537425E+03  0.31104825183E+03  0.12500000000E+03 0.  0.
         25    1    1    2    0    0  0.13287125093E+02  0.13288170596E+02 -0.21323120537E+02  0.12819047796E+03  0.12500000000E+03 0.  0.
</event>
<event>
 5    0  0.5670250E-005  0.2030236E+03  0.7546771E-02  0.1147213E+00
         21   -1    0    0  502  501  0.00000000000E+00  0.00000000000E+00  0.38851900244E+03  0.38851900244E+03  0.00000000000E+00 0.  1.
         21   -1    0    0  501  502 -0.00000000000E+00 -0.00000000000E+00 -0.10609149988E+03  0.10609149988E+03  0.00000000000E+00 0.  1.
         25    1    1    2    0    0  0.14959203709E+02 -0.37313566259E+02  0.67880144797E+02  0.14781337578E+03  0.12500000000E+03 0.  0.
         25    1    1    2    0    0  0.31372874147E+02  0.15076281684E+02  0.14575734833E+03  0.19514547418E+03  0.12500000000E+03 0.  0.
         25    1    1    2    0    0 -0.46332077856E+02  0.22237284575E+02  0.68790009437E+02  0.15165165236E+03  0.12500000000E+03 0.  0.
</event>
<event>
 5    0  0.5670250E-005  0.3155106E+03  0.7546771E-02  0.1077734E+00
         21   -1    0    0  502  501  0.00000000000E+00  0.00000000000E+00  0.87115401410E+03  0.87115401410E+03  0.00000000000E+00 0.  1.
         21   -1    0    0  501  502 -0.00000000000E+00 -0.00000000000E+00 -0.11427022906E+03  0.11427022906E+03  0.00000000000E+00 0.  1.
         25    1    1    2    0    0  0.10705166856E+02  0.12653744833E+03  0.21824464191E+03  0.28174820346E+03  0.12500000000E+03 0.  0.
         25    1    1    2    0    0 -0.44471817420E+02  0.73908546672E+02  0.39961915171E+03  0.42750518387E+03  0.12500000000E+03 0.  0.
         25    1    1    2    0    0  0.33766650563E+02 -0.20044599500E+03  0.13901999141E+03  0.27617085584E+03  0.12500000000E+03 0.  0.
</event>
<event>
 5    0  0.5670250E-005  0.2298114E+03  0.7546771E-02  0.1126773E+00
         21   -1    0    0  502  501  0.00000000000E+00  0.00000000000E+00  0.17228547648E+03  0.17228547648E+03  0.00000000000E+00 0. -1.
         21   -1    0    0  501  502 -0.00000000000E+00 -0.00000000000E+00 -0.30654527207E+03  0.30654527207E+03  0.00000000000E+00 0. -1.
         25    1    1    2    0    0 -0.52450704004E+02 -0.11790175577E+02 -0.13736146603E+03  0.19334750306E+03  0.12500000000E+03 0.  0.
         25    1    1    2    0    0 -0.20109439881E+02  0.43078177809E+02 -0.21859545907E+02  0.13550999492E+03  0.12500000000E+03 0.  0.
         25    1    1    2    0    0  0.72560143885E+02 -0.31288002232E+02  0.24961216342E+02  0.14997325057E+03  0.12500000000E+03 0.  0.
</event>
<event>
 5    0  0.5670250E-005  0.2637405E+03  0.7546771E-02  0.1104916E+00
         21   -1    0    0  502  501  0.00000000000E+00  0.00000000000E+00  0.28275503283E+03  0.28275503283E+03  0.00000000000E+00 0. -1.
         21   -1    0    0  501  502 -0.00000000000E+00 -0.00000000000E+00 -0.24600457253E+03  0.24600457253E+03  0.00000000000E+00 0. -1.
         25    1    1    2    0    0 -0.81781541730E+02  0.24885329278E+02  0.35358428504E+02  0.15550793757E+03  0.12500000000E+03 0.  0.
         25    1    1    2    0    0  0.16530638009E+03  0.26320013527E+02 -0.30897444092E+02  0.21118379309E+03  0.12500000000E+03 0.  0.
         25    1    1    2    0    0 -0.83524838364E+02 -0.51205342805E+02  0.32289475886E+02  0.16206787470E+03  0.12500000000E+03 0.  0.
</event>
<event>
 5    0  0.5670250E-005  0.5282411E+03  0.7546771E-02  0.1006660E+00
         21   -1    0    0  502  501  0.00000000000E+00  0.00000000000E+00  0.71822139234E+03  0.71822139234E+03  0.00000000000E+00 0. -1.
         21   -1    0    0  501  502 -0.00000000000E+00 -0.00000000000E+00 -0.38851337263E+03  0.38851337263E+03  0.00000000000E+00 0. -1.
         25    1    1    2    0    0 -0.87135090820E+02  0.13939288196E+03  0.19631342783E+03  0.28493308256E+03  0.12500000000E+03 0.  0.
         25    1    1    2    0    0 -0.76312991166E+02  0.90370659771E+02  0.38632508527E+03  0.42292150604E+03  0.12500000000E+03 0.  0.
         25    1    1    2    0    0  0.16344808199E+03 -0.22976354173E+03 -0.25293049338E+03  0.39888017636E+03  0.12500000000E+03 0.  0.
</event>
<event>
 5    0  0.5670250E-005  0.2264722E+03  0.7546771E-02  0.1129148E+00
         21   -1    0    0  502  501  0.00000000000E+00  0.00000000000E+00  0.20262952479E+02  0.20262952479E+02  0.00000000000E+00 0. -1.
         21   -1    0    0  501  502 -0.00000000000E+00 -0.00000000000E+00 -0.25312024609E+04  0.25312024609E+04  0.00000000000E+00 0. -1.
         25    1    1    2    0    0 -0.16238582320E+02  0.24245416380E+02 -0.80514536340E+03  0.81531318399E+03  0.12500000000E+03 0.  0.
         25    1    1    2    0    0  0.52414337241E+02 -0.59474385015E+02 -0.46341862399E+03  0.48648359303E+03  0.12500000000E+03 0.  0.
         25    1    1    2    0    0 -0.36175754921E+02  0.35228968636E+02 -0.12423755210E+04  0.12496686363E+04  0.12500000000E+03 0.  0.
</event>
<event>
 5    0  0.5670250E-005  0.2126517E+03  0.7546771E-02  0.1139483E+00
         21   -1    0    0  502  501  0.00000000000E+00  0.00000000000E+00  0.56865834011E+02  0.56865834011E+02  0.00000000000E+00 0.  1.
         21   -1    0    0  501  502 -0.00000000000E+00 -0.00000000000E+00 -0.79521803133E+03  0.79521803133E+03  0.00000000000E+00 0.  1.
         25    1    1    2    0    0  0.15762678807E+02 -0.13322503310E+02 -0.28056213599E+03  0.30784097078E+03  0.12500000000E+03 0.  0.
         25    1    1    2    0    0 -0.84000666977E+02  0.17450553764E+02 -0.22491032712E+03  0.27123843593E+03  0.12500000000E+03 0.  0.
         25    1    1    2    0    0  0.68237988169E+02 -0.41280504542E+01 -0.23287973421E+03  0.27300445863E+03  0.12500000000E+03 0.  0.
</event>
<event>
 5    0  0.5670250E-005  0.2547227E+03  0.7546771E-02  0.1110356E+00
         21   -1    0    0  502  501  0.00000000000E+00  0.00000000000E+00  0.48362594490E+03  0.48362594490E+03  0.00000000000E+00 0. -1.
         21   -1    0    0  501  502 -0.00000000000E+00 -0.00000000000E+00 -0.13416084617E+03  0.13416084617E+03  0.00000000000E+00 0. -1.
         25    1    1    2    0    0  0.75937439877E+00 -0.14946307010E+03  0.15000168275E+03  0.24589691092E+03  0.12500000000E+03 0.  0.
         25    1    1    2    0    0  0.30629172454E+01  0.11953633085E+02  0.10322232241E+03  0.16257957636E+03  0.12500000000E+03 0.  0.
         25    1    1    2    0    0 -0.38222916442E+01  0.13750943701E+03  0.96241093573E+02  0.20931030379E+03  0.12500000000E+03 0.  0.
</event>
<event>
 5    0  0.5670250E-005  0.2915297E+03  0.7546771E-02  0.1089553E+00
         21   -1    0    0  502  501  0.00000000000E+00  0.00000000000E+00  0.13576530275E+03  0.13576530275E+03  0.00000000000E+00 0.  1.
         21   -1    0    0  501  502 -0.00000000000E+00 -0.00000000000E+00 -0.62600363139E+03  0.62600363139E+03  0.00000000000E+00 0.  1.
         25    1    1    2    0    0  0.13375278621E+02  0.24205036788E+02 -0.13656652512E+02  0.12874892637E+03  0.12500000000E+03 0.  0.
         25    1    1    2    0    0 -0.53912447428E+02  0.14718218650E+03 -0.22008130718E+03  0.29770779261E+03  0.12500000000E+03 0.  0.
         25    1    1    2    0    0  0.40537168807E+02 -0.17138722329E+03 -0.25650036895E+03  0.33531221515E+03  0.12500000000E+03 0.  0.
</event>
<event>
 5    0  0.5670250E-005  0.4652486E+03  0.7546771E-02  0.1023270E+00
         21   -1    0    0  502  501  0.00000000000E+00  0.00000000000E+00  0.37385663311E+03  0.37385663311E+03  0.00000000000E+00 0.  1.
         21   -1    0    0  501  502 -0.00000000000E+00 -0.00000000000E+00 -0.57898196302E+03  0.57898196302E+03  0.00000000000E+00 0.  1.
         25    1    1    2    0    0  0.19423633773E+03 -0.18311423882E+03  0.39674473149E+02  0.29741829663E+03  0.12500000000E+03 0.  0.
         25    1    1    2    0    0  0.12807112049E+03  0.15385159696E+03 -0.19252288435E+03  0.30456951061E+03  0.12500000000E+03 0.  0.
         25    1    1    2    0    0 -0.32230745822E+03  0.29262641857E+02 -0.52276918713E+02  0.35085078889E+03  0.12500000000E+03 0.  0.
</event>
<event>
 5    0  0.5670250E-005  0.3058999E+03  0.7546771E-02  0.1082328E+00
         21   -1    0    0  502  501  0.00000000000E+00  0.00000000000E+00  0.22271086903E+03  0.22271086903E+03  0.00000000000E+00 0. -1.
         21   -1    0    0  501  502 -0.00000000000E+00 -0.00000000000E+00 -0.42016245471E+03  0.42016245471E+03  0.00000000000E+00 0. -1.
         25    1    1    2    0    0  0.18143005779E+03 -0.55269838789E+02 -0.13415067218E+03  0.26380489722E+03  0.12500000000E+03 0.  0.
         25    1    1    2    0    0 -0.13410925843E+02  0.76038568004E+02 -0.81191069968E+02  0.16786514408E+03  0.12500000000E+03 0.  0.
         25    1    1    2    0    0 -0.16801913195E+03 -0.20768729214E+02  0.17890156475E+02  0.21120328244E+03  0.12500000000E+03 0.  0.
</event>
<event>
 5    0  0.5670250E-005  0.2383967E+03  0.7546771E-02  0.1120866E+00
         21   -1    0    0  502  501  0.00000000000E+00  0.00000000000E+00  0.47977645370E+03  0.47977645370E+03  0.00000000000E+00 0. -1.
         21   -1    0    0  501  502 -0.00000000000E+00 -0.00000000000E+00 -0.11845721201E+03  0.11845721201E+03  0.00000000000E+00 0. -1.
         25    1    1    2    0    0  0.14450394576E+02  0.81692011268E+02  0.11004460502E+03  0.18605701734E+03  0.12500000000E+03 0.  0.
         25    1    1    2    0    0 -0.73117084951E+02 -0.17208165723E+02  0.20749308167E+03  0.25361507846E+03  0.12500000000E+03 0.  0.
         25    1    1    2    0    0  0.58666690376E+02 -0.64483845545E+02  0.43781554995E+02  0.15856156991E+03  0.12500000000E+03 0.  0.
</event>
<event>
 5    0  0.5670250E-005  0.2635365E+03  0.7546771E-02  0.1105037E+00
         21   -1    0    0  502  501  0.00000000000E+00  0.00000000000E+00  0.21547633528E+03  0.21547633528E+03  0.00000000000E+00 0.  1.
         21   -1    0    0  501  502 -0.00000000000E+00 -0.00000000000E+00 -0.32231598006E+03  0.32231598006E+03  0.00000000000E+00 0.  1.
         25    1    1    2    0    0 -0.86690950464E+02  0.14888526361E+03 -0.16755219246E+02  0.21351318457E+03  0.12500000000E+03 0.  0.
         25    1    1    2    0    0  0.48544824034E+02 -0.10049897994E+03 -0.21478020498E+02  0.16894659000E+03  0.12500000000E+03 0.  0.
         25    1    1    2    0    0  0.38146126430E+02 -0.48386283677E+02 -0.68606405041E+02  0.15533254077E+03  0.12500000000E+03 0.  0.
</event>
<event>
 5    0  0.5670250E-005  0.4137000E+03  0.7546771E-02  0.1039136E+00
         21   -1    0    0  502  501  0.00000000000E+00  0.00000000000E+00  0.17046238853E+03  0.17046238853E+03  0.00000000000E+00 0.  1.
         21   -1    0    0  501  502 -0.00000000000E+00 -0.00000000000E+00 -0.10040204179E+04  0.10040204179E+04  0.00000000000E+00 0.  1.
         25    1    1    2    0    0  0.10490774986E+03  0.12186502506E+03 -0.71469225589E+03  0.74314651378E+03  0.12500000000E+03 0.  0.
         25    1    1    2    0    0  0.37241464017E+01 -0.14209281609E+03 -0.17249200239E+03  0.25609125041E+03  0.12500000000E+03 0.  0.
         25    1    1    2    0    0 -0.10863189626E+03  0.20227791034E+02  0.53626228870E+02  0.17524504226E+03  0.12500000000E+03 0.  0.
</event>
<event>
 5    0  0.5670250E-005  0.2463663E+03  0.7546771E-02  0.1115623E+00
         21   -1    0    0  502  501  0.00000000000E+00  0.00000000000E+00  0.50640090033E+03  0.50640090033E+03  0.00000000000E+00 0.  1.
         21   -1    0    0  501  502 -0.00000000000E+00 -0.00000000000E+00 -0.11985834976E+03  0.11985834976E+03  0.00000000000E+00 0.  1.
         25    1    1    2    0    0  0.79398629766E+02  0.74207938752E+02  0.26833852272E+03  0.31534350058E+03  0.12500000000E+03 0.  0.
         25    1    1    2    0    0 -0.31634955115E+02 -0.64245286349E+02  0.21821559044E+02  0.14570314905E+03  0.12500000000E+03 0.  0.
         25    1    1    2    0    0 -0.47763674651E+02 -0.99626524026E+01  0.96382468806E+02  0.16521260046E+03  0.12500000000E+03 0.  0.
</event>
<event>
 5    0  0.5670250E-005  0.2741345E+03  0.7546771E-02  0.1098936E+00
         21   -1    0    0  502  501  0.00000000000E+00  0.00000000000E+00  0.22584821754E+04  0.22584821754E+04  0.00000000000E+00 0. -1.
         21   -1    0    0  501  502 -0.00000000000E+00 -0.00000000000E+00 -0.33274443188E+02  0.33274443188E+02  0.00000000000E+00 0. -1.
         25    1    1    2    0    0  0.12586622266E+03 -0.15825876877E+02  0.46779984479E+03  0.50055415209E+03  0.12500000000E+03 0.  0.
         25    1    1    2    0    0 -0.17624380287E+02  0.98417562158E+02  0.73584755706E+03  0.75305594915E+03  0.12500000000E+03 0.  0.
         25    1    1    2    0    0 -0.10824184237E+03 -0.82591685281E+02  0.10215603304E+04  0.10381465174E+04  0.12500000000E+03 0.  0.
</event>
<event>
 5    0  0.5670250E-005  0.4094072E+03  0.7546771E-02  0.1040570E+00
         21   -1    0    0  502  501  0.00000000000E+00  0.00000000000E+00  0.30787271017E+03  0.30787271017E+03  0.00000000000E+00 0. -1.
         21   -1    0    0  501  502 -0.00000000000E+00 -0.00000000000E+00 -0.54442705184E+03  0.54442705184E+03  0.00000000000E+00 0. -1.
         25    1    1    2    0    0  0.15482989320E+03  0.12229742885E+03 -0.37916097630E+03  0.44532797227E+03  0.12500000000E+03 0.  0.
         25    1    1    2    0    0 -0.45906563091E+02 -0.15766334529E+03  0.44551587636E+02  0.21112789238E+03  0.12500000000E+03 0.  0.
         25    1    1    2    0    0 -0.10892333011E+03  0.35365916433E+02  0.98055047005E+02  0.19584389736E+03  0.12500000000E+03 0.  0.
</event>
<event>
 5    0  0.6249732E-005  0.3530721E+03  0.7546771E-02  0.1061361E+00
         21   -1    0    0  502  501  0.00000000000E+00  0.00000000000E+00  0.40532508964E+03  0.40532508964E+03  0.00000000000E+00 0. -1.
         21   -1    0    0  501  502 -0.00000000000E+00 -0.00000000000E+00 -0.30755535630E+03  0.30755535630E+03  0.00000000000E+00 0. -1.
         25    1    1    2    0    0  0.65839348911E+02 -0.13142145623E+03  0.16333059935E+03  0.25280091713E+03  0.12500000000E+03 0.  0.
         25    1    1    2    0    0 -0.32494506871E+02  0.17817813371E+02 -0.20198670544E+03  0.24041005932E+03  0.12500000000E+03 0.  0.
         25    1    1    2    0    0 -0.33344842040E+02  0.11360364285E+03  0.13642583943E+03  0.21966946949E+03  0.12500000000E+03 0.  0.
</event>
<event>
 5    0  0.5670250E-005  0.3867532E+03  0.7546771E-02  0.1048466E+00
         21   -1    0    0  502  501  0.00000000000E+00  0.00000000000E+00  0.11493093202E+04  0.11493093202E+04  0.00000000000E+00 0.  1.
         21   -1    0    0  501  502 -0.00000000000E+00 -0.00000000000E+00 -0.13014600194E+03  0.13014600194E+03  0.00000000000E+00 0.  1.
         25    1    1    2    0    0  0.11956022074E+03 -0.98809995033E+02  0.19714858736E+03  0.28026884771E+03  0.12500000000E+03 0.  0.
         25    1    1    2    0    0 -0.18627693467E+02  0.25184334702E+03  0.21969931766E+03  0.35730218665E+03  0.12500000000E+03 0.  0.
         25    1    1    2    0    0 -0.10093252727E+03 -0.15303335199E+03  0.60231541321E+03  0.64188428776E+03  0.12500000000E+03 0.  0.
</event>
<event>
 5    0  0.5670250E-005  0.2940444E+03  0.7546771E-02  0.1088256E+00
         21   -1    0    0  502  501  0.00000000000E+00  0.00000000000E+00  0.11053603391E+04  0.11053603391E+04  0.00000000000E+00 0. -1.
         21   -1    0    0  501  502 -0.00000000000E+00 -0.00000000000E+00 -0.78220722325E+02  0.78220722325E+02  0.00000000000E+00 0. -1.
         25    1    1    2    0    0  0.23695992214E+02  0.18410338649E+03  0.50899534275E+03  0.55601871902E+03  0.12500000000E+03 0.  0.
         25    1    1    2    0    0  0.54484121515E+02 -0.13567722956E+03  0.22616105343E+03  0.29690175514E+03  0.12500000000E+03 0.  0.
         25    1    1    2    0    0 -0.78180113729E+02 -0.48426156930E+02  0.29198322058E+03  0.33066058724E+03  0.12500000000E+03 0.  0.
</event>
<event>
 5    0  0.5670250E-005  0.4242334E+03  0.7546771E-02  0.1035697E+00
         21   -1    0    0  502  501  0.00000000000E+00  0.00000000000E+00  0.11108244504E+03  0.11108244504E+03  0.00000000000E+00 0.  1.
         21   -1    0    0  501  502 -0.00000000000E+00 -0.00000000000E+00 -0.16201838585E+04  0.16201838585E+04  0.00000000000E+00 0.  1.
         25    1    1    2    0    0 -0.14057555870E+03 -0.18436716219E+03 -0.68257216573E+03  0.73163002920E+03  0.12500000000E+03 0.  0.
         25    1    1    2    0    0 -0.81602779761E+02  0.19744239729E+02 -0.60620703412E+03  0.62462854312E+03  0.12500000000E+03 0.  0.
         25    1    1    2    0    0  0.22217833846E+03  0.16462292246E+03 -0.22032221366E+03  0.37500773127E+03  0.12500000000E+03 0.  0.
</event>
<event>
 5    0  0.5670250E-005  0.4735241E+03  0.7546771E-02  0.1020930E+00
         21   -1    0    0  502  501  0.00000000000E+00  0.00000000000E+00  0.36378225551E+03  0.36378225551E+03  0.00000000000E+00 0.  1.
         21   -1    0    0  501  502 -0.00000000000E+00 -0.00000000000E+00 -0.61637168854E+03  0.61637168854E+03  0.00000000000E+00 0.  1.
         25    1    1    2    0    0  0.13984796877E+03  0.21978739782E+03  0.56822985793E+02  0.29447887245E+03  0.12500000000E+03 0.  0.
         25    1    1    2    0    0  0.14049962504E+03  0.50433085695E+02 -0.48730225622E+02  0.20070693974E+03  0.12500000000E+03 0.  0.
         25    1    1    2    0    0 -0.28034759381E+03 -0.27022048351E+03 -0.26068219320E+03  0.48496813185E+03  0.12500000000E+03 0.  0.
</event>
<event>
 5    0  0.5670250E-005  0.5131222E+03  0.7546771E-02  0.1010409E+00
         21   -1    0    0  502  501  0.00000000000E+00  0.00000000000E+00  0.11022594471E+04  0.11022594471E+04  0.00000000000E+00 0. -1.
         21   -1    0    0  501  502 -0.00000000000E+00 -0.00000000000E+00 -0.23886792517E+03  0.23886792517E+03  0.00000000000E+00 0. -1.
         25    1    1    2    0    0 -0.40010528629E+03  0.34400502981E+02  0.32237676748E+03  0.52992397090E+03  0.12500000000E+03 0.  0.
         25    1    1    2    0    0  0.53895277652E+02 -0.10748761780E+03  0.28165405985E+02  0.17571732705E+03  0.12500000000E+03 0.  0.
         25    1    1    2    0    0  0.34621000864E+03  0.73087114817E+02  0.51284934850E+03  0.63548607435E+03  0.12500000000E+03 0.  0.
</event>
<event>
 5    0  0.5670250E-005  0.2550971E+03  0.7546771E-02  0.1110125E+00
         21   -1    0    0  502  501  0.00000000000E+00  0.00000000000E+00  0.11538052955E+03  0.11538052955E+03  0.00000000000E+00 0. -1.
         21   -1    0    0  501  502 -0.00000000000E+00 -0.00000000000E+00 -0.56399933799E+03  0.56399933799E+03  0.00000000000E+00 0. -1.
         25    1    1    2    0    0  0.16441388788E+02  0.36959096787E+02 -0.14321886057E+03  0.19435260771E+03  0.12500000000E+03 0.  0.
         25    1    1    2    0    0 -0.54126426857E+02 -0.51405729588E+02  0.73858049384E+01  0.14577986567E+03  0.12500000000E+03 0.  0.
         25    1    1    2    0    0  0.37685038069E+02  0.14446632801E+02 -0.31278575281E+03  0.33924739417E+03  0.12500000000E+03 0.  0.
</event>
<event>
 5    0  0.5670250E-005  0.2688610E+03  0.7546771E-02  0.1101933E+00
         21   -1    0    0  502  501  0.00000000000E+00  0.00000000000E+00  0.10229452025E+03  0.10229452025E+03  0.00000000000E+00 0.  1.
         21   -1    0    0  501  502 -0.00000000000E+00 -0.00000000000E+00 -0.70664803171E+03  0.70664803171E+03  0.00000000000E+00 0.  1.
         25    1    1    2    0    0 -0.65166519572E+02  0.49375966277E+02 -0.29846497881E+03  0.33375290995E+03  0.12500000000E+03 0.  0.
         25    1    1    2    0    0  0.52651877376E+02  0.89199022816E+02 -0.77220625473E+02  0.17976849240E+03  0.12500000000E+03 0.  0.
         25    1    1    2    0    0  0.12514642196E+02 -0.13857498909E+03 -0.22866790717E+03  0.29542114962E+03  0.12500000000E+03 0.  0.
</event>
<event>
 5    0  0.5670250E-005  0.2555935E+03  0.7546771E-02  0.1109820E+00
         21   -1    0    0  502  501  0.00000000000E+00  0.00000000000E+00  0.12684195303E+04  0.12684195303E+04  0.00000000000E+00 0.  1.
         21   -1    0    0  501  502 -0.00000000000E+00 -0.00000000000E+00 -0.51503493734E+02  0.51503493734E+02  0.00000000000E+00 0.  1.
         25    1    1    2    0    0 -0.58204596074E+02 -0.53372650639E+02  0.19230140270E+03  0.24257214250E+03  0.12500000000E+03 0.  0.
         25    1    1    2    0    0  0.10503020506E+03 -0.10408282809E+02  0.72467128823E+03  0.74290857601E+03  0.12500000000E+03 0.  0.
         25    1    1    2    0    0 -0.46825608988E+02  0.63780933448E+02  0.29994334568E+03  0.33444230556E+03  0.12500000000E+03 0.  0.
</event>
<event>
 5    0  0.5949181E-005  0.2475678E+03  0.7546771E-02  0.1114852E+00
         21   -1    0    0  502  501  0.00000000000E+00  0.00000000000E+00  0.18972675633E+03  0.18972675633E+03  0.00000000000E+00 0. -1.
         21   -1    0    0  501  502 -0.00000000000E+00 -0.00000000000E+00 -0.32304261982E+03  0.32304261982E+03  0.00000000000E+00 0. -1.
         25    1    1    2    0    0 -0.12359186707E+02  0.10330921325E+03 -0.19956131512E+02  0.16385600454E+03  0.12500000000E+03 0.  0.
         25    1    1    2    0    0 -0.26063126903E+02  0.16438115463E+02  0.15568916229E+02  0.12967994979E+03  0.12500000000E+03 0.  0.
         25    1    1    2    0    0  0.38422313609E+02 -0.11974732871E+03 -0.12892864820E+03  0.21923342182E+03  0.12500000000E+03 0.  0.
</event>
<event>
 5    0  0.5670250E-005  0.3285700E+03  0.7546771E-02  0.1071771E+00
         21   -1    0    0  502  501  0.00000000000E+00  0.00000000000E+00  0.13695437997E+04  0.13695437997E+04  0.00000000000E+00 0. -1.
         21   -1    0    0  501  502 -0.00000000000E+00 -0.00000000000E+00 -0.78827901219E+02  0.78827901219E+02  0.00000000000E+00 0. -1.
         25    1    1    2    0    0 -0.12938398873E+03  0.16003717655E+03  0.55963457361E+03  0.60923556232E+03  0.12500000000E+03 0.  0.
         25    1    1    2    0    0  0.15929265563E+03 -0.18968028479E+03  0.45022049567E+03  0.52884426374E+03  0.12500000000E+03 0.  0.
         25    1    1    2    0    0 -0.29908666904E+02  0.29643108239E+02  0.28086082925E+03  0.31029187490E+03  0.12500000000E+03 0.  0.
</event>
<event>
 5    0  0.5670250E-005  0.2738579E+03  0.7546771E-02  0.1099092E+00
         21   -1    0    0  502  501  0.00000000000E+00  0.00000000000E+00  0.12373117470E+03  0.12373117470E+03  0.00000000000E+00 0.  1.
         21   -1    0    0  501  502 -0.00000000000E+00 -0.00000000000E+00 -0.60613790317E+03  0.60613790317E+03  0.00000000000E+00 0.  1.
         25    1    1    2    0    0 -0.64568041195E+02 -0.23460205936E+02 -0.14024253681E+03  0.20003095345E+03  0.12500000000E+03 0.  0.
         25    1    1    2    0    0  0.90038753169E+02 -0.26451715052E+02  0.52480265555E+01  0.15639441193E+03  0.12500000000E+03 0.  0.
         25    1    1    2    0    0 -0.25470711974E+02  0.49911920989E+02 -0.34741221822E+03  0.37344371248E+03  0.12500000000E+03 0.  0.
</event>
<event>
 5    0  0.5670250E-005  0.4229000E+03  0.7546771E-02  0.1036127E+00
         21   -1    0    0  502  501  0.00000000000E+00  0.00000000000E+00  0.79986908548E+03  0.79986908548E+03  0.00000000000E+00 0.  1.
         21   -1    0    0  501  502 -0.00000000000E+00 -0.00000000000E+00 -0.22359209762E+03  0.22359209762E+03  0.00000000000E+00 0.  1.
         25    1    1    2    0    0  0.56946392854E+01  0.54931808285E+01  0.34784571107E+02  0.12999065482E+03  0.12500000000E+03 0.  0.
         25    1    1    2    0    0  0.60525078648E+02 -0.47956708045E+02 -0.13591321258E+03  0.20015127366E+03  0.12500000000E+03 0.  0.
         25    1    1    2    0    0 -0.66219717934E+02  0.42463527216E+02  0.67740562934E+03  0.69331925463E+03  0.12500000000E+03 0.  0.
</event>
<event>
 5    0  0.5670250E-005  0.3143585E+03  0.7546771E-02  0.1078275E+00
         21   -1    0    0  502  501  0.00000000000E+00  0.00000000000E+00  0.45069322314E+02  0.45069322314E+02  0.00000000000E+00 0.  1.
         21   -1    0    0  501  502 -0.00000000000E+00 -0.00000000000E+00 -0.21926502581E+04  0.21926502581E+04  0.00000000000E+00 0.  1.
         25    1    1    2    0    0  0.78054550072E+01  0.15995386220E+03 -0.62164272598E+03  0.65399605651E+03  0.12500000000E+03 0.  0.
         25    1    1    2    0    0  0.52569142830E+02 -0.54007600321E+02 -0.20706806812E+03  0.25334269381E+03  0.12500000000E+03 0.  0.
         25    1    1    2    0    0 -0.60374597838E+02 -0.10594626188E+03 -0.13188701416E+04  0.13303808301E+04  0.12500000000E+03 0.  0.
</event>
<event>
 5    0  0.5670250E-005  0.2320688E+03  0.7546771E-02  0.1125192E+00
         21   -1    0    0  502  501  0.00000000000E+00  0.00000000000E+00  0.43324528689E+03  0.43324528689E+03  0.00000000000E+00 0. -1.
         21   -1    0    0  501  502 -0.00000000000E+00 -0.00000000000E+00 -0.12430822137E+03  0.12430822137E+03  0.00000000000E+00 0. -1.
         25    1    1    2    0    0  0.41386020497E+02 -0.11368953168E+03  0.10416063162E+03  0.20276229799E+03  0.12500000000E+03 0.  0.
         25    1    1    2    0    0 -0.25828386262E+02  0.13038022220E+02  0.84426505154E+02  0.15359013749E+03  0.12500000000E+03 0.  0.
         25    1    1    2    0    0 -0.15557634236E+02  0.10065150946E+03  0.12034992875E+03  0.20120107278E+03  0.12500000000E+03 0.  0.
</event>
<event>
 5    0  0.5670250E-005  0.3376105E+03  0.7546771E-02  0.1067818E+00
         21   -1    0    0  502  501  0.00000000000E+00  0.00000000000E+00  0.39644630301E+03  0.39644630301E+03  0.00000000000E+00 0. -1.
         21   -1    0    0  501  502 -0.00000000000E+00 -0.00000000000E+00 -0.28750634811E+03  0.28750634811E+03  0.00000000000E+00 0. -1.
         25    1    1    2    0    0  0.49747253562E+02 -0.50857160449E+02 -0.14672142800E+02  0.14457355145E+03  0.12500000000E+03 0.  0.
         25    1    1    2    0    0 -0.24484851236E+03  0.24867185143E+02  0.13220171828E+03  0.30605794422E+03  0.12500000000E+03 0.  0.
         25    1    1    2    0    0  0.19510125880E+03  0.25989975306E+02 -0.85896205751E+01  0.23332115545E+03  0.12500000000E+03 0.  0.
</event>
<event>
 5    0  0.5670250E-005  0.2854341E+03  0.7546771E-02  0.1092757E+00
         21   -1    0    0  502  501  0.00000000000E+00  0.00000000000E+00  0.66514252826E+02  0.66514252826E+02  0.00000000000E+00 0.  1.
         21   -1    0    0  501  502 -0.00000000000E+00 -0.00000000000E+00 -0.12248900643E+04  0.12248900643E+04  0.00000000000E+00 0.  1.
         25    1    1    2    0    0 -0.27191139485E+02 -0.13743879231E+03 -0.44809894247E+03  0.48584610932E+03  0.12500000000E+03 0.  0.
         25    1    1    2    0    0 -0.29303798182E+02  0.18766525978E+03 -0.50269423826E+03  0.55172770413E+03  0.12500000000E+03 0.  0.
         25    1    1    2    0    0  0.56494937667E+02 -0.50226467472E+02 -0.20758263077E+03  0.25383050371E+03  0.12500000000E+03 0.  0.
</event>
<event>
 5    0  0.5670250E-005  0.3000656E+03  0.7546771E-02  0.1085208E+00
         21   -1    0    0  502  501  0.00000000000E+00  0.00000000000E+00  0.62144161245E+02  0.62144161245E+02  0.00000000000E+00 0. -1.
         21   -1    0    0  501  502 -0.00000000000E+00 -0.00000000000E+00 -0.14488790142E+04  0.14488790142E+04  0.00000000000E+00 0. -1.
         25    1    1    2    0    0  0.34024792932E+02  0.39374255673E+02 -0.62053761901E+03  0.63513774502E+03  0.12500000000E+03 0.  0.
         25    1    1    2    0    0 -0.52902786075E+02 -0.41808011994E+02 -0.73095450263E+03  0.74462480456E+03  0.12500000000E+03 0.  0.
         25    1    1    2    0    0  0.18877993143E+02  0.24337563206E+01 -0.35242731324E+02  0.13126062588E+03  0.12500000000E+03 0.  0.
</event>
<event>
 5    0  0.5670250E-005  0.2812544E+03  0.7546771E-02  0.1095006E+00
         21   -1    0    0  502  501  0.00000000000E+00  0.00000000000E+00  0.63959286251E+03  0.63959286251E+03  0.00000000000E+00 0.  1.
         21   -1    0    0  501  502 -0.00000000000E+00 -0.00000000000E+00 -0.12367871971E+03  0.12367871971E+03  0.00000000000E+00 0.  1.
         25    1    1    2    0    0 -0.50429473616E+02 -0.24461552033E+02  0.12036864596E+03  0.18235983732E+03  0.12500000000E+03 0.  0.
         25    1    1    2    0    0  0.13934318012E+03  0.13854535220E+03  0.24042525536E+03  0.33472472254E+03  0.12500000000E+03 0.  0.
         25    1    1    2    0    0 -0.88913706508E+02 -0.11408380016E+03  0.15512024148E+03  0.24618702236E+03  0.12500000000E+03 0.  0.
</event>
<event>
 5    0  0.5670250E-005  0.3514606E+03  0.7546771E-02  0.1062017E+00
         21   -1    0    0  502  501  0.00000000000E+00  0.00000000000E+00  0.69922933965E+03  0.69922933965E+03  0.00000000000E+00 0. -1.
         21   -1    0    0  501  502 -0.00000000000E+00 -0.00000000000E+00 -0.17665817520E+03  0.17665817520E+03  0.00000000000E+00 0. -1.
         25    1    1    2    0    0 -0.56405018040E+02  0.16935714446E+02 -0.96014576117E+02  0.16826212679E+03  0.12500000000E+03 0.  0.
         25    1    1    2    0    0  0.13070968834E+03  0.11385791727E+02  0.43824843885E+03  0.47423765459E+03  0.12500000000E+03 0.  0.
         25    1    1    2    0    0 -0.74304670298E+02 -0.28321506173E+02  0.18033730172E+03  0.23338773346E+03  0.12500000000E+03 0.  0.
</event>
<event>
 5    0  0.5670250E-005  0.3982367E+03  0.7546771E-02  0.1044392E+00
         21   -1    0    0  502  501  0.00000000000E+00  0.00000000000E+00  0.12985686854E+03  0.12985686854E+03  0.00000000000E+00 0. -1.
         21   -1    0    0  501  502 -0.00000000000E+00 -0.00000000000E+00 -0.12212865596E+04  0.12212865596E+04  0.00000000000E+00 0. -1.
         25    1    1    2    0    0 -0.26756744659E+03  0.84726730324E+02 -0.22959524105E+03  0.38354912595E+03  0.12500000000E+03 0.  0.
         25    1    1    2    0    0  0.27404153933E+03 -0.49588150166E+02 -0.53681047304E+03  0.61753399411E+03  0.12500000000E+03 0.  0.
         25    1    1    2    0    0 -0.64740927422E+01 -0.35138580158E+02 -0.32502397693E+03  0.35006030805E+03  0.12500000000E+03 0.  0.
</event>
<event>
 5    0  0.6189872E-005  0.2945395E+03  0.7546771E-02  0.1088003E+00
         21   -1    0    0  502  501  0.00000000000E+00  0.00000000000E+00  0.11600619712E+04  0.11600619712E+04  0.00000000000E+00 0. -1.
         21   -1    0    0  501  502 -0.00000000000E+00 -0.00000000000E+00 -0.74783496190E+02  0.74783496190E+02  0.00000000000E+00 0. -1.
         25    1    1    2    0    0  0.95917383571E+01  0.17795641128E+02  0.43278167752E+03  0.45092534491E+03  0.12500000000E+03 0.  0.
         25    1    1    2    0    0  0.84913334385E+02  0.12900988201E+03  0.43527717410E+03  0.47848201879E+03  0.12500000000E+03 0.  0.
         25    1    1    2    0    0 -0.94505072742E+02 -0.14680552314E+03  0.21721962339E+03  0.30543810369E+03  0.12500000000E+03 0.  0.
</event>
<event>
 5    0  0.5670250E-005  0.3514224E+03  0.7546771E-02  0.1062033E+00
         21   -1    0    0  502  501  0.00000000000E+00  0.00000000000E+00  0.18170541505E+03  0.18170541505E+03  0.00000000000E+00 0. -1.
         21   -1    0    0  501  502 -0.00000000000E+00 -0.00000000000E+00 -0.67965891334E+03  0.67965891334E+03  0.00000000000E+00 0. -1.
         25    1    1    2    0    0  0.16017412986E+03  0.17506841637E+02 -0.45407951175E+03  0.49777047359E+03  0.12500000000E+03 0.  0.
         25    1    1    2    0    0 -0.30583725172E+02 -0.87600185997E+02  0.26597656532E+02  0.15792907321E+03  0.12500000000E+03 0.  0.
         25    1    1    2    0    0 -0.12959040469E+03  0.70093344360E+02 -0.70471643072E+02  0.20566478159E+03  0.12500000000E+03 0.  0.
</event>
<event>
 5    0  0.5670250E-005  0.3047089E+03  0.7546771E-02  0.1082910E+00
         21   -1    0    0  502  501  0.00000000000E+00  0.00000000000E+00  0.10533000007E+04  0.10533000007E+04  0.00000000000E+00 0.  1.
         21   -1    0    0  501  502 -0.00000000000E+00 -0.00000000000E+00 -0.88149150200E+02  0.88149150200E+02  0.00000000000E+00 0.  1.
         25    1    1    2    0    0 -0.33656937302E+02 -0.55268758226E+02  0.64910503532E+03  0.66419106584E+03  0.12500000000E+03 0.  0.
         25    1    1    2    0    0 -0.25006130232E+01 -0.82166489529E+02  0.65643702915E+02  0.16337588806E+03  0.12500000000E+03 0.  0.
         25    1    1    2    0    0  0.36157550325E+02  0.13743524775E+03  0.25040211230E+03  0.31388219704E+03  0.12500000000E+03 0.  0.
</event>
<event>
 5    0  0.5670250E-005  0.2848735E+03  0.7546771E-02  0.1093057E+00
         21   -1    0    0  502  501  0.00000000000E+00  0.00000000000E+00  0.74920448819E+03  0.74920448819E+03  0.00000000000E+00 0. -1.
         21   -1    0    0  501  502 -0.00000000000E+00 -0.00000000000E+00 -0.10831880168E+03  0.10831880168E+03  0.00000000000E+00 0. -1.
         25    1    1    2    0    0 -0.62431254496E+01 -0.42699807470E+02  0.13775147348E+03  0.19095213699E+03  0.12500000000E+03 0.  0.
         25    1    1    2    0    0 -0.14759241971E+02  0.17122825871E+03  0.12247652090E+03  0.24528034976E+03  0.12500000000E+03 0.  0.
         25    1    1    2    0    0  0.21002367421E+02 -0.12852845124E+03  0.38065769213E+03  0.42129080312E+03  0.12500000000E+03 0.  0.
</event>
<event>
 5    0  0.5670250E-005  0.5222936E+03  0.7546771E-02  0.1008118E+00
         21   -1    0    0  502  501  0.00000000000E+00  0.00000000000E+00  0.11173534082E+04  0.11173534082E+04  0.00000000000E+00 0.  1.
         21   -1    0    0  501  502 -0.00000000000E+00 -0.00000000000E+00 -0.24413991985E+03  0.24413991985E+03  0.00000000000E+00 0.  1.
         25    1    1    2    0    0  0.10499863171E+03 -0.73401125043E+02  0.13574054802E+03  0.22463956507E+03  0.12500000000E+03 0.  0.
         25    1    1    2    0    0 -0.17846275731E+03 -0.30788977195E+03  0.11815312675E+03  0.39525969789E+03  0.12500000000E+03 0.  0.
         25    1    1    2    0    0  0.73464125601E+02  0.38129089699E+03  0.61931981355E+03  0.74159406506E+03  0.12500000000E+03 0.  0.
</event>
<event>
 5    0  0.5670250E-005  0.3091913E+03  0.7546771E-02  0.1080734E+00
         21   -1    0    0  502  501  0.00000000000E+00  0.00000000000E+00  0.35823868904E+03  0.35823868904E+03  0.00000000000E+00 0. -1.
         21   -1    0    0  501  502 -0.00000000000E+00 -0.00000000000E+00 -0.26685907474E+03  0.26685907474E+03  0.00000000000E+00 0. -1.
         25    1    1    2    0    0  0.47121113281E+02 -0.14540628092E+03  0.20508955970E+03  0.28469301597E+03  0.12500000000E+03 0.  0.
         25    1    1    2    0    0  0.92949193824E+01  0.12627626028E+03 -0.35691608209E+02  0.18146895143E+03  0.12500000000E+03 0.  0.
         25    1    1    2    0    0 -0.56416032663E+02  0.19130020636E+02 -0.78018337192E+02  0.15893579637E+03  0.12500000000E+03 0.  0.
</event>
<event>
 5    0  0.5670250E-005  0.3294357E+03  0.7546771E-02  0.1071387E+00
         21   -1    0    0  502  501  0.00000000000E+00  0.00000000000E+00  0.54772287572E+03  0.54772287572E+03  0.00000000000E+00 0. -1.
         21   -1    0    0  501  502 -0.00000000000E+00 -0.00000000000E+00 -0.19814378787E+03  0.19814378787E+03  0.00000000000E+00 0. -1.
         25    1    1    2    0    0  0.12352614639E+03 -0.11380979151E+03  0.22143499319E+03  0.30474552285E+03  0.12500000000E+03 0.  0.
         25    1    1    2    0    0  0.86082635804E+00  0.10905921975E+03  0.19179246293E+03  0.25358234021E+03  0.12500000000E+03 0.  0.
         25    1    1    2    0    0 -0.12438697275E+03  0.47505717613E+01 -0.63648368270E+02  0.18753880053E+03  0.12500000000E+03 0.  0.
</event>
<event>
 5    0  0.5670250E-005  0.3863106E+03  0.7546771E-02  0.1048626E+00
         21   -1    0    0  502  501  0.00000000000E+00  0.00000000000E+00  0.33657609266E+03  0.33657609266E+03  0.00000000000E+00 0.  1.
         21   -1    0    0  501  502 -0.00000000000E+00 -0.00000000000E+00 -0.44339424540E+03  0.44339424540E+03  0.00000000000E+00 0.  1.
         25    1    1    2    0    0 -0.18324065560E+03 -0.13537278596E+03  0.12003905212E+03  0.28624692675E+03  0.12500000000E+03 0.  0.
         25    1    1    2    0    0  0.11518546963E+03 -0.46177393457E+02 -0.19176393843E+03  0.26038135909E+03  0.12500000000E+03 0.  0.
         25    1    1    2    0    0  0.68055185968E+02  0.18155017942E+03 -0.35093266431E+02  0.23334205221E+03  0.12500000000E+03 0.  0.
</event>
<event>
 5    0  0.5670250E-005  0.2767745E+03  0.7546771E-02  0.1097464E+00
         21   -1    0    0  502  501  0.00000000000E+00  0.00000000000E+00  0.72950498414E+02  0.72950498414E+02  0.00000000000E+00 0.  1.
         21   -1    0    0  501  502 -0.00000000000E+00 -0.00000000000E+00 -0.10500836591E+04  0.10500836591E+04  0.00000000000E+00 0.  1.
         25    1    1    2    0    0 -0.28568678179E+02  0.14190138725E+03 -0.15671723334E+03  0.24725991245E+03  0.12500000000E+03 0.  0.
         25    1    1    2    0    0 -0.52451306838E+01 -0.87933667420E+02 -0.29927303634E+03  0.33607914476E+03  0.12500000000E+03 0.  0.
         25    1    1    2    0    0  0.33813808863E+02 -0.53967719830E+02 -0.52114289101E+03  0.53969510032E+03  0.12500000000E+03 0.  0.
</event>
<event>
 5    0  0.5670250E-005  0.2828041E+03  0.7546771E-02  0.1094167E+00
         21   -1    0    0  502  501  0.00000000000E+00  0.00000000000E+00  0.18912517728E+04  0.18912517728E+04  0.00000000000E+00 0.  1.
         21   -1    0    0  501  502 -0.00000000000E+00 -0.00000000000E+00 -0.42288473061E+02  0.42288473061E+02  0.00000000000E+00 0.  1.
         25    1    1    2    0    0 -0.12419945340E+03  0.11693091154E+03  0.92358495107E+03  0.94748746912E+03  0.12500000000E+03 0.  0.
         25    1    1    2    0    0  0.34874443479E+02  0.87265296499E+01  0.50012828721E+03  0.51676462998E+03  0.12500000000E+03 0.  0.
         25    1    1    2    0    0  0.89325009921E+02 -0.12565744119E+03  0.42525006148E+03  0.46928814679E+03  0.12500000000E+03 0.  0.
</event>
