<event>
 5    0  0.5641283E-005  0.3429341E+03  0.7546771E-02  0.1065553E+00
         21   -1    0    0  502  501  0.00000000000E+00  0.00000000000E+00  0.18811068561E+03  0.18811068561E+03  0.00000000000E+00 0. -1.
         21   -1    0    0  501  502 -0.00000000000E+00 -0.00000000000E+00 -0.62518388010E+03  0.62518388010E+03  0.00000000000E+00 0. -1.
         25    1    1    2    0    0  0.76731425807E+02  0.71343101186E+02 -0.13479510761E+03  0.21159459074E+03  0.12500000000E+03 0.  0.
         25    1    1    2    0    0 -0.14118447548E+03 -0.14736417669E+03  0.21823543473E+02  0.24031338651E+03  0.12500000000E+03 0.  0.
         25    1    1    2    0    0  0.64453049670E+02  0.76021075499E+02 -0.32410163034E+03  0.36138658847E+03  0.12500000000E+03 0.  0.
</event>
<event>
 5    0  0.5641283E-005  0.3017997E+03  0.7546771E-02  0.1084344E+00
         21   -1    0    0  502  501  0.00000000000E+00  0.00000000000E+00  0.36700868201E+03  0.36700868201E+03  0.00000000000E+00 0. -1.
         21   -1    0    0  501  502 -0.00000000000E+00 -0.00000000000E+00 -0.24817693266E+03  0.24817693266E+03  0.00000000000E+00 0. -1.
         25    1    1    2    0    0 -0.11010728998E+03  0.26689065017E+02  0.12150903612E+02  0.16914066914E+03  0.12500000000E+03 0.  0.
         25    1    1    2    0    0 -0.95565025508E+02  0.60792214164E+02  0.13739186099E+00  0.16868131574E+03  0.12500000000E+03 0.  0.
         25    1    1    2    0    0  0.20567231549E+03 -0.87481279181E+02  0.10654345388E+03  0.27736362979E+03  0.12500000000E+03 0.  0.
</event>
<event>
 5    0  0.5641283E-005  0.2799731E+03  0.7546771E-02  0.1095704E+00
         21   -1    0    0  502  501  0.00000000000E+00  0.00000000000E+00  0.44293553987E+03  0.44293553987E+03  0.00000000000E+00 0. -1.
         21   -1    0    0  501  502 -0.00000000000E+00 -0.00000000000E+00 -0.17696697771E+03  0.17696697771E+03  0.00000000000E+00 0. -1.
         25    1    1    2    0    0  0.39797287824E+00  0.27297827199E+02  0.23324522633E+03  0.26603320349E+03  0.12500000000E+03 0.  0.
         25    1    1    2    0    0 -0.70252238868E+02  0.88106263583E+02  0.10499533409E+02  0.16862185787E+03  0.12500000000E+03 0.  0.
         25    1    1    2    0    0  0.69854265990E+02 -0.11540409078E+03  0.22223802422E+02  0.18524745623E+03  0.12500000000E+03 0.  0.
</event>
<event>
 5    0  0.5641283E-005  0.3548637E+03  0.7546771E-02  0.1060636E+00
         21   -1    0    0  502  501  0.00000000000E+00  0.00000000000E+00  0.26048275732E+03  0.26048275732E+03  0.00000000000E+00 0. -1.
         21   -1    0    0  501  502 -0.00000000000E+00 -0.00000000000E+00 -0.48344181240E+03  0.48344181240E+03  0.00000000000E+00 0. -1.
         25    1    1    2    0    0  0.76641184717E+02  0.17861743920E+03 -0.30876760099E+03  0.38566888934E+03  0.12500000000E+03 0.  0.
         25    1    1    2    0    0 -0.81625881969E+02 -0.30761674454E+02  0.55519439515E+02  0.16222352908E+03  0.12500000000E+03 0.  0.
         25    1    1    2    0    0  0.49846972520E+01 -0.14785576475E+03  0.30289106401E+02  0.19603215130E+03  0.12500000000E+03 0.  0.
</event>
<event>
 5    0  0.5641283E-005  0.3464971E+03  0.7546771E-02  0.1064062E+00
         21   -1    0    0  502  501  0.00000000000E+00  0.00000000000E+00  0.27814832707E+03  0.27814832707E+03  0.00000000000E+00 0.  1.
         21   -1    0    0  501  502 -0.00000000000E+00 -0.00000000000E+00 -0.43164112820E+03  0.43164112820E+03  0.00000000000E+00 0.  1.
         25    1    1    2    0    0 -0.14793238978E+02 -0.17218555304E+03 -0.27519798913E+03  0.34817472312E+03  0.12500000000E+03 0.  0.
         25    1    1    2    0    0 -0.35738593627E+01  0.16384382417E+03  0.37346938795E+02  0.20946924601E+03  0.12500000000E+03 0.  0.
         25    1    1    2    0    0  0.18367098340E+02  0.83417288779E+01  0.84358249213E+02  0.15214548614E+03  0.12500000000E+03 0.  0.
</event>
<event>
 5    0  0.5641283E-005  0.3297239E+03  0.7546771E-02  0.1071259E+00
         21   -1    0    0  502  501  0.00000000000E+00  0.00000000000E+00  0.61829350058E+03  0.61829350058E+03  0.00000000000E+00 0.  1.
         21   -1    0    0  501  502 -0.00000000000E+00 -0.00000000000E+00 -0.17583531659E+03  0.17583531659E+03  0.00000000000E+00 0.  1.
         25    1    1    2    0    0  0.15246977422E+03 -0.11917307887E+02  0.28764347515E+03  0.34893097179E+03  0.12500000000E+03 0.  0.
         25    1    1    2    0    0 -0.14934007433E+03 -0.12006869473E+03  0.46173731615E+02  0.23340086278E+03  0.12500000000E+03 0.  0.
         25    1    1    2    0    0 -0.31296998842E+01  0.13198600261E+03  0.10864097722E+03  0.21179698260E+03  0.12500000000E+03 0.  0.
</event>
<event>
 5    0  0.5641283E-005  0.3171293E+03  0.7546771E-02  0.1076978E+00
         21   -1    0    0  502  501  0.00000000000E+00  0.00000000000E+00  0.25985928355E+04  0.25985928355E+04  0.00000000000E+00 0.  1.
         21   -1    0    0  501  502 -0.00000000000E+00 -0.00000000000E+00 -0.38702091785E+02  0.38702091785E+02  0.00000000000E+00 0.  1.
         25    1    1    2    0    0  0.42154134381E+02 -0.17796328926E+02  0.28942071194E+03  0.31856401063E+03  0.12500000000E+03 0.  0.
         25    1    1    2    0    0 -0.77272654613E+02  0.97290934313E+02  0.34649638340E+03  0.38874327358E+03  0.12500000000E+03 0.  0.
         25    1    1    2    0    0  0.35118520232E+02 -0.79494605387E+02  0.19239736483E+04  0.19299876430E+04  0.12500000000E+03 0.  0.
</event>
<event>
 5    0  0.5641283E-005  0.3083739E+03  0.7546771E-02  0.1081128E+00
         21   -1    0    0  502  501  0.00000000000E+00  0.00000000000E+00  0.19465096749E+03  0.19465096749E+03  0.00000000000E+00 0.  1.
         21   -1    0    0  501  502 -0.00000000000E+00 -0.00000000000E+00 -0.48853838618E+03  0.48853838618E+03  0.00000000000E+00 0.  1.
         25    1    1    2    0    0 -0.68710596698E+02  0.83974835201E+02 -0.25297835528E+03  0.30231765957E+03  0.12500000000E+03 0.  0.
         25    1    1    2    0    0 -0.39094303122E+02  0.53174458750E+02  0.46990533100E+02  0.14895971872E+03  0.12500000000E+03 0.  0.
         25    1    1    2    0    0  0.10780489982E+03 -0.13714929395E+03 -0.87899596510E+02  0.23191197538E+03  0.12500000000E+03 0.  0.
</event>
<event>
 5    0  0.5641283E-005  0.3340162E+03  0.7546771E-02  0.1069374E+00
         21   -1    0    0  502  501  0.00000000000E+00  0.00000000000E+00  0.12962325351E+03  0.12962325351E+03  0.00000000000E+00 0. -1.
         21   -1    0    0  501  502 -0.00000000000E+00 -0.00000000000E+00 -0.86070085844E+03  0.86070085844E+03  0.00000000000E+00 0. -1.
         25    1    1    2    0    0 -0.16535533690E+02 -0.20651162462E+03 -0.46898160964E+03  0.52772078333E+03  0.12500000000E+03 0.  0.
         25    1    1    2    0    0 -0.17567577475E+02  0.21082872589E+03 -0.13198437919E+03  0.27893054295E+03  0.12500000000E+03 0.  0.
         25    1    1    2    0    0  0.34103111165E+02 -0.43171012647E+01 -0.13011161609E+03  0.18367278567E+03  0.12500000000E+03 0.  0.
</event>
<event>
 5    0  0.5641283E-005  0.2669736E+03  0.7546771E-02  0.1103024E+00
         21   -1    0    0  502  501  0.00000000000E+00  0.00000000000E+00  0.26087510582E+03  0.26087510582E+03  0.00000000000E+00 0.  1.
         21   -1    0    0  501  502 -0.00000000000E+00 -0.00000000000E+00 -0.27321471167E+03  0.27321471167E+03  0.00000000000E+00 0.  1.
         25    1    1    2    0    0 -0.35240942982E+02 -0.50118980949E+02 -0.33452704037E+02  0.14317094580E+03  0.12500000000E+03 0.  0.
         25    1    1    2    0    0  0.13389404033E+03 -0.48247967905E+02 -0.40812943126E+02  0.19376835854E+03  0.12500000000E+03 0.  0.
         25    1    1    2    0    0 -0.98653097350E+02  0.98366948854E+02  0.61926041311E+02  0.19715051315E+03  0.12500000000E+03 0.  0.
</event>
<event>
 5    0  0.5641283E-005  0.3364164E+03  0.7546771E-02  0.1068333E+00
         21   -1    0    0  502  501  0.00000000000E+00  0.00000000000E+00  0.48192772156E+02  0.48192772156E+02  0.00000000000E+00 0. -1.
         21   -1    0    0  501  502 -0.00000000000E+00 -0.00000000000E+00 -0.23484023524E+04  0.23484023524E+04  0.00000000000E+00 0. -1.
         25    1    1    2    0    0 -0.45626463931E+01 -0.68360505795E+02 -0.33724090203E+03  0.36612894245E+03  0.12500000000E+03 0.  0.
         25    1    1    2    0    0  0.78488568675E+02  0.15152829871E+03 -0.17340165649E+04  0.17468714114E+04  0.12500000000E+03 0.  0.
         25    1    1    2    0    0 -0.73925922282E+02 -0.83167792915E+02 -0.22895211329E+03  0.28359477066E+03  0.12500000000E+03 0.  0.
</event>
<event>
 5    0  0.5641283E-005  0.2701619E+03  0.7546771E-02  0.1101187E+00
         21   -1    0    0  502  501  0.00000000000E+00  0.00000000000E+00  0.19515829009E+03  0.19515829009E+03  0.00000000000E+00 0. -1.
         21   -1    0    0  501  502 -0.00000000000E+00 -0.00000000000E+00 -0.37399100545E+03  0.37399100545E+03  0.00000000000E+00 0. -1.
         25    1    1    2    0    0  0.63180677456E+02  0.45103798277E+02 -0.41354491457E+02  0.15284418401E+03  0.12500000000E+03 0.  0.
         25    1    1    2    0    0 -0.19672704716E+02 -0.16925402599E+03 -0.68154791834E+02  0.22204507713E+03  0.12500000000E+03 0.  0.
         25    1    1    2    0    0 -0.43507972740E+02  0.12415022772E+03 -0.69323432072E+02  0.19426003441E+03  0.12500000000E+03 0.  0.
</event>
<event>
 5    0  0.5641283E-005  0.5265831E+03  0.7546771E-02  0.1007064E+00
         21   -1    0    0  502  501  0.00000000000E+00  0.00000000000E+00  0.68700296178E+03  0.68700296178E+03  0.00000000000E+00 0. -1.
         21   -1    0    0  501  502 -0.00000000000E+00 -0.00000000000E+00 -0.40362233891E+03  0.40362233891E+03  0.00000000000E+00 0. -1.
         25    1    1    2    0    0 -0.10285375237E+03 -0.11668330662E+03  0.37916528323E+02  0.20311708825E+03  0.12500000000E+03 0.  0.
         25    1    1    2    0    0  0.21927592399E+03  0.42846308981E+03  0.14984024293E+03  0.51936465857E+03  0.12500000000E+03 0.  0.
         25    1    1    2    0    0 -0.11642217162E+03 -0.31177978319E+03  0.95623851623E+02  0.36814355386E+03  0.12500000000E+03 0.  0.
</event>
<event>
 5    0  0.5641283E-005  0.2421420E+03  0.7546771E-02  0.1118374E+00
         21   -1    0    0  502  501  0.00000000000E+00  0.00000000000E+00  0.26017810344E+03  0.26017810344E+03  0.00000000000E+00 0. -1.
         21   -1    0    0  501  502 -0.00000000000E+00 -0.00000000000E+00 -0.22535623038E+03  0.22535623038E+03  0.00000000000E+00 0. -1.
         25    1    1    2    0    0  0.10388054903E+03 -0.42175610055E+02  0.73526530093E+01  0.16807442416E+03  0.12500000000E+03 0.  0.
         25    1    1    2    0    0 -0.39006896712E+02 -0.25184742105E+02  0.76623666376E+02  0.15379205270E+03  0.12500000000E+03 0.  0.
         25    1    1    2    0    0 -0.64873652313E+02  0.67360352160E+02 -0.49154446325E+02  0.16366785696E+03  0.12500000000E+03 0.  0.
</event>
<event>
 5    0  0.5641283E-005  0.2313317E+03  0.7546771E-02  0.1125706E+00
         21   -1    0    0  502  501  0.00000000000E+00  0.00000000000E+00  0.69722287872E+02  0.69722287872E+02  0.00000000000E+00 0. -1.
         21   -1    0    0  501  502 -0.00000000000E+00 -0.00000000000E+00 -0.76753571429E+03  0.76753571429E+03  0.00000000000E+00 0. -1.
         25    1    1    2    0    0 -0.30118062498E+02  0.48305918199E+02 -0.28001363471E+03  0.31188650988E+03  0.12500000000E+03 0.  0.
         25    1    1    2    0    0 -0.67391142685E+01  0.38807688361E+02 -0.30584342764E+03  0.33274112245E+03  0.12500000000E+03 0.  0.
         25    1    1    2    0    0  0.36857176767E+02 -0.87113606559E+02 -0.11195636407E+03  0.19263036983E+03  0.12500000000E+03 0.  0.
</event>
<event>
 5    0  0.5641283E-005  0.2753450E+03  0.7546771E-02  0.1098259E+00
         21   -1    0    0  502  501  0.00000000000E+00  0.00000000000E+00  0.66481395392E+03  0.66481395392E+03  0.00000000000E+00 0. -1.
         21   -1    0    0  501  502 -0.00000000000E+00 -0.00000000000E+00 -0.11403920343E+03  0.11403920343E+03  0.00000000000E+00 0. -1.
         25    1    1    2    0    0 -0.38132391730E+02 -0.13012509407E+03  0.83080228436E+02  0.20227195496E+03  0.12500000000E+03 0.  0.
         25    1    1    2    0    0 -0.67827552455E+01  0.86027147627E+02  0.38533696889E+03  0.41419350006E+03  0.12500000000E+03 0.  0.
         25    1    1    2    0    0  0.44915146975E+02  0.44097946442E+02  0.82357553159E+02  0.16238770234E+03  0.12500000000E+03 0.  0.
</event>
<event>
 5    0  0.5837194E-005  0.2606799E+03  0.7546771E-02  0.1106735E+00
         21   -1    0    0  502  501  0.00000000000E+00  0.00000000000E+00  0.44233229017E+03  0.44233229017E+03  0.00000000000E+00 0.  1.
         21   -1    0    0  501  502 -0.00000000000E+00 -0.00000000000E+00 -0.15362662551E+03  0.15362662551E+03  0.00000000000E+00 0.  1.
         25    1    1    2    0    0 -0.20286049323E+01 -0.10227543373E+03  0.85523033888E+02  0.18276643266E+03  0.12500000000E+03 0.  0.
         25    1    1    2    0    0  0.53456743575E+02  0.16104782282E+03  0.10003436438E+03  0.23329358912E+03  0.12500000000E+03 0.  0.
         25    1    1    2    0    0 -0.51428138643E+02 -0.58772389093E+02  0.10314826639E+03  0.17989889389E+03  0.12500000000E+03 0.  0.
</event>
<event>
 5    0  0.5641283E-005  0.2805342E+03  0.7546771E-02  0.1095398E+00
         21   -1    0    0  502  501  0.00000000000E+00  0.00000000000E+00  0.47083363834E+03  0.47083363834E+03  0.00000000000E+00 0. -1.
         21   -1    0    0  501  502 -0.00000000000E+00 -0.00000000000E+00 -0.16714919101E+03  0.16714919101E+03  0.00000000000E+00 0. -1.
         25    1    1    2    0    0  0.55945016580E+02  0.50135943580E+02  0.11250310479E+03  0.18418850753E+03  0.12500000000E+03 0.  0.
         25    1    1    2    0    0 -0.97561746763E+00 -0.19751885286E+02  0.26642166424E+03  0.29495184688E+03  0.12500000000E+03 0.  0.
         25    1    1    2    0    0 -0.54969399112E+02 -0.30384058294E+02 -0.75240321698E+02  0.15884247494E+03  0.12500000000E+03 0.  0.
</event>
<event>
 5    0  0.5641283E-005  0.4589003E+03  0.7546771E-02  0.1025101E+00
         21   -1    0    0  502  501  0.00000000000E+00  0.00000000000E+00  0.87084792836E+03  0.87084792836E+03  0.00000000000E+00 0.  1.
         21   -1    0    0  501  502 -0.00000000000E+00 -0.00000000000E+00 -0.24182124161E+03  0.24182124161E+03  0.00000000000E+00 0.  1.
         25    1    1    2    0    0 -0.12226168748E+03 -0.27096020526E+02  0.32161187582E+03  0.36707126450E+03  0.12500000000E+03 0.  0.
         25    1    1    2    0    0  0.42174340471E+02 -0.71134672855E+02  0.47684459829E+03  0.49984456343E+03  0.12500000000E+03 0.  0.
         25    1    1    2    0    0  0.80087347007E+02  0.98230693381E+02 -0.16942978736E+03  0.24575334203E+03  0.12500000000E+03 0.  0.
</event>
<event>
 5    0  0.5641283E-005  0.7697824E+03  0.7546771E-02  0.9604816E-01
         21   -1    0    0  502  501  0.00000000000E+00  0.00000000000E+00  0.35388055272E+04  0.35388055272E+04  0.00000000000E+00 0. -1.
         21   -1    0    0  501  502 -0.00000000000E+00 -0.00000000000E+00 -0.16744774061E+03  0.16744774061E+03  0.00000000000E+00 0. -1.
         25    1    1    2    0    0  0.21211859092E+02  0.68847401410E+03  0.12081211047E+04  0.13962908059E+04  0.12500000000E+03 0.  0.
         25    1    1    2    0    0 -0.13519013263E+03 -0.33455173775E+03  0.14087971141E+04  0.14596354154E+04  0.12500000000E+03 0.  0.
         25    1    1    2    0    0  0.11397827354E+03 -0.35392227636E+03  0.75443956774E+03  0.85032704645E+03  0.12500000000E+03 0.  0.
</event>
<event>
 5    0  0.5641283E-005  0.4853044E+03  0.7546771E-02  0.1017687E+00
         21   -1    0    0  502  501  0.00000000000E+00  0.00000000000E+00  0.33149111904E+03  0.33149111904E+03  0.00000000000E+00 0.  1.
         21   -1    0    0  501  502 -0.00000000000E+00 -0.00000000000E+00 -0.71048772954E+03  0.71048772954E+03  0.00000000000E+00 0.  1.
         25    1    1    2    0    0 -0.14882690212E+02 -0.61685529244E+02  0.53960478883E+02  0.15021095921E+03  0.12500000000E+03 0.  0.
         25    1    1    2    0    0 -0.96751056471E+02  0.26680016466E+03 -0.52634876637E+03  0.61091007411E+03  0.12500000000E+03 0.  0.
         25    1    1    2    0    0  0.11163374668E+03 -0.20511463542E+03  0.93391676980E+02  0.28085781526E+03  0.12500000000E+03 0.  0.
</event>
<event>
 5    0  0.5641283E-005  0.2355142E+03  0.7546771E-02  0.1122818E+00
         21   -1    0    0  502  501  0.00000000000E+00  0.00000000000E+00  0.41998032352E+03  0.41998032352E+03  0.00000000000E+00 0. -1.
         21   -1    0    0  501  502 -0.00000000000E+00 -0.00000000000E+00 -0.13207032193E+03  0.13207032193E+03  0.00000000000E+00 0. -1.
         25    1    1    2    0    0 -0.39322467134E+02  0.77643786661E+02  0.17893712490E+03  0.23498576275E+03  0.12500000000E+03 0.  0.
         25    1    1    2    0    0 -0.24679608519E+02  0.16204849079E+02  0.38894605011E+02  0.13419936851E+03  0.12500000000E+03 0.  0.
         25    1    1    2    0    0  0.64002075653E+02 -0.93848635740E+02  0.70078271673E+02  0.18286551419E+03  0.12500000000E+03 0.  0.
</event>
<event>
 5    0  0.5641283E-005  0.4784271E+03  0.7546771E-02  0.1019568E+00
         21   -1    0    0  502  501  0.00000000000E+00  0.00000000000E+00  0.62821230588E+03  0.62821230588E+03  0.00000000000E+00 0. -1.
         21   -1    0    0  501  502 -0.00000000000E+00 -0.00000000000E+00 -0.36435525939E+03  0.36435525939E+03  0.00000000000E+00 0. -1.
         25    1    1    2    0    0  0.34230496247E+03 -0.57649734883E+01  0.24849531711E+03  0.44111318828E+03  0.12500000000E+03 0.  0.
         25    1    1    2    0    0 -0.28817382208E+03  0.73268657641E+02  0.14311917455E+03  0.35287468888E+03  0.12500000000E+03 0.  0.
         25    1    1    2    0    0 -0.54131140391E+02 -0.67503684153E+02 -0.12775744518E+03  0.19857968812E+03  0.12500000000E+03 0.  0.
</event>
<event>
 5    0  0.5641283E-005  0.2954238E+03  0.7546771E-02  0.1087551E+00
         21   -1    0    0  502  501  0.00000000000E+00  0.00000000000E+00  0.94886147773E+02  0.94886147773E+02  0.00000000000E+00 0. -1.
         21   -1    0    0  501  502 -0.00000000000E+00 -0.00000000000E+00 -0.91978907457E+03  0.91978907457E+03  0.00000000000E+00 0. -1.
         25    1    1    2    0    0  0.81621874684E+02  0.52510039640E+02 -0.59992775183E+03  0.62044962898E+03  0.12500000000E+03 0.  0.
         25    1    1    2    0    0 -0.58363800611E+01 -0.10438921972E+03 -0.15183837031E+03  0.22273541080E+03  0.12500000000E+03 0.  0.
         25    1    1    2    0    0 -0.75785494623E+02  0.51879180077E+02 -0.73136804668E+02  0.17149018257E+03  0.12500000000E+03 0.  0.
</event>
<event>
 5    0  0.5641283E-005  0.4591027E+03  0.7546771E-02  0.1025042E+00
         21   -1    0    0  502  501  0.00000000000E+00  0.00000000000E+00  0.38559665535E+03  0.38559665535E+03  0.00000000000E+00 0.  1.
         21   -1    0    0  501  502 -0.00000000000E+00 -0.00000000000E+00 -0.54662121508E+03  0.54662121508E+03  0.00000000000E+00 0.  1.
         25    1    1    2    0    0  0.19070154813E+02  0.45337161336E+02 -0.15027257639E+03  0.20155886539E+03  0.12500000000E+03 0.  0.
         25    1    1    2    0    0 -0.13444202160E+03  0.18781619376E+03 -0.24483532812E+03  0.35905280629E+03  0.12500000000E+03 0.  0.
         25    1    1    2    0    0  0.11537186678E+03 -0.23315335510E+03  0.23408334479E+03  0.37160619875E+03  0.12500000000E+03 0.  0.
</event>
<event>
 5    0  0.5641283E-005  0.2032504E+03  0.7546771E-02  0.1147025E+00
         21   -1    0    0  502  501  0.00000000000E+00  0.00000000000E+00  0.10983868664E+03  0.10983868664E+03  0.00000000000E+00 0. -1.
         21   -1    0    0  501  502 -0.00000000000E+00 -0.00000000000E+00 -0.37610361225E+03  0.37610361225E+03  0.00000000000E+00 0. -1.
         25    1    1    2    0    0  0.32756000162E+01  0.41561937647E+02 -0.71391727242E+02  0.14986628352E+03  0.12500000000E+03 0.  0.
         25    1    1    2    0    0  0.47540059504E+01  0.14731241601E+02 -0.13965557290E+03  0.18806458756E+03  0.12500000000E+03 0.  0.
         25    1    1    2    0    0 -0.80296059667E+01 -0.56293179248E+02 -0.55217625469E+02  0.14801142782E+03  0.12500000000E+03 0.  0.
</event>
<event>
 5    0  0.5641283E-005  0.2560836E+03  0.7546771E-02  0.1109519E+00
         21   -1    0    0  502  501  0.00000000000E+00  0.00000000000E+00  0.23522087123E+03  0.23522087123E+03  0.00000000000E+00 0. -1.
         21   -1    0    0  501  502 -0.00000000000E+00 -0.00000000000E+00 -0.27879665992E+03  0.27879665992E+03  0.00000000000E+00 0. -1.
         25    1    1    2    0    0  0.33356089795E+02  0.12352289467E+03  0.36382038222E+02  0.18253544023E+03  0.12500000000E+03 0.  0.
         25    1    1    2    0    0 -0.34540139690E+02 -0.14496021202E+03 -0.56048700789E+02  0.20241773929E+03  0.12500000000E+03 0.  0.
         25    1    1    2    0    0  0.11840498945E+01  0.21437317348E+02 -0.23909126122E+02  0.12906435163E+03  0.12500000000E+03 0.  0.
</event>
<event>
 5    0  0.5641283E-005  0.2851298E+03  0.7546771E-02  0.1092920E+00
         21   -1    0    0  502  501  0.00000000000E+00  0.00000000000E+00  0.48959323222E+02  0.48959323222E+02  0.00000000000E+00 0.  1.
         21   -1    0    0  501  502 -0.00000000000E+00 -0.00000000000E+00 -0.16605415079E+04  0.16605415079E+04  0.00000000000E+00 0.  1.
         25    1    1    2    0    0 -0.10631142165E+03 -0.54168298308E+02 -0.36554503044E+03  0.40433215578E+03  0.12500000000E+03 0.  0.
         25    1    1    2    0    0  0.19226665984E+03  0.17518147515E+02 -0.81111828980E+03  0.84309621873E+03  0.12500000000E+03 0.  0.
         25    1    1    2    0    0 -0.85955238194E+02  0.36650150793E+02 -0.43491886446E+03  0.46207245665E+03  0.12500000000E+03 0.  0.
</event>
<event>
 5    0  0.5641283E-005  0.2715728E+03  0.7546771E-02  0.1100383E+00
         21   -1    0    0  502  501  0.00000000000E+00  0.00000000000E+00  0.13723825873E+03  0.13723825873E+03  0.00000000000E+00 0.  1.
         21   -1    0    0  501  502 -0.00000000000E+00 -0.00000000000E+00 -0.53739967146E+03  0.53739967146E+03  0.00000000000E+00 0.  1.
         25    1    1    2    0    0 -0.14251864000E+03  0.21397850587E+02 -0.18964542962E+03  0.26899780619E+03  0.12500000000E+03 0.  0.
         25    1    1    2    0    0  0.58929247664E+02 -0.48598998900E+02 -0.20597947021E+03  0.25275889909E+03  0.12500000000E+03 0.  0.
         25    1    1    2    0    0  0.83589392337E+02  0.27201148313E+02 -0.45365129102E+01  0.15288122491E+03  0.12500000000E+03 0.  0.
</event>
<event>
 5    0  0.5641283E-005  0.3661314E+03  0.7546771E-02  0.1056182E+00
         21   -1    0    0  502  501  0.00000000000E+00  0.00000000000E+00  0.60176113123E+03  0.60176113123E+03  0.00000000000E+00 0. -1.
         21   -1    0    0  501  502 -0.00000000000E+00 -0.00000000000E+00 -0.22276641955E+03  0.22276641955E+03  0.00000000000E+00 0. -1.
         25    1    1    2    0    0 -0.35752392474E+02 -0.10647296054E+03 -0.84975005753E+02  0.18830952312E+03  0.12500000000E+03 0.  0.
         25    1    1    2    0    0  0.78572417659E+02  0.10045601034E+03  0.28167033081E+02  0.18078555413E+03  0.12500000000E+03 0.  0.
         25    1    1    2    0    0 -0.42820025185E+02  0.60169502004E+01  0.43580268435E+03  0.45543247352E+03  0.12500000000E+03 0.  0.
</event>
<event>
 5    0  0.5641283E-005  0.3373019E+03  0.7546771E-02  0.1067951E+00
         21   -1    0    0  502  501  0.00000000000E+00  0.00000000000E+00  0.39026002775E+02  0.39026002775E+02  0.00000000000E+00 0.  1.
         21   -1    0    0  501  502 -0.00000000000E+00 -0.00000000000E+00 -0.29153011373E+04  0.29153011373E+04  0.00000000000E+00 0.  1.
         25    1    1    2    0    0  0.42319151338E+02  0.32881301533E+02 -0.16328867221E+04  0.16385408563E+04  0.12500000000E+03 0.  0.
         25    1    1    2    0    0 -0.11282943438E+03  0.17513029266E+02 -0.20297285874E+03  0.26431074296E+03  0.12500000000E+03 0.  0.
         25    1    1    2    0    0  0.70510283041E+02 -0.50394330799E+02 -0.10404155537E+04  0.10514755408E+04  0.12500000000E+03 0.  0.
</event>
<event>
 5    0  0.5641283E-005  0.4259103E+03  0.7546771E-02  0.1035160E+00
         21   -1    0    0  502  501  0.00000000000E+00  0.00000000000E+00  0.21357723237E+03  0.21357723237E+03  0.00000000000E+00 0.  1.
         21   -1    0    0  501  502 -0.00000000000E+00 -0.00000000000E+00 -0.84933960216E+03  0.84933960216E+03  0.00000000000E+00 0.  1.
         25    1    1    2    0    0  0.16861067448E+02 -0.54741109763E+02 -0.10768472534E+03  0.17464788795E+03  0.12500000000E+03 0.  0.
         25    1    1    2    0    0  0.31079921499E+03  0.23755047463E+02 -0.37776816064E+03  0.50546437808E+03  0.12500000000E+03 0.  0.
         25    1    1    2    0    0 -0.32766028243E+03  0.30986062300E+02 -0.15030948381E+03  0.38280456850E+03  0.12500000000E+03 0.  0.
</event>
<event>
 5    0  0.5641283E-005  0.2709216E+03  0.7546771E-02  0.1100753E+00
         21   -1    0    0  502  501  0.00000000000E+00  0.00000000000E+00  0.65916218894E+02  0.65916218894E+02  0.00000000000E+00 0.  1.
         21   -1    0    0  501  502 -0.00000000000E+00 -0.00000000000E+00 -0.11135118042E+04  0.11135118042E+04  0.00000000000E+00 0.  1.
         25    1    1    2    0    0 -0.28220118664E+02 -0.53008710791E+02 -0.55813732504E+02  0.14948736152E+03  0.12500000000E+03 0.  0.
         25    1    1    2    0    0 -0.30347728258E+02  0.50761864815E+02 -0.44449210449E+03  0.46550615730E+03  0.12500000000E+03 0.  0.
         25    1    1    2    0    0  0.58567846922E+02  0.22468459763E+01 -0.54728974828E+03  0.56443450424E+03  0.12500000000E+03 0.  0.
</event>
<event>
 5    0  0.5641283E-005  0.2720891E+03  0.7546771E-02  0.1100090E+00
         21   -1    0    0  502  501  0.00000000000E+00  0.00000000000E+00  0.34286517382E+03  0.34286517382E+03  0.00000000000E+00 0. -1.
         21   -1    0    0  501  502 -0.00000000000E+00 -0.00000000000E+00 -0.21592307994E+03  0.21592307994E+03  0.00000000000E+00 0. -1.
         25    1    1    2    0    0 -0.63875851362E+01  0.41224514866E+02  0.16201926212E+02  0.13276959096E+03  0.12500000000E+03 0.  0.
         25    1    1    2    0    0 -0.57960763861E+02  0.12990582743E+03  0.40264094389E+02  0.19360054609E+03  0.12500000000E+03 0.  0.
         25    1    1    2    0    0  0.64348348997E+02 -0.17113034230E+03  0.70476073283E+02  0.23241811672E+03  0.12500000000E+03 0.  0.
</event>
<event>
 5    0  0.5641283E-005  0.3690129E+03  0.7546771E-02  0.1055071E+00
         21   -1    0    0  502  501  0.00000000000E+00  0.00000000000E+00  0.10681434026E+04  0.10681434026E+04  0.00000000000E+00 0. -1.
         21   -1    0    0  501  502 -0.00000000000E+00 -0.00000000000E+00 -0.12748333930E+03  0.12748333930E+03  0.00000000000E+00 0. -1.
         25    1    1    2    0    0 -0.16472519723E+03  0.69443885406E+02  0.20152500719E+02  0.21906156009E+03  0.12500000000E+03 0.  0.
         25    1    1    2    0    0  0.62288358700E+02 -0.78772733505E+02  0.38298946766E+03  0.41519985009E+03  0.12500000000E+03 0.  0.
         25    1    1    2    0    0  0.10243683853E+03  0.93288480981E+01  0.53751809496E+03  0.56136533176E+03  0.12500000000E+03 0.  0.
</event>
<event>
 5    0  0.5641283E-005  0.4074563E+03  0.7546771E-02  0.1041228E+00
         21   -1    0    0  502  501  0.00000000000E+00  0.00000000000E+00  0.67123186132E+03  0.67123186132E+03  0.00000000000E+00 0.  1.
         21   -1    0    0  501  502 -0.00000000000E+00 -0.00000000000E+00 -0.24733718317E+03  0.24733718317E+03  0.00000000000E+00 0.  1.
         25    1    1    2    0    0 -0.81622946938E+02 -0.23849193407E+03 -0.50371114015E+02  0.28583729149E+03  0.12500000000E+03 0.  0.
         25    1    1    2    0    0  0.39188659725E+02  0.12285038496E+03  0.71332406470E+02  0.19323892038E+03  0.12500000000E+03 0.  0.
         25    1    1    2    0    0  0.42434287212E+02  0.11564154910E+03  0.40293338570E+03  0.43949283262E+03  0.12500000000E+03 0.  0.
</event>
<event>
 5    0  0.5641283E-005  0.3438139E+03  0.7546771E-02  0.1065183E+00
         21   -1    0    0  502  501  0.00000000000E+00  0.00000000000E+00  0.22320251065E+03  0.22320251065E+03  0.00000000000E+00 0. -1.
         21   -1    0    0  501  502 -0.00000000000E+00 -0.00000000000E+00 -0.52959990711E+03  0.52959990711E+03  0.00000000000E+00 0. -1.
         25    1    1    2    0    0  0.11312446746E+03  0.57233749971E+02  0.83665067842E+02  0.19671728661E+03  0.12500000000E+03 0.  0.
         25    1    1    2    0    0 -0.62065907423E+02 -0.44831414565E+02 -0.37123203068E+01  0.14663155840E+03  0.12500000000E+03 0.  0.
         25    1    1    2    0    0 -0.51058560035E+02 -0.12402335406E+02 -0.38635014400E+03  0.40945357276E+03  0.12500000000E+03 0.  0.
</event>
<event>
 5    0  0.5641283E-005  0.2736702E+03  0.7546771E-02  0.1099197E+00
         21   -1    0    0  502  501  0.00000000000E+00  0.00000000000E+00  0.11687853900E+03  0.11687853900E+03  0.00000000000E+00 0. -1.
         21   -1    0    0  501  502 -0.00000000000E+00 -0.00000000000E+00 -0.64079675607E+03  0.64079675607E+03  0.00000000000E+00 0. -1.
         25    1    1    2    0    0  0.95820775004E+02  0.13828140284E+03 -0.17453233303E+03  0.27274512382E+03  0.12500000000E+03 0.  0.
         25    1    1    2    0    0 -0.25954310309E+02 -0.11914964460E+03 -0.11335415181E+03  0.20819324620E+03  0.12500000000E+03 0.  0.
         25    1    1    2    0    0 -0.69866464695E+02 -0.19131758240E+02 -0.23603173223E+03  0.27673692505E+03  0.12500000000E+03 0.  0.
</event>
<event>
 5    0  0.5641283E-005  0.4225725E+03  0.7546771E-02  0.1036232E+00
         21   -1    0    0  502  501  0.00000000000E+00  0.00000000000E+00  0.17403510246E+03  0.17403510246E+03  0.00000000000E+00 0.  1.
         21   -1    0    0  501  502 -0.00000000000E+00 -0.00000000000E+00 -0.10260431053E+04  0.10260431053E+04  0.00000000000E+00 0.  1.
         25    1    1    2    0    0 -0.74418895226E+02 -0.49425885132E+02  0.54877253260E+02  0.16314902088E+03  0.12500000000E+03 0.  0.
         25    1    1    2    0    0  0.22565278346E+03  0.41587212292E+02 -0.29388057579E+03  0.39324225070E+03  0.12500000000E+03 0.  0.
         25    1    1    2    0    0 -0.15123388824E+03  0.78386728398E+01 -0.61300468035E+03  0.64368693623E+03  0.12500000000E+03 0.  0.
</event>
<event>
 5    0  0.5641283E-005  0.2549507E+03  0.7546771E-02  0.1110215E+00
         21   -1    0    0  502  501  0.00000000000E+00  0.00000000000E+00  0.34632752162E+03  0.34632752162E+03  0.00000000000E+00 0.  1.
         21   -1    0    0  501  502 -0.00000000000E+00 -0.00000000000E+00 -0.18768323729E+03  0.18768323729E+03  0.00000000000E+00 0.  1.
         25    1    1    2    0    0  0.88645258571E+02  0.45911832638E+02 -0.20583059548E+02  0.16129023710E+03  0.12500000000E+03 0.  0.
         25    1    1    2    0    0 -0.13183722229E+03  0.12504637919E+02  0.10482278974E+03  0.21011957643E+03  0.12500000000E+03 0.  0.
         25    1    1    2    0    0  0.43191963717E+02 -0.58416470556E+02  0.74404554140E+02  0.16260094538E+03  0.12500000000E+03 0.  0.
</event>
<event>
 5    0  0.5641283E-005  0.2618641E+03  0.7546771E-02  0.1106028E+00
         21   -1    0    0  502  501  0.00000000000E+00  0.00000000000E+00  0.13158110835E+03  0.13158110835E+03  0.00000000000E+00 0.  1.
         21   -1    0    0  501  502 -0.00000000000E+00 -0.00000000000E+00 -0.52114495427E+03  0.52114495427E+03  0.00000000000E+00 0.  1.
         25    1    1    2    0    0 -0.50540604070E+02  0.21789914330E+02 -0.15519766523E+03  0.20673767997E+03  0.12500000000E+03 0.  0.
         25    1    1    2    0    0  0.52874690724E+02  0.12358613627E+03 -0.14754090544E+03  0.23550495701E+03  0.12500000000E+03 0.  0.
         25    1    1    2    0    0 -0.23340866544E+01 -0.14537605060E+03 -0.86825275247E+02  0.21048342564E+03  0.12500000000E+03 0.  0.
</event>
<event>
 5    0  0.5641283E-005  0.2526356E+03  0.7546771E-02  0.1111650E+00
         21   -1    0    0  502  501  0.00000000000E+00  0.00000000000E+00  0.19153722680E+03  0.19153722680E+03  0.00000000000E+00 0.  1.
         21   -1    0    0  501  502 -0.00000000000E+00 -0.00000000000E+00 -0.33322369183E+03  0.33322369183E+03  0.00000000000E+00 0.  1.
         25    1    1    2    0    0  0.11875490855E+03 -0.41615123392E+02 -0.16973477927E+02  0.17817869051E+03  0.12500000000E+03 0.  0.
         25    1    1    2    0    0  0.27339484867E+02  0.22311527968E+02 -0.43571984434E+02  0.13699915890E+03  0.12500000000E+03 0.  0.
         25    1    1    2    0    0 -0.14609439342E+03  0.19303595424E+02 -0.81141002666E+02  0.20958306921E+03  0.12500000000E+03 0.  0.
</event>
<event>
 5    0  0.5641283E-005  0.2500922E+03  0.7546771E-02  0.1113247E+00
         21   -1    0    0  502  501  0.00000000000E+00  0.00000000000E+00  0.16535537896E+03  0.16535537896E+03  0.00000000000E+00 0. -1.
         21   -1    0    0  501  502 -0.00000000000E+00 -0.00000000000E+00 -0.37825264448E+03  0.37825264448E+03  0.00000000000E+00 0. -1.
         25    1    1    2    0    0  0.53533969220E+01 -0.77991233842E+02  0.12910575431E+02  0.14799653500E+03  0.12500000000E+03 0.  0.
         25    1    1    2    0    0  0.67365095127E+02  0.68947871980E+02 -0.45458248993E+02  0.16426599616E+03  0.12500000000E+03 0.  0.
         25    1    1    2    0    0 -0.72718492048E+02  0.90433618621E+01 -0.18034959196E+03  0.23134549228E+03  0.12500000000E+03 0.  0.
</event>
<event>
 5    0  0.5641283E-005  0.4315662E+03  0.7546771E-02  0.1033366E+00
         21   -1    0    0  502  501  0.00000000000E+00  0.00000000000E+00  0.57625611890E+03  0.57625611890E+03  0.00000000000E+00 0. -1.
         21   -1    0    0  501  502 -0.00000000000E+00 -0.00000000000E+00 -0.32320584381E+03  0.32320584381E+03  0.00000000000E+00 0. -1.
         25    1    1    2    0    0  0.36696781948E+03  0.55554632153E+02  0.32902464126E+02  0.39301306573E+03  0.12500000000E+03 0.  0.
         25    1    1    2    0    0 -0.16608761950E+03 -0.45734581789E+02  0.14676992284E+03  0.25854044089E+03  0.12500000000E+03 0.  0.
         25    1    1    2    0    0 -0.20088019998E+03 -0.98200503641E+01  0.73377888134E+02  0.24790845609E+03  0.12500000000E+03 0.  0.
</event>
<event>
 5    0  0.5641283E-005  0.2516337E+03  0.7546771E-02  0.1112277E+00
         21   -1    0    0  502  501  0.00000000000E+00  0.00000000000E+00  0.65488957486E+02  0.65488957486E+02  0.00000000000E+00 0.  1.
         21   -1    0    0  501  502 -0.00000000000E+00 -0.00000000000E+00 -0.96687352893E+03  0.96687352893E+03  0.00000000000E+00 0.  1.
         25    1    1    2    0    0 -0.84497210275E+01  0.89216078714E+02 -0.15920900465E+03  0.22136714672E+03  0.12500000000E+03 0.  0.
         25    1    1    2    0    0 -0.60231634413E+02 -0.60977896581E+02 -0.54704836901E+03  0.56765576866E+03  0.12500000000E+03 0.  0.
         25    1    1    2    0    0  0.68681355441E+02 -0.28238182133E+02 -0.19512719778E+03  0.24333957103E+03  0.12500000000E+03 0.  0.
</event>
<event>
 5    0  0.6395483E-005  0.2785949E+03  0.7546771E-02  0.1096459E+00
         21   -1    0    0  502  501  0.00000000000E+00  0.00000000000E+00  0.40020243924E+03  0.40020243924E+03  0.00000000000E+00 0.  1.
         21   -1    0    0  501  502 -0.00000000000E+00 -0.00000000000E+00 -0.19393961845E+03  0.19393961845E+03  0.00000000000E+00 0.  1.
         25    1    1    2    0    0  0.99804688967E+02 -0.13734517779E+03  0.97242004679E+02  0.23217597050E+03  0.12500000000E+03 0.  0.
         25    1    1    2    0    0 -0.67054951252E+02  0.53148143329E+02 -0.29891637608E+02  0.15440078246E+03  0.12500000000E+03 0.  0.
         25    1    1    2    0    0 -0.32749737714E+02  0.84197034459E+02  0.13891245371E+03  0.20756530473E+03  0.12500000000E+03 0.  0.
</event>
<event>
 5    0  0.5641283E-005  0.2086909E+03  0.7546771E-02  0.1142607E+00
         21   -1    0    0  502  501  0.00000000000E+00  0.00000000000E+00  0.33952754658E+02  0.33952754658E+02  0.00000000000E+00 0. -1.
         21   -1    0    0  501  502 -0.00000000000E+00 -0.00000000000E+00 -0.12827202490E+04  0.12827202490E+04  0.00000000000E+00 0. -1.
         25    1    1    2    0    0  0.13085411273E+02  0.24799352659E+02 -0.37597648772E+03  0.39720215910E+03  0.12500000000E+03 0.  0.
         25    1    1    2    0    0  0.14801880315E+02  0.47854971198E+02 -0.31510939297E+03  0.34267787129E+03  0.12500000000E+03 0.  0.
         25    1    1    2    0    0 -0.27887291588E+02 -0.72654323857E+02 -0.55768161368E+03  0.57679297330E+03  0.12500000000E+03 0.  0.
</event>
<event>
 5    0  0.5641283E-005  0.4525474E+03  0.7546771E-02  0.1026965E+00
         21   -1    0    0  502  501  0.00000000000E+00  0.00000000000E+00  0.57397551718E+03  0.57397551718E+03  0.00000000000E+00 0.  1.
         21   -1    0    0  501  502 -0.00000000000E+00 -0.00000000000E+00 -0.35680823471E+03  0.35680823471E+03  0.00000000000E+00 0.  1.
         25    1    1    2    0    0 -0.81994890231E+02 -0.24749726843E+03 -0.16461257661E+03  0.33271663662E+03  0.12500000000E+03 0.  0.
         25    1    1    2    0    0  0.10248107695E+03  0.28301985759E+03  0.24072683677E+03  0.40518763661E+03  0.12500000000E+03 0.  0.
         25    1    1    2    0    0 -0.20486186715E+02 -0.35522589163E+02  0.14105302230E+03  0.19287947866E+03  0.12500000000E+03 0.  0.
</event>
<event>
 5    0  0.5641283E-005  0.2966460E+03  0.7546771E-02  0.1086929E+00
         21   -1    0    0  502  501  0.00000000000E+00  0.00000000000E+00  0.23279675647E+03  0.23279675647E+03  0.00000000000E+00 0.  1.
         21   -1    0    0  501  502 -0.00000000000E+00 -0.00000000000E+00 -0.37800722113E+03  0.37800722113E+03  0.00000000000E+00 0.  1.
         25    1    1    2    0    0  0.18870099917E+03  0.47422684431E+01 -0.61792358679E+02  0.23467818771E+03  0.12500000000E+03 0.  0.
         25    1    1    2    0    0 -0.30021281863E+02  0.51423085803E+02 -0.92084204135E+02  0.16628322756E+03  0.12500000000E+03 0.  0.
         25    1    1    2    0    0 -0.15867971731E+03 -0.56165354246E+02  0.86660981545E+01  0.20984256232E+03  0.12500000000E+03 0.  0.
</event>
<event>
 5    0  0.5641283E-005  0.4017688E+03  0.7546771E-02  0.1043169E+00
         21   -1    0    0  502  501  0.00000000000E+00  0.00000000000E+00  0.19065953847E+04  0.19065953847E+04  0.00000000000E+00 0.  1.
         21   -1    0    0  501  502 -0.00000000000E+00 -0.00000000000E+00 -0.84663056393E+02  0.84663056393E+02  0.00000000000E+00 0.  1.
         25    1    1    2    0    0 -0.18089413656E+03  0.90639715820E+02  0.25243430418E+03  0.34682318932E+03  0.12500000000E+03 0.  0.
         25    1    1    2    0    0  0.13083881285E+03 -0.69055152755E+01  0.21680953403E+03  0.28248514144E+03  0.12500000000E+03 0.  0.
         25    1    1    2    0    0  0.50055323712E+02 -0.83734200545E+02  0.13526884901E+04  0.13619501104E+04  0.12500000000E+03 0.  0.
</event>
<event>
 5    0  0.5641283E-005  0.2330434E+03  0.7546771E-02  0.1124516E+00
         21   -1    0    0  502  501  0.00000000000E+00  0.00000000000E+00  0.13715198050E+03  0.13715198050E+03  0.00000000000E+00 0.  1.
         21   -1    0    0  501  502 -0.00000000000E+00 -0.00000000000E+00 -0.39597827151E+03  0.39597827151E+03  0.00000000000E+00 0.  1.
         25    1    1    2    0    0  0.42494483999E+02  0.43926765607E+02 -0.84602440152E+02  0.16284322149E+03  0.12500000000E+03 0.  0.
         25    1    1    2    0    0  0.25477216858E+02 -0.35977646937E+02  0.15011935519E+02  0.13339354507E+03  0.12500000000E+03 0.  0.
         25    1    1    2    0    0 -0.67971700858E+02 -0.79491186702E+01 -0.18923578637E+03  0.23689348545E+03  0.12500000000E+03 0.  0.
</event>
<event>
 5    0  0.5641283E-005  0.5049416E+03  0.7546771E-02  0.1012497E+00
         21   -1    0    0  502  501  0.00000000000E+00  0.00000000000E+00  0.69032005110E+03  0.69032005110E+03  0.00000000000E+00 0.  1.
         21   -1    0    0  501  502 -0.00000000000E+00 -0.00000000000E+00 -0.36934468865E+03  0.36934468865E+03  0.00000000000E+00 0.  1.
         25    1    1    2    0    0 -0.68439351333E+02 -0.69807685315E+02  0.31128718078E+02  0.16171287775E+03  0.12500000000E+03 0.  0.
         25    1    1    2    0    0  0.33398928482E+02 -0.10606544150E+03  0.54024732421E+03  0.56555949079E+03  0.12500000000E+03 0.  0.
         25    1    1    2    0    0  0.35040422851E+02  0.17587312682E+03 -0.25040067984E+03  0.33239237121E+03  0.12500000000E+03 0.  0.
</event>
<event>
 5    0  0.5641283E-005  0.2493143E+03  0.7546771E-02  0.1113739E+00
         21   -1    0    0  502  501  0.00000000000E+00  0.00000000000E+00  0.12672507269E+03  0.12672507269E+03  0.00000000000E+00 0.  1.
         21   -1    0    0  501  502 -0.00000000000E+00 -0.00000000000E+00 -0.49049207441E+03  0.49049207441E+03  0.00000000000E+00 0.  1.
         25    1    1    2    0    0  0.55460789172E+02  0.31289290421E+02 -0.31891662943E+02  0.14386450916E+03  0.12500000000E+03 0.  0.
         25    1    1    2    0    0 -0.56005062239E+02  0.86635028614E+02 -0.19566213747E+03  0.25406862699E+03  0.12500000000E+03 0.  0.
         25    1    1    2    0    0  0.54427306661E+00 -0.11792431903E+03 -0.13621320130E+03  0.21928401096E+03  0.12500000000E+03 0.  0.
</event>
<event>
 5    0  0.5641283E-005  0.4526725E+03  0.7546771E-02  0.1026928E+00
         21   -1    0    0  502  501  0.00000000000E+00  0.00000000000E+00  0.24479453869E+03  0.24479453869E+03  0.00000000000E+00 0. -1.
         21   -1    0    0  501  502 -0.00000000000E+00 -0.00000000000E+00 -0.83707917318E+03  0.83707917318E+03  0.00000000000E+00 0. -1.
         25    1    1    2    0    0  0.48180533150E+02  0.29229075319E+03 -0.25178608567E+03  0.40838276299E+03  0.12500000000E+03 0.  0.
         25    1    1    2    0    0 -0.10759807271E+03 -0.11571250381E+03 -0.39428527626E+03  0.44277828297E+03  0.12500000000E+03 0.  0.
         25    1    1    2    0    0  0.59417539561E+02 -0.17657824938E+03  0.53786727435E+02  0.23071266590E+03  0.12500000000E+03 0.  0.
</event>
<event>
 5    0  0.5641283E-005  0.2221786E+03  0.7546771E-02  0.1132269E+00
         21   -1    0    0  502  501  0.00000000000E+00  0.00000000000E+00  0.12095872799E+03  0.12095872799E+03  0.00000000000E+00 0.  1.
         21   -1    0    0  501  502 -0.00000000000E+00 -0.00000000000E+00 -0.40810071431E+03  0.40810071431E+03  0.00000000000E+00 0.  1.
         25    1    1    2    0    0 -0.39797191771E+02 -0.16211165314E+02 -0.15966477227E+03  0.20727869610E+03  0.12500000000E+03 0.  0.
         25    1    1    2    0    0  0.78155220587E+02  0.23093322315E+02 -0.16475072485E+02  0.15012650683E+03  0.12500000000E+03 0.  0.
         25    1    1    2    0    0 -0.38358028816E+02 -0.68821570008E+01 -0.11100214156E+03  0.17165423936E+03  0.12500000000E+03 0.  0.
</event>
<event>
 5    0  0.5681528E-005  0.2330473E+03  0.7546771E-02  0.1124513E+00
         21   -1    0    0  502  501  0.00000000000E+00  0.00000000000E+00  0.12866688892E+03  0.12866688892E+03  0.00000000000E+00 0. -1.
         21   -1    0    0  501  502 -0.00000000000E+00 -0.00000000000E+00 -0.42210586046E+03  0.42210586046E+03  0.00000000000E+00 0. -1.
         25    1    1    2    0    0 -0.44631200485E+02  0.48066980880E+02 -0.28389360678E+02  0.14399074452E+03  0.12500000000E+03 0.  0.
         25    1    1    2    0    0  0.80261705126E+02 -0.84068474300E+02 -0.17593630393E+03  0.24512860445E+03  0.12500000000E+03 0.  0.
         25    1    1    2    0    0 -0.35630504640E+02  0.36001493420E+02 -0.89113306929E+02  0.16165340040E+03  0.12500000000E+03 0.  0.
</event>
<event>
 5    0  0.5641283E-005  0.5267793E+03  0.7546771E-02  0.1007016E+00
         21   -1    0    0  502  501  0.00000000000E+00  0.00000000000E+00  0.32559441872E+03  0.32559441872E+03  0.00000000000E+00 0. -1.
         21   -1    0    0  501  502 -0.00000000000E+00 -0.00000000000E+00 -0.85227626535E+03  0.85227626535E+03  0.00000000000E+00 0. -1.
         25    1    1    2    0    0 -0.19003807629E+03 -0.19796950241E+03 -0.61108493221E+03  0.68143685599E+03  0.12500000000E+03 0.  0.
         25    1    1    2    0    0  0.10250398630E+03 -0.63500428346E+02 -0.23016935288E+02  0.17519746265E+03  0.12500000000E+03 0.  0.
         25    1    1    2    0    0  0.87534089987E+02  0.26146993075E+03  0.10742002087E+03  0.32123636544E+03  0.12500000000E+03 0.  0.
</event>
<event>
 5    0  0.6728392E-005  0.3397079E+03  0.7546771E-02  0.1066920E+00
         21   -1    0    0  502  501  0.00000000000E+00  0.00000000000E+00  0.68956960055E+03  0.68956960055E+03  0.00000000000E+00 0. -1.
         21   -1    0    0  501  502 -0.00000000000E+00 -0.00000000000E+00 -0.16735282910E+03  0.16735282910E+03  0.00000000000E+00 0. -1.
         25    1    1    2    0    0 -0.17097964182E+03  0.27196247746E+02  0.21328519656E+03  0.30180995491E+03  0.12500000000E+03 0.  0.
         25    1    1    2    0    0  0.14980321578E+03  0.12854997802E+03  0.25771111145E+03  0.34785933547E+03  0.12500000000E+03 0.  0.
         25    1    1    2    0    0  0.21176426038E+02 -0.15574622577E+03  0.51220463438E+02  0.20725313927E+03  0.12500000000E+03 0.  0.
</event>
<event>
 5    0  0.5641283E-005  0.2473917E+03  0.7546771E-02  0.1114964E+00
         21   -1    0    0  502  501  0.00000000000E+00  0.00000000000E+00  0.41086952870E+02  0.41086952870E+02  0.00000000000E+00 0. -1.
         21   -1    0    0  501  502 -0.00000000000E+00 -0.00000000000E+00 -0.14895884987E+04  0.14895884987E+04  0.00000000000E+00 0. -1.
         25    1    1    2    0    0 -0.11250857776E+03  0.27941153437E+02 -0.48137109115E+03  0.51066820492E+03  0.12500000000E+03 0.  0.
         25    1    1    2    0    0 -0.59396065151E+01 -0.65339917977E+02 -0.53535876908E+03  0.55365927738E+03  0.12500000000E+03 0.  0.
         25    1    1    2    0    0  0.11844818428E+03  0.37398764540E+02 -0.43177168565E+03  0.46634796931E+03  0.12500000000E+03 0.  0.
</event>
<event>
 5    0  0.5641283E-005  0.2151926E+03  0.7546771E-02  0.1137519E+00
         21   -1    0    0  502  501  0.00000000000E+00  0.00000000000E+00  0.12923388801E+03  0.12923388801E+03  0.00000000000E+00 0. -1.
         21   -1    0    0  501  502 -0.00000000000E+00 -0.00000000000E+00 -0.35832604021E+03  0.35832604021E+03  0.00000000000E+00 0. -1.
         25    1    1    2    0    0 -0.20412045787E+02  0.66542251808E+02 -0.22762877362E+02  0.14487122376E+03  0.12500000000E+03 0.  0.
         25    1    1    2    0    0  0.43809465869E+02 -0.31774665814E+02 -0.70412616370E+02  0.15333569458E+03  0.12500000000E+03 0.  0.
         25    1    1    2    0    0 -0.23397420082E+02 -0.34767585993E+02 -0.13591665847E+03  0.18935300988E+03  0.12500000000E+03 0.  0.
</event>
<event>
 5    0  0.5641283E-005  0.3727917E+03  0.7546771E-02  0.1053631E+00
         21   -1    0    0  502  501  0.00000000000E+00  0.00000000000E+00  0.98227653468E+03  0.98227653468E+03  0.00000000000E+00 0. -1.
         21   -1    0    0  501  502 -0.00000000000E+00 -0.00000000000E+00 -0.14148118269E+03  0.14148118269E+03  0.00000000000E+00 0. -1.
         25    1    1    2    0    0  0.39055810683E+02 -0.11581982259E+02  0.14956495444E+03  0.19913355884E+03  0.12500000000E+03 0.  0.
         25    1    1    2    0    0  0.10241662541E+03 -0.21780289315E+03  0.50721662952E+03  0.57517038752E+03  0.12500000000E+03 0.  0.
         25    1    1    2    0    0 -0.14147243609E+03  0.22938487540E+03  0.18401376804E+03  0.34945377100E+03  0.12500000000E+03 0.  0.
</event>
<event>
 5    0  0.5641283E-005  0.3400698E+03  0.7546771E-02  0.1066766E+00
         21   -1    0    0  502  501  0.00000000000E+00  0.00000000000E+00  0.85974293195E+03  0.85974293195E+03  0.00000000000E+00 0. -1.
         21   -1    0    0  501  502 -0.00000000000E+00 -0.00000000000E+00 -0.13451400203E+03  0.13451400203E+03  0.00000000000E+00 0. -1.
         25    1    1    2    0    0 -0.22630242051E+03  0.28867046479E+02  0.33819609454E+03  0.42667047034E+03  0.12500000000E+03 0.  0.
         25    1    1    2    0    0  0.12088302246E+03 -0.79713576799E+02  0.63542523869E+02  0.20156788382E+03  0.12500000000E+03 0.  0.
         25    1    1    2    0    0  0.10541939804E+03  0.50846530320E+02  0.32349031151E+03  0.36601857982E+03  0.12500000000E+03 0.  0.
</event>
<event>
 5    0  0.5641283E-005  0.2627848E+03  0.7546771E-02  0.1105482E+00
         21   -1    0    0  502  501  0.00000000000E+00  0.00000000000E+00  0.43368562905E+03  0.43368562905E+03  0.00000000000E+00 0.  1.
         21   -1    0    0  501  502 -0.00000000000E+00 -0.00000000000E+00 -0.15923020476E+03  0.15923020476E+03  0.00000000000E+00 0.  1.
         25    1    1    2    0    0 -0.14254436204E+03 -0.53587714568E+01  0.15090592281E+02  0.19026386298E+03  0.12500000000E+03 0.  0.
         25    1    1    2    0    0  0.40365973572E+02  0.31204471896E+02  0.16739738914E+03  0.21505817069E+03  0.12500000000E+03 0.  0.
         25    1    1    2    0    0  0.10217838847E+03 -0.25845700439E+02  0.91967442872E+02  0.18759380014E+03  0.12500000000E+03 0.  0.
</event>
<event>
 5    0  0.5641283E-005  0.3547117E+03  0.7546771E-02  0.1060698E+00
         21   -1    0    0  502  501  0.00000000000E+00  0.00000000000E+00  0.19357349941E+03  0.19357349941E+03  0.00000000000E+00 0.  1.
         21   -1    0    0  501  502 -0.00000000000E+00 -0.00000000000E+00 -0.64998753038E+03  0.64998753038E+03  0.00000000000E+00 0.  1.
         25    1    1    2    0    0 -0.22668149660E+03 -0.80627473804E+01 -0.11821160563E+03  0.28469016931E+03  0.12500000000E+03 0.  0.
         25    1    1    2    0    0  0.17926515157E+03  0.73219904317E+02 -0.51913788880E+02  0.23625661987E+03  0.12500000000E+03 0.  0.
         25    1    1    2    0    0  0.47416345028E+02 -0.65157156936E+02 -0.28628863645E+03  0.32261424060E+03  0.12500000000E+03 0.  0.
</event>
<event>
 5    0  0.5641283E-005  0.3701422E+03  0.7546771E-02  0.1054639E+00
         21   -1    0    0  502  501  0.00000000000E+00  0.00000000000E+00  0.15523697354E+03  0.15523697354E+03  0.00000000000E+00 0.  1.
         21   -1    0    0  501  502 -0.00000000000E+00 -0.00000000000E+00 -0.88255532521E+03  0.88255532521E+03  0.00000000000E+00 0.  1.
         25    1    1    2    0    0  0.15925760331E+03  0.25493426944E+03 -0.28992489772E+03  0.43593108661E+03  0.12500000000E+03 0.  0.
         25    1    1    2    0    0 -0.89238424912E+02 -0.11394562941E+03 -0.11873432123E+03  0.22509984891E+03  0.12500000000E+03 0.  0.
         25    1    1    2    0    0 -0.70019178401E+02 -0.14098864004E+03 -0.31865913272E+03  0.37676136324E+03  0.12500000000E+03 0.  0.
</event>
<event>
 5    0  0.5641283E-005  0.3107581E+03  0.7546771E-02  0.1079983E+00
         21   -1    0    0  502  501  0.00000000000E+00  0.00000000000E+00  0.16877949170E+04  0.16877949170E+04  0.00000000000E+00 0.  1.
         21   -1    0    0  501  502 -0.00000000000E+00 -0.00000000000E+00 -0.57217018482E+02  0.57217018482E+02  0.00000000000E+00 0.  1.
         25    1    1    2    0    0  0.35700089247E+02 -0.94331782618E+02  0.19944711137E+03  0.25608032298E+03  0.12500000000E+03 0.  0.
         25    1    1    2    0    0  0.40935447604E+02 -0.82728366723E+02  0.33967958145E+03  0.37353301272E+03  0.12500000000E+03 0.  0.
         25    1    1    2    0    0 -0.76635536850E+02  0.17706014934E+03  0.10914512057E+04  0.11153985998E+04  0.12500000000E+03 0.  0.
</event>
<event>
 5    0  0.5641283E-005  0.3712439E+03  0.7546771E-02  0.1054218E+00
         21   -1    0    0  502  501  0.00000000000E+00  0.00000000000E+00  0.38048938748E+03  0.38048938748E+03  0.00000000000E+00 0. -1.
         21   -1    0    0  501  502 -0.00000000000E+00 -0.00000000000E+00 -0.36222306407E+03  0.36222306407E+03  0.00000000000E+00 0. -1.
         25    1    1    2    0    0  0.15857678661E+03 -0.17453047963E+03 -0.12697345425E+03  0.29555835913E+03  0.12500000000E+03 0.  0.
         25    1    1    2    0    0 -0.39577619518E+02  0.20732202056E+03  0.10557942944E+03  0.26705958904E+03  0.12500000000E+03 0.  0.
         25    1    1    2    0    0 -0.11899916709E+03 -0.32791540936E+02  0.39660348227E+02  0.18009450338E+03  0.12500000000E+03 0.  0.
</event>
<event>
 5    0  0.5641283E-005  0.3869131E+03  0.7546771E-02  0.1048408E+00
         21   -1    0    0  502  501  0.00000000000E+00  0.00000000000E+00  0.22995084166E+03  0.22995084166E+03  0.00000000000E+00 0.  1.
         21   -1    0    0  501  502 -0.00000000000E+00 -0.00000000000E+00 -0.65101646608E+03  0.65101646608E+03  0.00000000000E+00 0.  1.
         25    1    1    2    0    0 -0.63115775065E+02 -0.13290924782E+03 -0.24695613145E+03  0.31346578773E+03  0.12500000000E+03 0.  0.
         25    1    1    2    0    0  0.62091283155E+02  0.16559270606E+03  0.11904994341E+03  0.24713186919E+03  0.12500000000E+03 0.  0.
         25    1    1    2    0    0  0.10244919106E+01 -0.32683458242E+02 -0.29315943637E+03  0.32036965081E+03  0.12500000000E+03 0.  0.
</event>
<event>
 5    0  0.5754397E-005  0.2593636E+03  0.7546771E-02  0.1107526E+00
         21   -1    0    0  502  501  0.00000000000E+00  0.00000000000E+00  0.43831678021E+03  0.43831678021E+03  0.00000000000E+00 0. -1.
         21   -1    0    0  501  502 -0.00000000000E+00 -0.00000000000E+00 -0.15347231593E+03  0.15347231593E+03  0.00000000000E+00 0. -1.
         25    1    1    2    0    0  0.47337772355E+02  0.63637691173E+02  0.43081876125E+02  0.15418063588E+03  0.12500000000E+03 0.  0.
         25    1    1    2    0    0  0.54649067899E+02 -0.11485977568E+03  0.19005233739E+03  0.26062267676E+03  0.12500000000E+03 0.  0.
         25    1    1    2    0    0 -0.10198684025E+03  0.51222084506E+02  0.51710250765E+02  0.17698578350E+03  0.12500000000E+03 0.  0.
</event>
<event>
 5    0  0.5641283E-005  0.2210984E+03  0.7546771E-02  0.1133067E+00
         21   -1    0    0  502  501  0.00000000000E+00  0.00000000000E+00  0.68489058055E+02  0.68489058055E+02  0.00000000000E+00 0.  1.
         21   -1    0    0  501  502 -0.00000000000E+00 -0.00000000000E+00 -0.71375615652E+03  0.71375615652E+03  0.00000000000E+00 0.  1.
         25    1    1    2    0    0 -0.17273371733E+02  0.71639157417E+02 -0.32401802149E+03  0.35502565611E+03  0.12500000000E+03 0.  0.
         25    1    1    2    0    0  0.12426927940E+02  0.14932639760E+02 -0.17713418580E+03  0.21766702104E+03  0.12500000000E+03 0.  0.
         25    1    1    2    0    0  0.48464437929E+01 -0.86571797176E+02 -0.14411489117E+03  0.20955253743E+03  0.12500000000E+03 0.  0.
</event>
<event>
 5    0  0.5641283E-005  0.4892435E+03  0.7546771E-02  0.1016625E+00
         21   -1    0    0  502  501  0.00000000000E+00  0.00000000000E+00  0.11770182841E+04  0.11770182841E+04  0.00000000000E+00 0. -1.
         21   -1    0    0  501  502 -0.00000000000E+00 -0.00000000000E+00 -0.20336068934E+03  0.20336068934E+03  0.00000000000E+00 0. -1.
         25    1    1    2    0    0  0.30294470288E+02  0.15238906659E+03  0.32429595230E+03  0.38070073184E+03  0.12500000000E+03 0.  0.
         25    1    1    2    0    0 -0.25815529157E+03 -0.11059724782E+03  0.92437993200E+01  0.30754894508E+03  0.12500000000E+03 0.  0.
         25    1    1    2    0    0  0.22786082128E+03 -0.41791818765E+02  0.64011784317E+03  0.69212929654E+03  0.12500000000E+03 0.  0.
</event>
<event>
 5    0  0.5641283E-005  0.3591612E+03  0.7546771E-02  0.1058916E+00
         21   -1    0    0  502  501  0.00000000000E+00  0.00000000000E+00  0.11020675047E+04  0.11020675047E+04  0.00000000000E+00 0. -1.
         21   -1    0    0  501  502 -0.00000000000E+00 -0.00000000000E+00 -0.11704979258E+03  0.11704979258E+03  0.00000000000E+00 0. -1.
         25    1    1    2    0    0 -0.88833313324E+02 -0.18613310056E+03  0.24120528278E+03  0.34108925096E+03  0.12500000000E+03 0.  0.
         25    1    1    2    0    0 -0.39951657061E+02  0.22552072303E+03  0.29947423904E+03  0.39719711891E+03  0.12500000000E+03 0.  0.
         25    1    1    2    0    0  0.12878497038E+03 -0.39387622478E+02  0.44433819032E+03  0.48083092744E+03  0.12500000000E+03 0.  0.
</event>
<event>
 5    0  0.5641283E-005  0.2367078E+03  0.7546771E-02  0.1122006E+00
         21   -1    0    0  502  501  0.00000000000E+00  0.00000000000E+00  0.44597985832E+02  0.44597985832E+02  0.00000000000E+00 0. -1.
         21   -1    0    0  501  502 -0.00000000000E+00 -0.00000000000E+00 -0.12563482307E+04  0.12563482307E+04  0.00000000000E+00 0. -1.
         25    1    1    2    0    0 -0.72711058227E+02 -0.57277648699E+02 -0.29246303188E+03  0.33125104082E+03  0.12500000000E+03 0.  0.
         25    1    1    2    0    0 -0.66768031005E+01  0.71398595224E+01 -0.22070408195E+03  0.25383232474E+03  0.12500000000E+03 0.  0.
         25    1    1    2    0    0  0.79387861328E+02  0.50137789176E+02 -0.69858313104E+03  0.71586285098E+03  0.12500000000E+03 0.  0.
</event>
<event>
 5    0  0.5641283E-005  0.3936463E+03  0.7546771E-02  0.1046002E+00
         21   -1    0    0  502  501  0.00000000000E+00  0.00000000000E+00  0.46510525644E+03  0.46510525644E+03  0.00000000000E+00 0. -1.
         21   -1    0    0  501  502 -0.00000000000E+00 -0.00000000000E+00 -0.33316624706E+03  0.33316624706E+03  0.00000000000E+00 0. -1.
         25    1    1    2    0    0 -0.17450252128E+02 -0.13907586367E+03  0.72639795163E+02  0.20136570462E+03  0.12500000000E+03 0.  0.
         25    1    1    2    0    0 -0.20015797894E+03  0.11466222157E+02 -0.11810514624E+03  0.26413730587E+03  0.12500000000E+03 0.  0.
         25    1    1    2    0    0  0.21760823107E+03  0.12760964151E+03  0.17740436045E+03  0.33276849302E+03  0.12500000000E+03 0.  0.
</event>
<event>
 5    0  0.5641283E-005  0.3303329E+03  0.7546771E-02  0.1070990E+00
         21   -1    0    0  502  501  0.00000000000E+00  0.00000000000E+00  0.15431125383E+03  0.15431125383E+03  0.00000000000E+00 0.  1.
         21   -1    0    0  501  502 -0.00000000000E+00 -0.00000000000E+00 -0.70714123171E+03  0.70714123171E+03  0.00000000000E+00 0.  1.
         25    1    1    2    0    0  0.37554644793E+02 -0.16543014909E+03 -0.95328757951E+02  0.23127917690E+03  0.12500000000E+03 0.  0.
         25    1    1    2    0    0 -0.44557801679E+02 -0.81933310746E+02 -0.17324582571E+03  0.23310422824E+03  0.12500000000E+03 0.  0.
         25    1    1    2    0    0  0.70031568862E+01  0.24736345984E+03 -0.28425539421E+03  0.39706908040E+03  0.12500000000E+03 0.  0.
</event>
<event>
 5    0  0.5641283E-005  0.2907988E+03  0.7546771E-02  0.1089933E+00
         21   -1    0    0  502  501  0.00000000000E+00  0.00000000000E+00  0.45923633403E+02  0.45923633403E+02  0.00000000000E+00 0.  1.
         21   -1    0    0  501  502 -0.00000000000E+00 -0.00000000000E+00 -0.18414035737E+04  0.18414035737E+04  0.00000000000E+00 0.  1.
         25    1    1    2    0    0  0.83634892504E+02 -0.63390645467E+02 -0.10886927695E+04  0.11008588082E+04  0.12500000000E+03 0.  0.
         25    1    1    2    0    0 -0.83444957466E+02 -0.62252792365E+02 -0.27182907219E+03  0.31678780843E+03  0.12500000000E+03 0.  0.
         25    1    1    2    0    0 -0.18993503741E+00  0.12564343783E+03 -0.43495809863E+03  0.46968059052E+03  0.12500000000E+03 0.  0.
</event>
<event>
 5    0  0.5641283E-005  0.2216763E+03  0.7546771E-02  0.1132639E+00
         21   -1    0    0  502  501  0.00000000000E+00  0.00000000000E+00  0.31714464578E+03  0.31714464578E+03  0.00000000000E+00 0. -1.
         21   -1    0    0  501  502 -0.00000000000E+00 -0.00000000000E+00 -0.15494628185E+03  0.15494628185E+03  0.00000000000E+00 0. -1.
         25    1    1    2    0    0  0.44141875971E+02  0.10105516062E+02  0.11152813241E+03  0.17353429341E+03  0.12500000000E+03 0.  0.
         25    1    1    2    0    0 -0.48454945505E+02  0.42062411668E+02 -0.25943078747E+02  0.14288166976E+03  0.12500000000E+03 0.  0.
         25    1    1    2    0    0  0.43130695337E+01 -0.52167927730E+02  0.76613310268E+02  0.15567496447E+03  0.12500000000E+03 0.  0.
</event>
<event>
 5    0  0.5641283E-005  0.3291190E+03  0.7546771E-02  0.1071527E+00
         21   -1    0    0  502  501  0.00000000000E+00  0.00000000000E+00  0.32315122253E+03  0.32315122253E+03  0.00000000000E+00 0.  1.
         21   -1    0    0  501  502 -0.00000000000E+00 -0.00000000000E+00 -0.33519693159E+03  0.33519693159E+03  0.00000000000E+00 0.  1.
         25    1    1    2    0    0  0.30673605741E+02 -0.62373707135E+02  0.21978517910E+03  0.26222485462E+03  0.12500000000E+03 0.  0.
         25    1    1    2    0    0 -0.66853261642E+02  0.11226914327E+03 -0.14633060546E+03  0.23261849715E+03  0.12500000000E+03 0.  0.
         25    1    1    2    0    0  0.36179655901E+02 -0.49895436131E+02 -0.85500282695E+02  0.16350480234E+03  0.12500000000E+03 0.  0.
</event>
<event>
 5    0  0.5641283E-005  0.2095282E+03  0.7546771E-02  0.1141940E+00
         21   -1    0    0  502  501  0.00000000000E+00  0.00000000000E+00  0.34402542066E+02  0.34402542066E+02  0.00000000000E+00 0.  1.
         21   -1    0    0  501  502 -0.00000000000E+00 -0.00000000000E+00 -0.12761280234E+04  0.12761280234E+04  0.00000000000E+00 0.  1.
         25    1    1    2    0    0 -0.35966621205E+02 -0.21374911279E+01 -0.59577013739E+03  0.60980752973E+03  0.12500000000E+03 0.  0.
         25    1    1    2    0    0 -0.76392599481E+01  0.42184286114E+02 -0.28391839422E+03  0.31316533471E+03  0.12500000000E+03 0.  0.
         25    1    1    2    0    0  0.43605881153E+02 -0.40046794986E+02 -0.36203694974E+03  0.38755770104E+03  0.12500000000E+03 0.  0.
</event>
<event>
 5    0  0.5641283E-005  0.4377803E+03  0.7546771E-02  0.1031430E+00
         21   -1    0    0  502  501  0.00000000000E+00  0.00000000000E+00  0.76369812312E+03  0.76369812312E+03  0.00000000000E+00 0.  1.
         21   -1    0    0  501  502 -0.00000000000E+00 -0.00000000000E+00 -0.25095205725E+03  0.25095205725E+03  0.00000000000E+00 0.  1.
         25    1    1    2    0    0 -0.87346742938E+02 -0.45390479961E+02 -0.66074184823E+02  0.17228043149E+03  0.12500000000E+03 0.  0.
         25    1    1    2    0    0  0.27329777431E+03  0.16535495023E+03  0.42162263323E+03  0.54352973963E+03  0.12500000000E+03 0.  0.
         25    1    1    2    0    0 -0.18595103137E+03 -0.11996447027E+03  0.15719761747E+03  0.29884000926E+03  0.12500000000E+03 0.  0.
</event>
<event>
 5    0  0.5641283E-005  0.2557916E+03  0.7546771E-02  0.1109698E+00
         21   -1    0    0  502  501  0.00000000000E+00  0.00000000000E+00  0.20871700398E+03  0.20871700398E+03  0.00000000000E+00 0. -1.
         21   -1    0    0  501  502 -0.00000000000E+00 -0.00000000000E+00 -0.31348362987E+03  0.31348362987E+03  0.00000000000E+00 0. -1.
         25    1    1    2    0    0  0.34168266040E+02 -0.24357187228E+02  0.99615251624E+02  0.16525417190E+03  0.12500000000E+03 0.  0.
         25    1    1    2    0    0  0.30799462484E+02 -0.29929413280E+02 -0.50834796250E+02  0.14161056874E+03  0.12500000000E+03 0.  0.
         25    1    1    2    0    0 -0.64967728524E+02  0.54286600507E+02 -0.15354708126E+03  0.21533589322E+03  0.12500000000E+03 0.  0.
</event>
<event>
 5    0  0.6612221E-005  0.2786493E+03  0.7546771E-02  0.1096429E+00
         21   -1    0    0  502  501  0.00000000000E+00  0.00000000000E+00  0.26066786820E+03  0.26066786820E+03  0.00000000000E+00 0.  1.
         21   -1    0    0  501  502 -0.00000000000E+00 -0.00000000000E+00 -0.29787120864E+03  0.29787120864E+03  0.00000000000E+00 0.  1.
         25    1    1    2    0    0  0.72555191795E+02 -0.13926100935E+03 -0.13803811239E+03  0.24359270320E+03  0.12500000000E+03 0.  0.
         25    1    1    2    0    0 -0.49246914813E+02  0.51842401189E+02  0.51720161382E+02  0.15301264089E+03  0.12500000000E+03 0.  0.
         25    1    1    2    0    0 -0.23308276982E+02  0.87418608157E+02  0.49114610576E+02  0.16193373274E+03  0.12500000000E+03 0.  0.
</event>
<event>
 5    0  0.5641283E-005  0.3556652E+03  0.7546771E-02  0.1060314E+00
         21   -1    0    0  502  501  0.00000000000E+00  0.00000000000E+00  0.79161231942E+03  0.79161231942E+03  0.00000000000E+00 0.  1.
         21   -1    0    0  501  502 -0.00000000000E+00 -0.00000000000E+00 -0.15979755621E+03  0.15979755621E+03  0.00000000000E+00 0.  1.
         25    1    1    2    0    0  0.15433488499E+03  0.13706910539E+03  0.30908516004E+03  0.39212986692E+03  0.12500000000E+03 0.  0.
         25    1    1    2    0    0 -0.71938127479E+02 -0.37722912492E+01  0.32845442403E+03  0.35874312960E+03  0.12500000000E+03 0.  0.
         25    1    1    2    0    0 -0.82396757506E+02 -0.13329681414E+03 -0.57248208618E+01  0.20053687911E+03  0.12500000000E+03 0.  0.
</event>
<event>
 5    0  0.5641283E-005  0.3610873E+03  0.7546771E-02  0.1058154E+00
         21   -1    0    0  502  501  0.00000000000E+00  0.00000000000E+00  0.37620764974E+03  0.37620764974E+03  0.00000000000E+00 0.  1.
         21   -1    0    0  501  502 -0.00000000000E+00 -0.00000000000E+00 -0.34657458987E+03  0.34657458987E+03  0.00000000000E+00 0.  1.
         25    1    1    2    0    0  0.18057005649E+03 -0.74917079501E+02  0.12591368468E+02  0.23238256531E+03  0.12500000000E+03 0.  0.
         25    1    1    2    0    0 -0.16041617140E+03  0.21814080025E+03  0.23197109830E+02  0.29913519132E+03  0.12500000000E+03 0.  0.
         25    1    1    2    0    0 -0.20153885087E+02 -0.14322372075E+03 -0.61554184308E+01  0.19126448297E+03  0.12500000000E+03 0.  0.
</event>
<event>
 5    0  0.5641283E-005  0.3743519E+03  0.7546771E-02  0.1053041E+00
         21   -1    0    0  502  501  0.00000000000E+00  0.00000000000E+00  0.14724951547E+03  0.14724951547E+03  0.00000000000E+00 0.  1.
         21   -1    0    0  501  502 -0.00000000000E+00 -0.00000000000E+00 -0.95171345183E+03  0.95171345183E+03  0.00000000000E+00 0.  1.
         25    1    1    2    0    0 -0.16637730679E+03  0.20971612791E+03 -0.46207089352E+03  0.54844942626E+03  0.12500000000E+03 0.  0.
         25    1    1    2    0    0  0.65613204271E+02 -0.16164074969E+03 -0.31429116604E+03  0.38057425239E+03  0.12500000000E+03 0.  0.
         25    1    1    2    0    0  0.10076410252E+03 -0.48075378214E+02 -0.28101876804E+02  0.16993928865E+03  0.12500000000E+03 0.  0.
</event>
<event>
 5    0  0.5641283E-005  0.3564874E+03  0.7546771E-02  0.1059983E+00
         21   -1    0    0  502  501  0.00000000000E+00  0.00000000000E+00  0.10019811648E+03  0.10019811648E+03  0.00000000000E+00 0.  1.
         21   -1    0    0  501  502 -0.00000000000E+00 -0.00000000000E+00 -0.12683198042E+04  0.12683198042E+04  0.00000000000E+00 0.  1.
         25    1    1    2    0    0  0.14657187010E+03 -0.76295015475E+02 -0.69320145085E+03  0.72350362400E+03  0.12500000000E+03 0.  0.
         25    1    1    2    0    0 -0.17897333509E+03 -0.77556519137E+02 -0.21102869893E+03  0.31337610009E+03  0.12500000000E+03 0.  0.
         25    1    1    2    0    0  0.32401464991E+02  0.15385153461E+03 -0.26389153798E+03  0.33163819661E+03  0.12500000000E+03 0.  0.
</event>
<event>
 5    0  0.5641283E-005  0.3151246E+03  0.7546771E-02  0.1077915E+00
         21   -1    0    0  502  501  0.00000000000E+00  0.00000000000E+00  0.25337105683E+03  0.25337105683E+03  0.00000000000E+00 0. -1.
         21   -1    0    0  501  502 -0.00000000000E+00 -0.00000000000E+00 -0.39192915677E+03  0.39192915677E+03  0.00000000000E+00 0. -1.
         25    1    1    2    0    0  0.12594619918E+03  0.87997953343E+02 -0.40545130331E+02  0.20217564758E+03  0.12500000000E+03 0.  0.
         25    1    1    2    0    0 -0.12070292127E+03  0.20598304545E+02  0.86464060691E+02  0.19517817282E+03  0.12500000000E+03 0.  0.
         25    1    1    2    0    0 -0.52432779093E+01 -0.10859625789E+03 -0.18447703031E+03  0.24794639320E+03  0.12500000000E+03 0.  0.
</event>
<event>
 5    0  0.5641283E-005  0.3174219E+03  0.7546771E-02  0.1076842E+00
         21   -1    0    0  502  501  0.00000000000E+00  0.00000000000E+00  0.22773335320E+03  0.22773335320E+03  0.00000000000E+00 0.  1.
         21   -1    0    0  501  502 -0.00000000000E+00 -0.00000000000E+00 -0.44243250083E+03  0.44243250083E+03  0.00000000000E+00 0.  1.
         25    1    1    2    0    0 -0.16225809358E+03  0.42411052405E+02  0.85302900298E+02  0.22589371637E+03  0.12500000000E+03 0.  0.
         25    1    1    2    0    0  0.35643913144E+02 -0.54979947651E+02 -0.18240572884E+03  0.23062986169E+03  0.12500000000E+03 0.  0.
         25    1    1    2    0    0  0.12661418044E+03  0.12568895246E+02 -0.11759631909E+03  0.21364227596E+03  0.12500000000E+03 0.  0.
</event>
<event>
 5    0  0.5641283E-005  0.2231269E+03  0.7546771E-02  0.1131573E+00
         21   -1    0    0  502  501  0.00000000000E+00  0.00000000000E+00  0.34453106312E+03  0.34453106312E+03  0.00000000000E+00 0.  1.
         21   -1    0    0  501  502 -0.00000000000E+00 -0.00000000000E+00 -0.14450249639E+03  0.14450249639E+03  0.00000000000E+00 0.  1.
         25    1    1    2    0    0 -0.49935851211E+01  0.22941681916E+02  0.89709119413E+02  0.15564055631E+03  0.12500000000E+03 0.  0.
         25    1    1    2    0    0 -0.82181547651E+02 -0.36130663001E+02  0.18548991004E+02  0.15501063399E+03  0.12500000000E+03 0.  0.
         25    1    1    2    0    0  0.87175132772E+02  0.13188981085E+02  0.91770456308E+02  0.17838236922E+03  0.12500000000E+03 0.  0.
</event>
<event>
 5    0  0.5641283E-005  0.2902655E+03  0.7546771E-02  0.1090211E+00
         21   -1    0    0  502  501  0.00000000000E+00  0.00000000000E+00  0.12092559367E+04  0.12092559367E+04  0.00000000000E+00 0. -1.
         21   -1    0    0  501  502 -0.00000000000E+00 -0.00000000000E+00 -0.69674281571E+02  0.69674281571E+02  0.00000000000E+00 0. -1.
         25    1    1    2    0    0 -0.22013357508E+02  0.26621656087E+02  0.15145050298E+03  0.19938795183E+03  0.12500000000E+03 0.  0.
         25    1    1    2    0    0  0.75907017821E+02  0.12079997289E+03  0.72046296676E+03  0.74501435911E+03  0.12500000000E+03 0.  0.
         25    1    1    2    0    0 -0.53893660312E+02 -0.14742162898E+03  0.26766818538E+03  0.33452790732E+03  0.12500000000E+03 0.  0.
</event>
<event>
 5    0  0.5641283E-005  0.5100185E+03  0.7546771E-02  0.1011197E+00
         21   -1    0    0  502  501  0.00000000000E+00  0.00000000000E+00  0.83008261282E+03  0.83008261282E+03  0.00000000000E+00 0. -1.
         21   -1    0    0  501  502 -0.00000000000E+00 -0.00000000000E+00 -0.31336500784E+03  0.31336500784E+03  0.00000000000E+00 0. -1.
         25    1    1    2    0    0 -0.59436300670E+02  0.21552400109E+03  0.36199956848E+03  0.44345457092E+03  0.12500000000E+03 0.  0.
         25    1    1    2    0    0 -0.16938923950E+03 -0.21821510421E+02 -0.14618085818E+03  0.25722118123E+03  0.12500000000E+03 0.  0.
         25    1    1    2    0    0  0.22882554017E+03 -0.19370249067E+03  0.30089889468E+03  0.44277186852E+03  0.12500000000E+03 0.  0.
</event>
<event>
 5    0  0.5641283E-005  0.2161935E+03  0.7546771E-02  0.1136753E+00
         21   -1    0    0  502  501  0.00000000000E+00  0.00000000000E+00  0.10420142231E+03  0.10420142231E+03  0.00000000000E+00 0. -1.
         21   -1    0    0  501  502 -0.00000000000E+00 -0.00000000000E+00 -0.44855090081E+03  0.44855090081E+03  0.00000000000E+00 0. -1.
         25    1    1    2    0    0 -0.10462177837E+02  0.24685841085E+02 -0.75445116212E+01  0.12806548157E+03  0.12500000000E+03 0.  0.
         25    1    1    2    0    0 -0.73744456875E+01 -0.33246331136E+02 -0.20024726103E+03  0.23850296965E+03  0.12500000000E+03 0.  0.
         25    1    1    2    0    0  0.17836623525E+02  0.85604900503E+01 -0.13655770584E+03  0.18618387190E+03  0.12500000000E+03 0.  0.
</event>
<event>
 5    0  0.5641283E-005  0.2350270E+03  0.7546771E-02  0.1123151E+00
         21   -1    0    0  502  501  0.00000000000E+00  0.00000000000E+00  0.13266486247E+03  0.13266486247E+03  0.00000000000E+00 0. -1.
         21   -1    0    0  501  502 -0.00000000000E+00 -0.00000000000E+00 -0.41637023334E+03  0.41637023334E+03  0.00000000000E+00 0. -1.
         25    1    1    2    0    0  0.60675217834E+02  0.12932743791E+02 -0.20430642256E+03  0.24741635399E+03  0.12500000000E+03 0.  0.
         25    1    1    2    0    0  0.30695540455E+02  0.22232218122E+02 -0.51518076408E+02  0.14041224990E+03  0.12500000000E+03 0.  0.
         25    1    1    2    0    0 -0.91370758289E+02 -0.35164961913E+02 -0.27880871904E+02  0.16120649191E+03  0.12500000000E+03 0.  0.
</event>
<event>
 5    0  0.6722695E-005  0.4286886E+03  0.7546771E-02  0.1034275E+00
         21   -1    0    0  502  501  0.00000000000E+00  0.00000000000E+00  0.10181029065E+04  0.10181029065E+04  0.00000000000E+00 0.  1.
         21   -1    0    0  501  502 -0.00000000000E+00 -0.00000000000E+00 -0.18050622619E+03  0.18050622619E+03  0.00000000000E+00 0.  1.
         25    1    1    2    0    0  0.25448095054E+03 -0.47306278432E+02  0.11613522267E+03  0.31001746421E+03  0.12500000000E+03 0.  0.
         25    1    1    2    0    0 -0.92469671466E+02 -0.15892499952E+03  0.37997101977E+03  0.44023944789E+03  0.12500000000E+03 0.  0.
         25    1    1    2    0    0 -0.16201127908E+03  0.20623127795E+03  0.34149043789E+03  0.44835222061E+03  0.12500000000E+03 0.  0.
</event>
<event>
 5    0  0.5641283E-005  0.2596109E+03  0.7546771E-02  0.1107377E+00
         21   -1    0    0  502  501  0.00000000000E+00  0.00000000000E+00  0.96785581591E+02  0.96785581591E+02  0.00000000000E+00 0. -1.
         21   -1    0    0  501  502 -0.00000000000E+00 -0.00000000000E+00 -0.69636223263E+03  0.69636223263E+03  0.00000000000E+00 0. -1.
         25    1    1    2    0    0 -0.41782153873E+01  0.93568643582E+02 -0.18712194125E+03  0.24374611678E+03  0.12500000000E+03 0.  0.
         25    1    1    2    0    0  0.19818632054E+02 -0.68060910557E+02 -0.31179714203E+02  0.14704502814E+03  0.12500000000E+03 0.  0.
         25    1    1    2    0    0 -0.15640416666E+02 -0.25507733025E+02 -0.38127499558E+03  0.40235666930E+03  0.12500000000E+03 0.  0.
</event>
<event>
 5    0  0.7271981E-005  0.2863863E+03  0.7546771E-02  0.1092251E+00
         21   -1    0    0  502  501  0.00000000000E+00  0.00000000000E+00  0.51253637569E+03  0.51253637569E+03  0.00000000000E+00 0. -1.
         21   -1    0    0  501  502 -0.00000000000E+00 -0.00000000000E+00 -0.16002201266E+03  0.16002201266E+03  0.00000000000E+00 0. -1.
         25    1    1    2    0    0  0.12778612927E+03 -0.73184279143E+02  0.18171707569E+02  0.19401145457E+03  0.12500000000E+03 0.  0.
         25    1    1    2    0    0 -0.14553303006E+03  0.16318102499E+02  0.13231332647E+03  0.23361926219E+03  0.12500000000E+03 0.  0.
         25    1    1    2    0    0  0.17746900789E+02  0.56866176644E+02  0.20202932900E+03  0.24492767159E+03  0.12500000000E+03 0.  0.
</event>
<event>
 5    0  0.5641283E-005  0.2670516E+03  0.7546771E-02  0.1102979E+00
         21   -1    0    0  502  501  0.00000000000E+00  0.00000000000E+00  0.36958699662E+03  0.36958699662E+03  0.00000000000E+00 0. -1.
         21   -1    0    0  501  502 -0.00000000000E+00 -0.00000000000E+00 -0.19296281917E+03  0.19296281917E+03  0.00000000000E+00 0. -1.
         25    1    1    2    0    0 -0.45867281655E+01  0.15835947753E+03 -0.23610939312E+00  0.20180143197E+03  0.12500000000E+03 0.  0.
         25    1    1    2    0    0  0.28505384991E+02 -0.58040162650E+02  0.13115361856E+03  0.19237330666E+03  0.12500000000E+03 0.  0.
         25    1    1    2    0    0 -0.23918656825E+02 -0.10031931488E+03  0.45706668287E+02  0.16837507716E+03  0.12500000000E+03 0.  0.
</event>
<event>
 5    0  0.5641283E-005  0.2425314E+03  0.7546771E-02  0.1118118E+00
         21   -1    0    0  502  501  0.00000000000E+00  0.00000000000E+00  0.37786469555E+04  0.37786469555E+04  0.00000000000E+00 0. -1.
         21   -1    0    0  501  502 -0.00000000000E+00 -0.00000000000E+00 -0.15566815010E+02  0.15566815010E+02  0.00000000000E+00 0. -1.
         25    1    1    2    0    0  0.11181324579E+03  0.76722812359E+02  0.17153402197E+04  0.17252262637E+04  0.12500000000E+03 0.  0.
         25    1    1    2    0    0 -0.69766752341E+02 -0.41679539540E+02  0.13352001956E+04  0.13434988449E+04  0.12500000000E+03 0.  0.
         25    1    1    2    0    0 -0.42046493451E+02 -0.35043272820E+02  0.71253972522E+03  0.72548866194E+03  0.12500000000E+03 0.  0.
</event>
<event>
 5    0  0.5641283E-005  0.2760370E+03  0.7546771E-02  0.1097873E+00
         21   -1    0    0  502  501  0.00000000000E+00  0.00000000000E+00  0.11683938306E+03  0.11683938306E+03  0.00000000000E+00 0.  1.
         21   -1    0    0  501  502 -0.00000000000E+00 -0.00000000000E+00 -0.65214656020E+03  0.65214656020E+03  0.00000000000E+00 0.  1.
         25    1    1    2    0    0  0.55490425715E+02  0.44208870876E+02 -0.17237879045E+03  0.22443943283E+03  0.12500000000E+03 0.  0.
         25    1    1    2    0    0  0.99603717664E+01  0.11673266342E+03 -0.78151877972E+02  0.18830411505E+03  0.12500000000E+03 0.  0.
         25    1    1    2    0    0 -0.65450797482E+02 -0.16094153430E+03 -0.28477650871E+03  0.35624239538E+03  0.12500000000E+03 0.  0.
</event>
<event>
 5    0  0.5641283E-005  0.2779483E+03  0.7546771E-02  0.1096815E+00
         21   -1    0    0  502  501  0.00000000000E+00  0.00000000000E+00  0.42576141280E+03  0.42576141280E+03  0.00000000000E+00 0. -1.
         21   -1    0    0  501  502 -0.00000000000E+00 -0.00000000000E+00 -0.18145200271E+03  0.18145200271E+03  0.00000000000E+00 0. -1.
         25    1    1    2    0    0 -0.10837106509E+02  0.11898319633E+03  0.17297858694E+03  0.24458339156E+03  0.12500000000E+03 0.  0.
         25    1    1    2    0    0  0.31456521217E+02 -0.13355681562E+03  0.12551985164E+03  0.22406956260E+03  0.12500000000E+03 0.  0.
         25    1    1    2    0    0 -0.20619414708E+02  0.14573619287E+02 -0.54189028495E+02  0.13856046136E+03  0.12500000000E+03 0.  0.
</event>
<event>
 5    0  0.5641283E-005  0.3005652E+03  0.7546771E-02  0.1084958E+00
         21   -1    0    0  502  501  0.00000000000E+00  0.00000000000E+00  0.22978909037E+03  0.22978909037E+03  0.00000000000E+00 0.  1.
         21   -1    0    0  501  502 -0.00000000000E+00 -0.00000000000E+00 -0.39314055883E+03  0.39314055883E+03  0.00000000000E+00 0.  1.
         25    1    1    2    0    0 -0.11043392016E+03  0.57441793890E+02 -0.84877826739E+02  0.19576632979E+03  0.12500000000E+03 0.  0.
         25    1    1    2    0    0 -0.19315423209E+02  0.63053855092E+02  0.76507216860E+02  0.16070852015E+03  0.12500000000E+03 0.  0.
         25    1    1    2    0    0  0.12974934337E+03 -0.12049564898E+03 -0.15498085858E+03  0.26645479927E+03  0.12500000000E+03 0.  0.
</event>
<event>
 5    0  0.5641283E-005  0.6980041E+03  0.7546771E-02  0.9720652E-01
         21   -1    0    0  502  501  0.00000000000E+00  0.00000000000E+00  0.73826286678E+03  0.73826286678E+03  0.00000000000E+00 0.  1.
         21   -1    0    0  501  502 -0.00000000000E+00 -0.00000000000E+00 -0.65994065350E+03  0.65994065350E+03  0.00000000000E+00 0.  1.
         25    1    1    2    0    0 -0.15337949957E+03 -0.13327557983E+03 -0.94874247911E+01  0.23875230323E+03  0.12500000000E+03 0.  0.
         25    1    1    2    0    0  0.47521104622E+03 -0.25498680976E+03  0.26065391704E+03  0.61188992153E+03  0.12500000000E+03 0.  0.
         25    1    1    2    0    0 -0.32183154665E+03  0.38826238959E+03 -0.17284427896E+03  0.54756129553E+03  0.12500000000E+03 0.  0.
</event>
<event>
 5    0  0.5641283E-005  0.2966048E+03  0.7546771E-02  0.1086950E+00
         21   -1    0    0  502  501  0.00000000000E+00  0.00000000000E+00  0.25779308031E+03  0.25779308031E+03  0.00000000000E+00 0.  1.
         21   -1    0    0  501  502 -0.00000000000E+00 -0.00000000000E+00 -0.34125970672E+03  0.34125970672E+03  0.00000000000E+00 0.  1.
         25    1    1    2    0    0 -0.10862776770E+03 -0.14445006914E+03 -0.87690977912E+02  0.23660203295E+03  0.12500000000E+03 0.  0.
         25    1    1    2    0    0  0.43656676253E+00  0.93151907888E+02 -0.73924633875E+02  0.17253208405E+03  0.12500000000E+03 0.  0.
         25    1    1    2    0    0  0.10819120094E+03  0.51298161252E+02  0.78148985373E+02  0.18991867002E+03  0.12500000000E+03 0.  0.
</event>
<event>
 5    0  0.5641283E-005  0.2774876E+03  0.7546771E-02  0.1097069E+00
         21   -1    0    0  502  501  0.00000000000E+00  0.00000000000E+00  0.96566027795E+03  0.96566027795E+03  0.00000000000E+00 0. -1.
         21   -1    0    0  501  502 -0.00000000000E+00 -0.00000000000E+00 -0.79737513529E+02  0.79737513529E+02  0.00000000000E+00 0. -1.
         25    1    1    2    0    0 -0.75929496727E+02 -0.41033497673E+02  0.25032861123E+03  0.29281128736E+03  0.12500000000E+03 0.  0.
         25    1    1    2    0    0 -0.49582125878E+01 -0.51181507526E+02  0.54607327307E+02  0.14577753867E+03  0.12500000000E+03 0.  0.
         25    1    1    2    0    0  0.80887709315E+02  0.92215005198E+02  0.58098682588E+03  0.60680896545E+03  0.12500000000E+03 0.  0.
</event>
<event>
 5    0  0.5641283E-005  0.4209695E+03  0.7546771E-02  0.1036751E+00
         21   -1    0    0  502  501  0.00000000000E+00  0.00000000000E+00  0.69163552607E+03  0.69163552607E+03  0.00000000000E+00 0. -1.
         21   -1    0    0  501  502 -0.00000000000E+00 -0.00000000000E+00 -0.25622641951E+03  0.25622641951E+03  0.00000000000E+00 0. -1.
         25    1    1    2    0    0  0.13934080032E+03 -0.48363453345E+01  0.15635072649E+03  0.24394630258E+03  0.12500000000E+03 0.  0.
         25    1    1    2    0    0 -0.82823766340E+02 -0.24663137609E+03 -0.20594033337E+02  0.28937160564E+03  0.12500000000E+03 0.  0.
         25    1    1    2    0    0 -0.56517033982E+02  0.25146772142E+03  0.29965241341E+03  0.41454403736E+03  0.12500000000E+03 0.  0.
</event>
<event>
 5    0  0.5641283E-005  0.2407546E+03  0.7546771E-02  0.1119291E+00
         21   -1    0    0  502  501  0.00000000000E+00  0.00000000000E+00  0.51766678686E+03  0.51766678686E+03  0.00000000000E+00 0.  1.
         21   -1    0    0  501  502 -0.00000000000E+00 -0.00000000000E+00 -0.11196932564E+03  0.11196932564E+03  0.00000000000E+00 0.  1.
         25    1    1    2    0    0  0.24525648597E+02 -0.10706764419E+03  0.99381059196E+02  0.19382100712E+03  0.12500000000E+03 0.  0.
         25    1    1    2    0    0 -0.65741490966E+02  0.45318971775E+02  0.84815913111E+02  0.17086395745E+03  0.12500000000E+03 0.  0.
         25    1    1    2    0    0  0.41215842369E+02  0.61748672420E+02  0.22150048891E+03  0.26495114794E+03  0.12500000000E+03 0.  0.
</event>
<event>
 5    0  0.5641283E-005  0.2754244E+03  0.7546771E-02  0.1098215E+00
         21   -1    0    0  502  501  0.00000000000E+00  0.00000000000E+00  0.87339202308E+02  0.87339202308E+02  0.00000000000E+00 0.  1.
         21   -1    0    0  501  502 -0.00000000000E+00 -0.00000000000E+00 -0.86855160573E+03  0.86855160573E+03  0.00000000000E+00 0.  1.
         25    1    1    2    0    0  0.10533897798E+03 -0.11624618216E+03 -0.45082293088E+03  0.49343266021E+03  0.12500000000E+03 0.  0.
         25    1    1    2    0    0  0.17840366093E+02  0.52663586145E+02 -0.14606799840E+03  0.20013143712E+03  0.12500000000E+03 0.  0.
         25    1    1    2    0    0 -0.12317934407E+03  0.63582596015E+02 -0.18432147413E+03  0.26232671070E+03  0.12500000000E+03 0.  0.
</event>
<event>
 5    0  0.5641283E-005  0.2345463E+03  0.7546771E-02  0.1123480E+00
         21   -1    0    0  502  501  0.00000000000E+00  0.00000000000E+00  0.38412698490E+02  0.38412698490E+02  0.00000000000E+00 0. -1.
         21   -1    0    0  501  502 -0.00000000000E+00 -0.00000000000E+00 -0.14321292136E+04  0.14321292136E+04  0.00000000000E+00 0. -1.
         25    1    1    2    0    0  0.48485520479E+02  0.24123550182E+02 -0.73610774031E+03  0.74860697079E+03  0.12500000000E+03 0.  0.
         25    1    1    2    0    0 -0.37217426374E+02  0.39381961173E+02 -0.45737091339E+03  0.47723079124E+03  0.12500000000E+03 0.  0.
         25    1    1    2    0    0 -0.11268094105E+02 -0.63505511354E+02 -0.20023786143E+03  0.24470415008E+03  0.12500000000E+03 0.  0.
</event>
<event>
 5    0  0.5641283E-005  0.3454213E+03  0.7546771E-02  0.1064510E+00
         21   -1    0    0  502  501  0.00000000000E+00  0.00000000000E+00  0.41901965050E+03  0.41901965050E+03  0.00000000000E+00 0.  1.
         21   -1    0    0  501  502 -0.00000000000E+00 -0.00000000000E+00 -0.28475002175E+03  0.28475002175E+03  0.00000000000E+00 0.  1.
         25    1    1    2    0    0  0.17461638658E+03 -0.27716810171E+02 -0.85652153624E+01  0.21669671650E+03  0.12500000000E+03 0.  0.
         25    1    1    2    0    0 -0.20920566836E+03  0.94513357837E+02  0.20128713138E+03  0.32991104216E+03  0.12500000000E+03 0.  0.
         25    1    1    2    0    0  0.34589281772E+02 -0.66796547665E+02 -0.58452287269E+02  0.15716191358E+03  0.12500000000E+03 0.  0.
</event>
<event>
 5    0  0.5641283E-005  0.4787780E+03  0.7546771E-02  0.1019472E+00
         21   -1    0    0  502  501  0.00000000000E+00  0.00000000000E+00  0.23545555434E+03  0.23545555434E+03  0.00000000000E+00 0. -1.
         21   -1    0    0  501  502 -0.00000000000E+00 -0.00000000000E+00 -0.97355256891E+03  0.97355256891E+03  0.00000000000E+00 0. -1.
         25    1    1    2    0    0 -0.17492411589E+03  0.16230945905E+03 -0.56802715416E+03  0.62866736409E+03  0.12500000000E+03 0.  0.
         25    1    1    2    0    0  0.29163305972E+03 -0.20358932795E+03 -0.93127850664E+02  0.38832493166E+03  0.12500000000E+03 0.  0.
         25    1    1    2    0    0 -0.11670894383E+03  0.41279868901E+02 -0.76942009757E+02  0.19201582750E+03  0.12500000000E+03 0.  0.
</event>
<event>
 5    0  0.5641283E-005  0.5083634E+03  0.7546771E-02  0.1011619E+00
         21   -1    0    0  502  501  0.00000000000E+00  0.00000000000E+00  0.16132860949E+03  0.16132860949E+03  0.00000000000E+00 0. -1.
         21   -1    0    0  501  502 -0.00000000000E+00 -0.00000000000E+00 -0.16019067555E+04  0.16019067555E+04  0.00000000000E+00 0. -1.
         25    1    1    2    0    0  0.21011573853E+03 -0.33653821663E+03 -0.48814219279E+03  0.64133797269E+03  0.12500000000E+03 0.  0.
         25    1    1    2    0    0 -0.24955819661E+03  0.58255446655E+02 -0.47102047721E+03  0.55059811162E+03  0.12500000000E+03 0.  0.
         25    1    1    2    0    0  0.39442458080E+02  0.27828276998E+03 -0.48141547604E+03  0.57129928071E+03  0.12500000000E+03 0.  0.
</event>
<event>
 5    0  0.5641283E-005  0.2705459E+03  0.7546771E-02  0.1100968E+00
         21   -1    0    0  502  501  0.00000000000E+00  0.00000000000E+00  0.95791575193E+02  0.95791575193E+02  0.00000000000E+00 0. -1.
         21   -1    0    0  501  502 -0.00000000000E+00 -0.00000000000E+00 -0.76410770917E+03  0.76410770917E+03  0.00000000000E+00 0. -1.
         25    1    1    2    0    0 -0.31105761708E+02  0.11938727513E+03 -0.69469191668E+02  0.18886995120E+03  0.12500000000E+03 0.  0.
         25    1    1    2    0    0 -0.29420872383E+02 -0.65062280228E+02 -0.37858488994E+03  0.40503111847E+03  0.12500000000E+03 0.  0.
         25    1    1    2    0    0  0.60526634091E+02 -0.54324994905E+02 -0.22026205237E+03  0.26599821469E+03  0.12500000000E+03 0.  0.
</event>
<event>
 5    0  0.5641283E-005  0.4185849E+03  0.7546771E-02  0.1037528E+00
         21   -1    0    0  502  501  0.00000000000E+00  0.00000000000E+00  0.47971749462E+03  0.47971749462E+03  0.00000000000E+00 0. -1.
         21   -1    0    0  501  502 -0.00000000000E+00 -0.00000000000E+00 -0.36524264563E+03  0.36524264563E+03  0.00000000000E+00 0. -1.
         25    1    1    2    0    0 -0.14966770033E+03 -0.18910445200E+03 -0.12095894926E+03  0.29734993138E+03  0.12500000000E+03 0.  0.
         25    1    1    2    0    0  0.76318503420E+02  0.21930204850E+03  0.28801412762E+03  0.39050613331E+03  0.12500000000E+03 0.  0.
         25    1    1    2    0    0  0.73349196908E+02 -0.30197596508E+02 -0.52580329375E+02  0.15710407556E+03  0.12500000000E+03 0.  0.
</event>
<event>
 5    0  0.5641283E-005  0.2525347E+03  0.7546771E-02  0.1111713E+00
         21   -1    0    0  502  501  0.00000000000E+00  0.00000000000E+00  0.10964724727E+03  0.10964724727E+03  0.00000000000E+00 0.  1.
         21   -1    0    0  501  502 -0.00000000000E+00 -0.00000000000E+00 -0.58162669773E+03  0.58162669773E+03  0.00000000000E+00 0.  1.
         25    1    1    2    0    0 -0.22036013977E+02 -0.65356665349E+02 -0.13238301330E+02  0.14337828371E+03  0.12500000000E+03 0.  0.
         25    1    1    2    0    0  0.83923863374E+01  0.40704716713E+02 -0.95464645960E+02  0.16268314215E+03  0.12500000000E+03 0.  0.
         25    1    1    2    0    0  0.13643627639E+02  0.24651948635E+02 -0.36327650317E+03  0.38521251914E+03  0.12500000000E+03 0.  0.
</event>
<event>
 5    0  0.5641283E-005  0.3098097E+03  0.7546771E-02  0.1080437E+00
         21   -1    0    0  502  501  0.00000000000E+00  0.00000000000E+00  0.16527705776E+04  0.16527705776E+04  0.00000000000E+00 0.  1.
         21   -1    0    0  501  502 -0.00000000000E+00 -0.00000000000E+00 -0.58073436509E+02  0.58073436509E+02  0.00000000000E+00 0.  1.
         25    1    1    2    0    0  0.73250549627E+02  0.15598758379E+03  0.62179338050E+03  0.65722886224E+03  0.12500000000E+03 0.  0.
         25    1    1    2    0    0  0.15524348817E+02  0.59841210514E+02  0.31874843522E+03  0.34791887105E+03  0.12500000000E+03 0.  0.
         25    1    1    2    0    0 -0.88774898444E+02 -0.21582879431E+03  0.65415532532E+03  0.70569628077E+03  0.12500000000E+03 0.  0.
</event>
<event>
 5    0  0.5641283E-005  0.2618416E+03  0.7546771E-02  0.1106042E+00
         21   -1    0    0  502  501  0.00000000000E+00  0.00000000000E+00  0.16222663840E+03  0.16222663840E+03  0.00000000000E+00 0. -1.
         21   -1    0    0  501  502 -0.00000000000E+00 -0.00000000000E+00 -0.42262501974E+03  0.42262501974E+03  0.00000000000E+00 0. -1.
         25    1    1    2    0    0  0.96622698370E+02 -0.28967030714E+02 -0.47135203086E+02  0.16739701932E+03  0.12500000000E+03 0.  0.
         25    1    1    2    0    0 -0.41020400120E+02  0.12383534362E+03 -0.16356042172E+03  0.24371064217E+03  0.12500000000E+03 0.  0.
         25    1    1    2    0    0 -0.55602298250E+02 -0.94868312903E+02 -0.49702756531E+02  0.17374399665E+03  0.12500000000E+03 0.  0.
</event>
<event>
 5    0  0.5641283E-005  0.4066369E+03  0.7546771E-02  0.1041505E+00
         21   -1    0    0  502  501  0.00000000000E+00  0.00000000000E+00  0.50110254960E+03  0.50110254960E+03  0.00000000000E+00 0.  1.
         21   -1    0    0  501  502 -0.00000000000E+00 -0.00000000000E+00 -0.32997946935E+03  0.32997946935E+03  0.00000000000E+00 0.  1.
         25    1    1    2    0    0  0.11337104938E+03 -0.67766661873E+02 -0.13898399860E+03  0.22888177552E+03  0.12500000000E+03 0.  0.
         25    1    1    2    0    0 -0.70415410172E+02  0.21791854577E+03  0.36770637291E+02  0.26348415958E+03  0.12500000000E+03 0.  0.
         25    1    1    2    0    0 -0.42955639212E+02 -0.15015188390E+03  0.27333644156E+03  0.33871608385E+03  0.12500000000E+03 0.  0.
</event>
<event>
 5    0  0.5687638E-005  0.3366682E+03  0.7546771E-02  0.1068224E+00
         21   -1    0    0  502  501  0.00000000000E+00  0.00000000000E+00  0.35161728454E+03  0.35161728454E+03  0.00000000000E+00 0. -1.
         21   -1    0    0  501  502 -0.00000000000E+00 -0.00000000000E+00 -0.32235467882E+03  0.32235467882E+03  0.00000000000E+00 0. -1.
         25    1    1    2    0    0 -0.62743053785E+02  0.85557263439E+01  0.10573400051E+03  0.17554079331E+03  0.12500000000E+03 0.  0.
         25    1    1    2    0    0  0.16610516222E+03  0.44504640719E+02  0.11519537177E+03  0.24179859726E+03  0.12500000000E+03 0.  0.
         25    1    1    2    0    0 -0.10336210843E+03 -0.53060367063E+02 -0.19166676656E+03  0.25663257279E+03  0.12500000000E+03 0.  0.
</event>
<event>
 5    0  0.5641283E-005  0.2791762E+03  0.7546771E-02  0.1096140E+00
         21   -1    0    0  502  501  0.00000000000E+00  0.00000000000E+00  0.29053822944E+03  0.29053822944E+03  0.00000000000E+00 0.  1.
         21   -1    0    0  501  502 -0.00000000000E+00 -0.00000000000E+00 -0.26825849599E+03  0.26825849599E+03  0.00000000000E+00 0.  1.
         25    1    1    2    0    0  0.13482370120E+03  0.39323501862E+02 -0.24477422385E+02  0.18959934708E+03  0.12500000000E+03 0.  0.
         25    1    1    2    0    0 -0.68789041562E+02 -0.95183613616E+02 -0.61908055044E+02  0.18234434408E+03  0.12500000000E+03 0.  0.
         25    1    1    2    0    0 -0.66034659641E+02  0.55860111754E+02  0.10866521088E+03  0.18685303427E+03  0.12500000000E+03 0.  0.
</event>
<event>
 5    0  0.5641283E-005  0.4332297E+03  0.7546771E-02  0.1032845E+00
         21   -1    0    0  502  501  0.00000000000E+00  0.00000000000E+00  0.58206918046E+03  0.58206918046E+03  0.00000000000E+00 0.  1.
         21   -1    0    0  501  502 -0.00000000000E+00 -0.00000000000E+00 -0.32244952338E+03  0.32244952338E+03  0.00000000000E+00 0.  1.
         25    1    1    2    0    0  0.59935614711E+02  0.63815240230E+02  0.31155711000E+03  0.34692577821E+03  0.12500000000E+03 0.  0.
         25    1    1    2    0    0  0.11431372080E+03 -0.22719491693E+03 -0.51312710728E+02  0.28799852660E+03  0.12500000000E+03 0.  0.
         25    1    1    2    0    0 -0.17424933551E+03  0.16337967670E+03 -0.62474220005E+00  0.26959439903E+03  0.12500000000E+03 0.  0.
</event>
<event>
 5    0  0.5641283E-005  0.3190341E+03  0.7546771E-02  0.1076095E+00
         21   -1    0    0  502  501  0.00000000000E+00  0.00000000000E+00  0.16198970571E+04  0.16198970571E+04  0.00000000000E+00 0. -1.
         21   -1    0    0  501  502 -0.00000000000E+00 -0.00000000000E+00 -0.62832857713E+02  0.62832857713E+02  0.00000000000E+00 0. -1.
         25    1    1    2    0    0  0.73935754516E+02  0.13897637676E+03  0.60132541989E+03  0.63403327176E+03  0.12500000000E+03 0.  0.
         25    1    1    2    0    0  0.37206968022E+02  0.80749689624E+02  0.39235132725E+03  0.42127121292E+03  0.12500000000E+03 0.  0.
         25    1    1    2    0    0 -0.11114272254E+03 -0.21972606639E+03  0.56338745226E+03  0.62742543014E+03  0.12500000000E+03 0.  0.
</event>
<event>
 5    0  0.7483856E-005  0.2642351E+03  0.7546771E-02  0.1104625E+00
         21   -1    0    0  502  501  0.00000000000E+00  0.00000000000E+00  0.17448464474E+03  0.17448464474E+03  0.00000000000E+00 0. -1.
         21   -1    0    0  501  502 -0.00000000000E+00 -0.00000000000E+00 -0.40015088163E+03  0.40015088163E+03  0.00000000000E+00 0. -1.
         25    1    1    2    0    0 -0.80680788165E+02  0.20089956408E+02  0.36934059802E+01  0.15017202528E+03  0.12500000000E+03 0.  0.
         25    1    1    2    0    0 -0.77090523932E+02  0.75822699128E+01 -0.55939938614E+02  0.15733631631E+03  0.12500000000E+03 0.  0.
         25    1    1    2    0    0  0.15777131210E+03 -0.27672226321E+02 -0.17341970426E+03  0.26712718479E+03  0.12500000000E+03 0.  0.
</event>
<event>
 5    0  0.5641283E-005  0.2200310E+03  0.7546771E-02  0.1133860E+00
         21   -1    0    0  502  501  0.00000000000E+00  0.00000000000E+00  0.78257907900E+03  0.78257907900E+03  0.00000000000E+00 0. -1.
         21   -1    0    0  501  502 -0.00000000000E+00 -0.00000000000E+00 -0.61864198981E+02  0.61864198981E+02  0.00000000000E+00 0. -1.
         25    1    1    2    0    0  0.55696773927E+02  0.30186318388E+02  0.31469306651E+03  0.34448522545E+03  0.12500000000E+03 0.  0.
         25    1    1    2    0    0 -0.81816709578E+02 -0.56536203374E+02  0.19729679606E+03  0.25385299288E+03  0.12500000000E+03 0.  0.
         25    1    1    2    0    0  0.26119935651E+02  0.26349884986E+02  0.20872501745E+03  0.24610505965E+03  0.12500000000E+03 0.  0.
</event>
<event>
 5    0  0.5641283E-005  0.2985675E+03  0.7546771E-02  0.1085959E+00
         21   -1    0    0  502  501  0.00000000000E+00  0.00000000000E+00  0.10831911478E+04  0.10831911478E+04  0.00000000000E+00 0.  1.
         21   -1    0    0  501  502 -0.00000000000E+00 -0.00000000000E+00 -0.82296223040E+02  0.82296223040E+02  0.00000000000E+00 0. -1.
         25    1    1    2    0    0  0.11183622062E+02 -0.11834888414E+03  0.24543850391E+03  0.29999431825E+03  0.12500000000E+03 0.  0.
         25    1    1    2    0    0 -0.86344365153E+02  0.18612283684E+03  0.31208522942E+03  0.39385181250E+03  0.12500000000E+03 0.  0.
         25    1    1    2    0    0  0.75160743092E+02 -0.67773952696E+02  0.44337119147E+03  0.47164124013E+03  0.12500000000E+03 0.  0.
</event>
<event>
 5    0  0.5641283E-005  0.2661223E+03  0.7546771E-02  0.1103520E+00
         21   -1    0    0  502  501  0.00000000000E+00  0.00000000000E+00  0.12725106645E+03  0.12725106645E+03  0.00000000000E+00 0.  1.
         21   -1    0    0  501  502 -0.00000000000E+00 -0.00000000000E+00 -0.55654609575E+03  0.55654609575E+03  0.00000000000E+00 0.  1.
         25    1    1    2    0    0  0.50383445177E+02  0.13216597649E+03 -0.12982403634E+03  0.22909739698E+03  0.12500000000E+03 0.  0.
         25    1    1    2    0    0 -0.94731198321E+02 -0.29049686735E+01 -0.14232675281E+03  0.21181204721E+03  0.12500000000E+03 0.  0.
         25    1    1    2    0    0  0.44347753144E+02 -0.12926100782E+03 -0.15714424014E+03  0.24288771801E+03  0.12500000000E+03 0.  0.
</event>
<event>
 5    0  0.5641283E-005  0.3287230E+03  0.7546771E-02  0.1071703E+00
         21   -1    0    0  502  501  0.00000000000E+00  0.00000000000E+00  0.44663464593E+03  0.44663464593E+03  0.00000000000E+00 0. -1.
         21   -1    0    0  501  502 -0.00000000000E+00 -0.00000000000E+00 -0.24194009616E+03  0.24194009616E+03  0.00000000000E+00 0. -1.
         25    1    1    2    0    0 -0.10804756356E+03 -0.68656427233E+02  0.98349023252E+01  0.17919181425E+03  0.12500000000E+03 0.  0.
         25    1    1    2    0    0 -0.43315927288E+02  0.13200535369E+03 -0.45802065664E+02  0.19241754645E+03  0.12500000000E+03 0.  0.
         25    1    1    2    0    0  0.15136349085E+03 -0.63348926462E+02  0.24066171311E+03  0.31696538139E+03  0.12500000000E+03 0.  0.
</event>
<event>
 5    0  0.5641283E-005  0.2876317E+03  0.7546771E-02  0.1091592E+00
         21   -1    0    0  502  501  0.00000000000E+00  0.00000000000E+00  0.98770259368E+03  0.98770259368E+03  0.00000000000E+00 0. -1.
         21   -1    0    0  501  502 -0.00000000000E+00 -0.00000000000E+00 -0.83762052398E+02  0.83762052398E+02  0.00000000000E+00 0. -1.
         25    1    1    2    0    0  0.12895209918E+02  0.10603686265E+03  0.26187013238E+03  0.30921039586E+03  0.12500000000E+03 0.  0.
         25    1    1    2    0    0  0.66760396526E+02 -0.33598857735E+02  0.55877405643E+03  0.57744201434E+03  0.12500000000E+03 0.  0.
         25    1    1    2    0    0 -0.79655606443E+02 -0.72438004916E+02  0.83296352479E+02  0.18481223588E+03  0.12500000000E+03 0.  0.
</event>
<event>
 5    0  0.5641283E-005  0.2810733E+03  0.7546771E-02  0.1095104E+00
         21   -1    0    0  502  501  0.00000000000E+00  0.00000000000E+00  0.19472863898E+03  0.19472863898E+03  0.00000000000E+00 0.  1.
         21   -1    0    0  501  502 -0.00000000000E+00 -0.00000000000E+00 -0.40570420239E+03  0.40570420239E+03  0.00000000000E+00 0.  1.
         25    1    1    2    0    0 -0.22930325639E+02 -0.64596112572E+01 -0.15508511724E+03  0.20060887319E+03  0.12500000000E+03 0.  0.
         25    1    1    2    0    0 -0.12977853337E+03 -0.36449345866E+02  0.18133902236E+02  0.18472915565E+03  0.12500000000E+03 0.  0.
         25    1    1    2    0    0  0.15270885901E+03  0.42908957123E+02 -0.74024348403E+02  0.21509481253E+03  0.12500000000E+03 0.  0.
</event>
<event>
 5    0  0.5641283E-005  0.2641146E+03  0.7546771E-02  0.1104696E+00
         21   -1    0    0  502  501  0.00000000000E+00  0.00000000000E+00  0.32156967006E+03  0.32156967006E+03  0.00000000000E+00 0.  1.
         21   -1    0    0  501  502 -0.00000000000E+00 -0.00000000000E+00 -0.21692502900E+03  0.21692502900E+03  0.00000000000E+00 0.  1.
         25    1    1    2    0    0 -0.12793420692E+02 -0.39841676763E+02 -0.54703458964E+02  0.14271825126E+03  0.12500000000E+03 0.  0.
         25    1    1    2    0    0 -0.43116980085E+02  0.33950241348E+02 -0.50141645361E+02  0.14543341246E+03  0.12500000000E+03 0.  0.
         25    1    1    2    0    0  0.55910400777E+02  0.58914354156E+01  0.20948974539E+03  0.25034303535E+03  0.12500000000E+03 0.  0.
</event>
<event>
 5    0  0.5641283E-005  0.4533392E+03  0.7546771E-02  0.1026731E+00
         21   -1    0    0  502  501  0.00000000000E+00  0.00000000000E+00  0.12216232124E+03  0.12216232124E+03  0.00000000000E+00 0. -1.
         21   -1    0    0  501  502 -0.00000000000E+00 -0.00000000000E+00 -0.16823228618E+04  0.16823228618E+04  0.00000000000E+00 0. -1.
         25    1    1    2    0    0 -0.24508736431E+03 -0.10713357543E+03 -0.13582320397E+03  0.32498978733E+03  0.12500000000E+03 0.  0.
         25    1    1    2    0    0  0.71017050248E+02 -0.22945609107E+02 -0.62683654829E+03  0.64352076942E+03  0.12500000000E+03 0.  0.
         25    1    1    2    0    0  0.17407031406E+03  0.13007918453E+03 -0.79750078834E+03  0.83597462634E+03  0.12500000000E+03 0.  0.
</event>
<event>
 5    0  0.5641283E-005  0.4725938E+03  0.7546771E-02  0.1021191E+00
         21   -1    0    0  502  501  0.00000000000E+00  0.00000000000E+00  0.81935376920E+03  0.81935376920E+03  0.00000000000E+00 0.  1.
         21   -1    0    0  501  502 -0.00000000000E+00 -0.00000000000E+00 -0.27258667787E+03  0.27258667787E+03  0.00000000000E+00 0.  1.
         25    1    1    2    0    0  0.62441153259E+02 -0.30305295384E+03  0.43820962810E+03  0.55081091911E+03  0.12500000000E+03 0.  0.
         25    1    1    2    0    0 -0.19684255572E+03  0.24332621224E+03  0.64097170988E+02  0.34305696996E+03  0.12500000000E+03 0.  0.
         25    1    1    2    0    0  0.13440140246E+03  0.59726741602E+02  0.44460292241E+02  0.19807255800E+03  0.12500000000E+03 0.  0.
</event>
<event>
 5    0  0.5641283E-005  0.1276958E+04  0.7546771E-02  0.9048040E-01
         21   -1    0    0  502  501  0.00000000000E+00  0.00000000000E+00  0.15506814975E+04  0.15506814975E+04  0.00000000000E+00 0. -1.
         21   -1    0    0  501  502 -0.00000000000E+00 -0.00000000000E+00 -0.10515511580E+04  0.10515511580E+04  0.00000000000E+00 0. -1.
         25    1    1    2    0    0 -0.13297412652E+03  0.26096539676E+02  0.41192526651E+03  0.45129876235E+03  0.12500000000E+03 0.  0.
         25    1    1    2    0    0  0.76365772146E+03 -0.70451386876E+03 -0.37057677114E+03  0.11101644248E+04  0.12500000000E+03 0.  0.
         25    1    1    2    0    0 -0.63068359494E+03  0.67841732908E+03  0.45778184418E+03  0.10407694683E+04  0.12500000000E+03 0.  0.
</event>
<event>
 5    0  0.5641283E-005  0.3664665E+03  0.7546771E-02  0.1056052E+00
         21   -1    0    0  502  501  0.00000000000E+00  0.00000000000E+00  0.22867664377E+03  0.22867664377E+03  0.00000000000E+00 0. -1.
         21   -1    0    0  501  502 -0.00000000000E+00 -0.00000000000E+00 -0.58728221080E+03  0.58728221080E+03  0.00000000000E+00 0. -1.
         25    1    1    2    0    0  0.39439139104E+02  0.94346677040E+02 -0.52294851677E+02  0.16975421254E+03  0.12500000000E+03 0.  0.
         25    1    1    2    0    0  0.60191311346E+02  0.19340445450E+03 -0.15408892964E+03  0.28354307472E+03  0.12500000000E+03 0.  0.
         25    1    1    2    0    0 -0.99630450449E+02 -0.28775113154E+03 -0.15222178571E+03  0.36266156731E+03  0.12500000000E+03 0.  0.
</event>
<event>
 5    0  0.5641283E-005  0.2742419E+03  0.7546771E-02  0.1098876E+00
         21   -1    0    0  502  501  0.00000000000E+00  0.00000000000E+00  0.12383895756E+04  0.12383895756E+04  0.00000000000E+00 0.  1.
         21   -1    0    0  501  502 -0.00000000000E+00 -0.00000000000E+00 -0.60731002970E+02  0.60731002970E+02  0.00000000000E+00 0.  1.
         25    1    1    2    0    0 -0.30584979619E+02  0.16304077557E+03  0.30950872758E+03  0.37274440026E+03  0.12500000000E+03 0.  0.
         25    1    1    2    0    0 -0.15686135889E+02 -0.13778781753E+03  0.46855159752E+03  0.50437797044E+03  0.12500000000E+03 0.  0.
         25    1    1    2    0    0  0.46271115508E+02 -0.25252958040E+02  0.39959824753E+03  0.42199820787E+03  0.12500000000E+03 0.  0.
</event>
<event>
 5    0  0.5641283E-005  0.2881093E+03  0.7546771E-02  0.1091340E+00
         21   -1    0    0  502  501  0.00000000000E+00  0.00000000000E+00  0.29519551274E+03  0.29519551274E+03  0.00000000000E+00 0. -1.
         21   -1    0    0  501  502 -0.00000000000E+00 -0.00000000000E+00 -0.28119319145E+03  0.28119319145E+03  0.00000000000E+00 0. -1.
         25    1    1    2    0    0 -0.69253321457E+02 -0.11414922616E+03 -0.97980926681E+02  0.20748814510E+03  0.12500000000E+03 0.  0.
         25    1    1    2    0    0  0.44540232966E+02  0.15502657378E+03  0.11655884458E+03  0.23500645774E+03  0.12500000000E+03 0.  0.
         25    1    1    2    0    0  0.24713088492E+02 -0.40877347620E+02 -0.45755966096E+01  0.13389410135E+03  0.12500000000E+03 0.  0.
</event>
<event>
 5    0  0.5641283E-005  0.3458602E+03  0.7546771E-02  0.1064327E+00
         21   -1    0    0  502  501  0.00000000000E+00  0.00000000000E+00  0.29459829141E+03  0.29459829141E+03  0.00000000000E+00 0. -1.
         21   -1    0    0  501  502 -0.00000000000E+00 -0.00000000000E+00 -0.40604195363E+03  0.40604195363E+03  0.00000000000E+00 0. -1.
         25    1    1    2    0    0  0.97249082597E+02 -0.22276450155E+03 -0.91182432488E+02  0.28813303041E+03  0.12500000000E+03 0.  0.
         25    1    1    2    0    0  0.93208551846E+01 -0.11178130367E+02 -0.13606055121E+02  0.12657785618E+03  0.12500000000E+03 0.  0.
         25    1    1    2    0    0 -0.10656993778E+03  0.23394263192E+03 -0.66551746141E+01  0.28592935844E+03  0.12500000000E+03 0.  0.
</event>
<event>
 5    0  0.5641283E-005  0.2297504E+03  0.7546771E-02  0.1126816E+00
         21   -1    0    0  502  501  0.00000000000E+00  0.00000000000E+00  0.27771670301E+03  0.27771670301E+03  0.00000000000E+00 0.  1.
         21   -1    0    0  501  502 -0.00000000000E+00 -0.00000000000E+00 -0.19006870777E+03  0.19006870777E+03  0.00000000000E+00 0.  1.
         25    1    1    2    0    0  0.94577209550E+02  0.27282112844E+02 -0.23176423706E+02  0.16078342223E+03  0.12500000000E+03 0.  0.
         25    1    1    2    0    0 -0.16974088493E+02 -0.45690040614E+02  0.77799135803E+02  0.15509160204E+03  0.12500000000E+03 0.  0.
         25    1    1    2    0    0 -0.77603121057E+02  0.18407927770E+02  0.33025283147E+02  0.15191038651E+03  0.12500000000E+03 0.  0.
</event>
<event>
 5    0  0.5641283E-005  0.3734686E+03  0.7546771E-02  0.1053375E+00
         21   -1    0    0  502  501  0.00000000000E+00  0.00000000000E+00  0.21527683670E+03  0.21527683670E+03  0.00000000000E+00 0. -1.
         21   -1    0    0  501  502 -0.00000000000E+00 -0.00000000000E+00 -0.64790450344E+03  0.64790450344E+03  0.00000000000E+00 0. -1.
         25    1    1    2    0    0  0.17072286711E+03 -0.19702392650E+03 -0.39722238922E+03  0.49129965547E+03  0.12500000000E+03 0.  0.
         25    1    1    2    0    0 -0.59513444294E+02  0.98828876447E+02  0.16955001320E+02  0.17094288210E+03  0.12500000000E+03 0.  0.
         25    1    1    2    0    0 -0.11120942282E+03  0.98195050057E+02 -0.52360278841E+02  0.20093880257E+03  0.12500000000E+03 0.  0.
</event>
<event>
 5    0  0.5641283E-005  0.2865283E+03  0.7546771E-02  0.1092176E+00
         21   -1    0    0  502  501  0.00000000000E+00  0.00000000000E+00  0.61386005394E+03  0.61386005394E+03  0.00000000000E+00 0.  1.
         21   -1    0    0  501  502 -0.00000000000E+00 -0.00000000000E+00 -0.13374135217E+03  0.13374135217E+03  0.00000000000E+00 0.  1.
         25    1    1    2    0    0  0.16750697502E+02 -0.33137325255E+02 -0.30499503050E+02  0.13391746667E+03  0.12500000000E+03 0.  0.
         25    1    1    2    0    0 -0.19109603783E+01  0.27105259645E+02  0.46070972881E+03  0.47813889310E+03  0.12500000000E+03 0.  0.
         25    1    1    2    0    0 -0.14839737123E+02  0.60320656105E+01  0.49908476011E+02  0.13554504635E+03  0.12500000000E+03 0.  0.
</event>
<event>
 5    0  0.5641283E-005  0.2266045E+03  0.7546771E-02  0.1129053E+00
         21   -1    0    0  502  501  0.00000000000E+00  0.00000000000E+00  0.74153259250E+02  0.74153259250E+02  0.00000000000E+00 0. -1.
         21   -1    0    0  501  502 -0.00000000000E+00 -0.00000000000E+00 -0.69247927033E+03  0.69247927033E+03  0.00000000000E+00 0. -1.
         25    1    1    2    0    0 -0.41551767545E+02  0.35143444737E+02 -0.26720080619E+03  0.29997146851E+03  0.12500000000E+03 0.  0.
         25    1    1    2    0    0  0.33632913532E+02 -0.94154804818E+02 -0.24302797254E+03  0.29100497518E+03  0.12500000000E+03 0.  0.
         25    1    1    2    0    0  0.79188540125E+01  0.59011360081E+02 -0.10809723236E+03  0.17565608589E+03  0.12500000000E+03 0.  0.
</event>
<event>
 5    0  0.6229054E-005  0.3189153E+03  0.7546771E-02  0.1076150E+00
         21   -1    0    0  502  501  0.00000000000E+00  0.00000000000E+00  0.74616606516E+03  0.74616606516E+03  0.00000000000E+00 0. -1.
         21   -1    0    0  501  502 -0.00000000000E+00 -0.00000000000E+00 -0.13630610270E+03  0.13630610270E+03  0.00000000000E+00 0. -1.
         25    1    1    2    0    0  0.90644212262E+02 -0.18927289545E+03  0.13027833820E+03  0.27683577726E+03  0.12500000000E+03 0.  0.
         25    1    1    2    0    0 -0.11285167040E+03  0.55478825193E+02  0.29831914685E+03  0.34703416681E+03  0.12500000000E+03 0.  0.
         25    1    1    2    0    0  0.22207458138E+02  0.13379407026E+03  0.18126247742E+03  0.25860222379E+03  0.12500000000E+03 0.  0.
</event>
<event>
 5    0  0.5641283E-005  0.2756747E+03  0.7546771E-02  0.1098075E+00
         21   -1    0    0  502  501  0.00000000000E+00  0.00000000000E+00  0.24270168723E+03  0.24270168723E+03  0.00000000000E+00 0. -1.
         21   -1    0    0  501  502 -0.00000000000E+00 -0.00000000000E+00 -0.31312728662E+03  0.31312728662E+03  0.00000000000E+00 0. -1.
         25    1    1    2    0    0  0.58239872032E+02 -0.11249045448E+03 -0.13923395654E+03  0.22595813704E+03  0.12500000000E+03 0.  0.
         25    1    1    2    0    0 -0.51456194281E+02  0.31398067022E+02 -0.40942868428E+02  0.14468896647E+03  0.12500000000E+03 0.  0.
         25    1    1    2    0    0 -0.67836777512E+01  0.81092387456E+02  0.10975122557E+03  0.18518187034E+03  0.12500000000E+03 0.  0.
</event>
<event>
 5    0  0.5641283E-005  0.3899763E+03  0.7546771E-02  0.1047307E+00
         21   -1    0    0  502  501  0.00000000000E+00  0.00000000000E+00  0.96571682002E+02  0.96571682002E+02  0.00000000000E+00 0.  1.
         21   -1    0    0  501  502 -0.00000000000E+00 -0.00000000000E+00 -0.15748041594E+04  0.15748041594E+04  0.00000000000E+00 0.  1.
         25    1    1    2    0    0 -0.12272985530E+03 -0.15032135278E+03 -0.85693721972E+03  0.88748268998E+03  0.12500000000E+03 0.  0.
         25    1    1    2    0    0 -0.20892346800E+02  0.18412158833E+02 -0.51199866866E+03  0.52777185834E+03  0.12500000000E+03 0.  0.
         25    1    1    2    0    0  0.14362220210E+03  0.13190919395E+03 -0.10929658898E+03  0.25612129304E+03  0.12500000000E+03 0.  0.
</event>
<event>
 5    0  0.6221969E-005  0.2924919E+03  0.7546771E-02  0.1089055E+00
         21   -1    0    0  502  501  0.00000000000E+00  0.00000000000E+00  0.69423095242E+03  0.69423095242E+03  0.00000000000E+00 0. -1.
         21   -1    0    0  501  502 -0.00000000000E+00 -0.00000000000E+00 -0.12323208184E+03  0.12323208184E+03  0.00000000000E+00 0. -1.
         25    1    1    2    0    0  0.43985097038E+01 -0.81133215092E+02  0.52019776125E+03  0.54114014478E+03  0.12500000000E+03 0.  0.
         25    1    1    2    0    0 -0.14986540063E+02  0.75761149532E+01  0.26664535208E+02  0.12891078829E+03  0.12500000000E+03 0.  0.
         25    1    1    2    0    0  0.10588030359E+02  0.73557100139E+02  0.24136574115E+02  0.14741210119E+03  0.12500000000E+03 0.  0.
</event>
<event>
 5    0  0.5641283E-005  0.2818267E+03  0.7546771E-02  0.1094695E+00
         21   -1    0    0  502  501  0.00000000000E+00  0.00000000000E+00  0.23746950771E+03  0.23746950771E+03  0.00000000000E+00 0. -1.
         21   -1    0    0  501  502 -0.00000000000E+00 -0.00000000000E+00 -0.33446947982E+03  0.33446947982E+03  0.00000000000E+00 0. -1.
         25    1    1    2    0    0  0.50740953815E+02  0.87160838643E+01 -0.96317510709E+02  0.16598999181E+03  0.12500000000E+03 0.  0.
         25    1    1    2    0    0  0.10989676994E+03 -0.83722259916E+02 -0.23684839784E+02  0.18781024595E+03  0.12500000000E+03 0.  0.
         25    1    1    2    0    0 -0.16063772375E+03  0.75006176052E+02  0.23002378391E+02  0.21813874977E+03  0.12500000000E+03 0.  0.
</event>
<event>
 5    0  0.5641283E-005  0.2534356E+03  0.7546771E-02  0.1111153E+00
         21   -1    0    0  502  501  0.00000000000E+00  0.00000000000E+00  0.57353465869E+02  0.57353465869E+02  0.00000000000E+00 0. -1.
         21   -1    0    0  501  502 -0.00000000000E+00 -0.00000000000E+00 -0.11198905095E+04  0.11198905095E+04  0.00000000000E+00 0. -1.
         25    1    1    2    0    0 -0.12230707229E+03 -0.84572703866E+02 -0.39318871611E+03  0.43855892267E+03  0.12500000000E+03 0.  0.
         25    1    1    2    0    0  0.46823130008E+02  0.20351755500E+02 -0.43280659470E+03  0.45337969504E+03  0.12500000000E+03 0.  0.
         25    1    1    2    0    0  0.75483942283E+02  0.64220948366E+02 -0.23654173285E+03  0.28530535770E+03  0.12500000000E+03 0.  0.
</event>
<event>
 5    0  0.5641283E-005  0.3285403E+03  0.7546771E-02  0.1071785E+00
         21   -1    0    0  502  501  0.00000000000E+00  0.00000000000E+00  0.99295422413E+02  0.99295422413E+02  0.00000000000E+00 0. -1.
         21   -1    0    0  501  502 -0.00000000000E+00 -0.00000000000E+00 -0.10870461588E+04  0.10870461588E+04  0.00000000000E+00 0. -1.
         25    1    1    2    0    0 -0.34812927049E+02  0.67142028496E+02 -0.88130360379E+03  0.89333142446E+03  0.12500000000E+03 0.  0.
         25    1    1    2    0    0 -0.32290060197E+01 -0.55048888892E+01 -0.72359681800E+02  0.14457404273E+03  0.12500000000E+03 0.  0.
         25    1    1    2    0    0  0.38041933069E+02 -0.61637139607E+02 -0.34087450831E+02  0.14843611405E+03  0.12500000000E+03 0.  0.
</event>
<event>
 5    0  0.5641283E-005  0.2837150E+03  0.7546771E-02  0.1093677E+00
         21   -1    0    0  502  501  0.00000000000E+00  0.00000000000E+00  0.37020371931E+02  0.37020371931E+02  0.00000000000E+00 0.  1.
         21   -1    0    0  501  502 -0.00000000000E+00 -0.00000000000E+00 -0.21743222105E+04  0.21743222105E+04  0.00000000000E+00 0.  1.
         25    1    1    2    0    0  0.17958566428E+01  0.12884615984E+03 -0.54606422856E+03  0.57481797095E+03  0.12500000000E+03 0.  0.
         25    1    1    2    0    0  0.80372766390E+02 -0.17068966818E+03 -0.99104610234E+03  0.10165589611E+04  0.12500000000E+03 0.  0.
         25    1    1    2    0    0 -0.82168623033E+02  0.41843508335E+02 -0.60019150770E+03  0.61996565043E+03  0.12500000000E+03 0.  0.
</event>
<event>
 5    0  0.5641283E-005  0.4604437E+03  0.7546771E-02  0.1024653E+00
         21   -1    0    0  502  501  0.00000000000E+00  0.00000000000E+00  0.12824330218E+04  0.12824330218E+04  0.00000000000E+00 0. -1.
         21   -1    0    0  501  502 -0.00000000000E+00 -0.00000000000E+00 -0.16531730827E+03  0.16531730827E+03  0.00000000000E+00 0. -1.
         25    1    1    2    0    0  0.32388776706E+03  0.22877254033E+03  0.70905485578E+03  0.82196347204E+03  0.12500000000E+03 0.  0.
         25    1    1    2    0    0 -0.12969166766E+03 -0.76342307589E+02  0.19822519085E+03  0.27850727616E+03  0.12500000000E+03 0.  0.
         25    1    1    2    0    0 -0.19419609941E+03 -0.15243023274E+03  0.20983566691E+03  0.34727958187E+03  0.12500000000E+03 0.  0.
</event>
<event>
 5    0  0.5641283E-005  0.3062641E+03  0.7546771E-02  0.1082151E+00
         21   -1    0    0  502  501  0.00000000000E+00  0.00000000000E+00  0.17872688845E+03  0.17872688845E+03  0.00000000000E+00 0.  1.
         21   -1    0    0  501  502 -0.00000000000E+00 -0.00000000000E+00 -0.52481017486E+03  0.52481017486E+03  0.00000000000E+00 0.  1.
         25    1    1    2    0    0  0.15029035747E+03  0.16902725737E+03 -0.11442022957E+03  0.28262058350E+03  0.12500000000E+03 0.  0.
         25    1    1    2    0    0 -0.10932366850E+03 -0.13664790407E+03 -0.15669700588E+03  0.26608883072E+03  0.12500000000E+03 0.  0.
         25    1    1    2    0    0 -0.40966688971E+02 -0.32379353310E+02 -0.74966050964E+02  0.15482764909E+03  0.12500000000E+03 0.  0.
</event>
<event>
 5    0  0.5641283E-005  0.2070664E+03  0.7546771E-02  0.1143910E+00
         21   -1    0    0  502  501  0.00000000000E+00  0.00000000000E+00  0.56510677387E+02  0.56510677387E+02  0.00000000000E+00 0.  1.
         21   -1    0    0  501  502 -0.00000000000E+00 -0.00000000000E+00 -0.75873266461E+03  0.75873266461E+03  0.00000000000E+00 0.  1.
         25    1    1    2    0    0 -0.58414754622E+02  0.47702448536E+02 -0.22130223259E+03  0.26511787059E+03  0.12500000000E+03 0.  0.
         25    1    1    2    0    0  0.66315198841E+01 -0.33221873149E+02 -0.20511351179E+03  0.24257828145E+03  0.12500000000E+03 0.  0.
         25    1    1    2    0    0  0.51783234738E+02 -0.14480575387E+02 -0.27580624284E+03  0.30754718996E+03  0.12500000000E+03 0.  0.
</event>
<event>
 5    0  0.5641283E-005  0.2789182E+03  0.7546771E-02  0.1096281E+00
         21   -1    0    0  502  501  0.00000000000E+00  0.00000000000E+00  0.27184375929E+04  0.27184375929E+04  0.00000000000E+00 0. -1.
         21   -1    0    0  501  502 -0.00000000000E+00 -0.00000000000E+00 -0.28617683967E+02  0.28617683967E+02  0.00000000000E+00 0. -1.
         25    1    1    2    0    0  0.25681277671E+02  0.23676642510E+02  0.52176751116E+03  0.53766759910E+03  0.12500000000E+03 0.  0.
         25    1    1    2    0    0 -0.14394348226E+03 -0.42692512373E+01  0.16939510205E+04  0.17046504077E+04  0.12500000000E+03 0.  0.
         25    1    1    2    0    0  0.11826220458E+03 -0.19407391273E+02  0.47410137729E+03  0.50473727009E+03  0.12500000000E+03 0.  0.
</event>
<event>
 5    0  0.5641283E-005  0.4041259E+03  0.7546771E-02  0.1042360E+00
         21   -1    0    0  502  501  0.00000000000E+00  0.00000000000E+00  0.12382694488E+04  0.12382694488E+04  0.00000000000E+00 0.  1.
         21   -1    0    0  501  502 -0.00000000000E+00 -0.00000000000E+00 -0.13189190586E+03  0.13189190586E+03  0.00000000000E+00 0.  1.
         25    1    1    2    0    0  0.14376996599E+03 -0.66751167637E+02 -0.15684634517E+01  0.20187367728E+03  0.12500000000E+03 0.  0.
         25    1    1    2    0    0  0.56753900341E+01 -0.42721242012E+02  0.58202072823E+03  0.59685043575E+03  0.12500000000E+03 0.  0.
         25    1    1    2    0    0 -0.14944535603E+03  0.10947240965E+03  0.52592527819E+03  0.57143724166E+03  0.12500000000E+03 0.  0.
</event>
<event>
 5    0  0.5641283E-005  0.2281298E+03  0.7546771E-02  0.1127963E+00
         21   -1    0    0  502  501  0.00000000000E+00  0.00000000000E+00  0.31746697366E+03  0.31746697366E+03  0.00000000000E+00 0.  1.
         21   -1    0    0  501  502 -0.00000000000E+00 -0.00000000000E+00 -0.16393271420E+03  0.16393271420E+03  0.00000000000E+00 0.  1.
         25    1    1    2    0    0  0.91100156549E+01  0.64187047043E+02  0.78617423862E+02  0.16127203331E+03  0.12500000000E+03 0.  0.
         25    1    1    2    0    0 -0.52178733743E+02 -0.15000243653E+02  0.10957307088E+03  0.17486819444E+03  0.12500000000E+03 0.  0.
         25    1    1    2    0    0  0.43068718088E+02 -0.49186803390E+02 -0.34656235286E+02  0.14525946010E+03  0.12500000000E+03 0.  0.
</event>
<event>
 5    0  0.5641283E-005  0.3296408E+03  0.7546771E-02  0.1071296E+00
         21   -1    0    0  502  501  0.00000000000E+00  0.00000000000E+00  0.23828353720E+03  0.23828353720E+03  0.00000000000E+00 0.  1.
         21   -1    0    0  501  502 -0.00000000000E+00 -0.00000000000E+00 -0.45602417792E+03  0.45602417792E+03  0.00000000000E+00 0.  1.
         25    1    1    2    0    0  0.41145757046E+02  0.15285336630E+03 -0.24243943726E+03  0.31537121880E+03  0.12500000000E+03 0.  0.
         25    1    1    2    0    0  0.19629990863E+02  0.22382427284E+02  0.76236665620E+02  0.14940996880E+03  0.12500000000E+03 0.  0.
         25    1    1    2    0    0 -0.60775747908E+02 -0.17523579358E+03 -0.51537869079E+02  0.22952652752E+03  0.12500000000E+03 0.  0.
</event>
<event>
 5    0  0.5641283E-005  0.3261283E+03  0.7546771E-02  0.1072863E+00
         21   -1    0    0  502  501  0.00000000000E+00  0.00000000000E+00  0.31785606970E+04  0.31785606970E+04  0.00000000000E+00 0.  1.
         21   -1    0    0  501  502 -0.00000000000E+00 -0.00000000000E+00 -0.33461586629E+02  0.33461586629E+02  0.00000000000E+00 0.  1.
         25    1    1    2    0    0 -0.82591904516E+02  0.10136658779E+03  0.17096649459E+04  0.17192079092E+04  0.12500000000E+03 0.  0.
         25    1    1    2    0    0  0.60469939607E+02  0.89484372299E+02  0.81068339655E+03  0.82734311861E+03  0.12500000000E+03 0.  0.
         25    1    1    2    0    0  0.22121964909E+02 -0.19085096009E+03  0.62475076793E+03  0.66547125583E+03  0.12500000000E+03 0.  0.
</event>
<event>
 5    0  0.5646992E-005  0.4754869E+03  0.7546771E-02  0.1020383E+00
         21   -1    0    0  502  501  0.00000000000E+00  0.00000000000E+00  0.23766161816E+03  0.23766161816E+03  0.00000000000E+00 0.  1.
         21   -1    0    0  501  502 -0.00000000000E+00 -0.00000000000E+00 -0.95130134357E+03  0.95130134357E+03  0.00000000000E+00 0.  1.
         25    1    1    2    0    0  0.33539426784E+02 -0.39945208700E+02  0.14817756200E+03  0.20075383615E+03  0.12500000000E+03 0.  0.
         25    1    1    2    0    0  0.18483869971E+03  0.50753396217E+02 -0.35685965049E+03  0.42392813340E+03  0.12500000000E+03 0.  0.
         25    1    1    2    0    0 -0.21837812649E+03 -0.10808187517E+02 -0.50495763693E+03  0.56428099218E+03  0.12500000000E+03 0.  0.
</event>
<event>
 5    0  0.5641283E-005  0.2350084E+03  0.7546771E-02  0.1123163E+00
         21   -1    0    0  502  501  0.00000000000E+00  0.00000000000E+00  0.18265559744E+03  0.18265559744E+03  0.00000000000E+00 0. -1.
         21   -1    0    0  501  502 -0.00000000000E+00 -0.00000000000E+00 -0.30236655841E+03  0.30236655841E+03  0.00000000000E+00 0. -1.
         25    1    1    2    0    0  0.58962099063E+02 -0.48178876221E+02 -0.95010117113E+02  0.17449829682E+03  0.12500000000E+03 0.  0.
         25    1    1    2    0    0 -0.32491192283E+02 -0.54600500290E+02  0.17210051192E+02  0.14127306208E+03  0.12500000000E+03 0.  0.
         25    1    1    2    0    0 -0.26470906781E+02  0.10277937651E+03 -0.41910895050E+02  0.16925079694E+03  0.12500000000E+03 0.  0.
</event>
<event>
 5    0  0.5641283E-005  0.2488663E+03  0.7546771E-02  0.1114023E+00
         21   -1    0    0  502  501  0.00000000000E+00  0.00000000000E+00  0.84668372074E+02  0.84668372074E+02  0.00000000000E+00 0. -1.
         21   -1    0    0  501  502 -0.00000000000E+00 -0.00000000000E+00 -0.73149457914E+03  0.73149457914E+03  0.00000000000E+00 0. -1.
         25    1    1    2    0    0 -0.51471464043E+02  0.10992266463E+03 -0.29578904064E+03  0.34329063543E+03  0.12500000000E+03 0.  0.
         25    1    1    2    0    0  0.94985764577E+02 -0.64215891252E+02 -0.24138090402E+03  0.29501816383E+03  0.12500000000E+03 0.  0.
         25    1    1    2    0    0 -0.43514300534E+02 -0.45706773381E+02 -0.10965626240E+03  0.17785415195E+03  0.12500000000E+03 0.  0.
</event>
<event>
 5    0  0.5641283E-005  0.3876037E+03  0.7546771E-02  0.1048159E+00
         21   -1    0    0  502  501  0.00000000000E+00  0.00000000000E+00  0.23879357582E+03  0.23879357582E+03  0.00000000000E+00 0. -1.
         21   -1    0    0  501  502 -0.00000000000E+00 -0.00000000000E+00 -0.62914865300E+03  0.62914865300E+03  0.00000000000E+00 0. -1.
         25    1    1    2    0    0 -0.21186519596E+03 -0.13565990262E+02 -0.32597081121E+02  0.24851250883E+03  0.12500000000E+03 0.  0.
         25    1    1    2    0    0  0.60263950712E+01 -0.16187951573E+03 -0.11238190386E+03  0.23344375632E+03  0.12500000000E+03 0.  0.
         25    1    1    2    0    0  0.20583880088E+03  0.17544550599E+03 -0.24537609219E+03  0.38598596366E+03  0.12500000000E+03 0.  0.
</event>
<event>
 5    0  0.5641283E-005  0.3221933E+03  0.7546771E-02  0.1074644E+00
         21   -1    0    0  502  501  0.00000000000E+00  0.00000000000E+00  0.11793508900E+04  0.11793508900E+04  0.00000000000E+00 0.  1.
         21   -1    0    0  501  502 -0.00000000000E+00 -0.00000000000E+00 -0.88021745230E+02  0.88021745230E+02  0.00000000000E+00 0.  1.
         25    1    1    2    0    0 -0.14551266568E+03 -0.17854026021E+03  0.46156475581E+03  0.53077074542E+03  0.12500000000E+03 0.  0.
         25    1    1    2    0    0  0.63761176810E+00  0.12958092409E+03  0.35704928423E+03  0.39987599804E+03  0.12500000000E+03 0.  0.
         25    1    1    2    0    0  0.14487505391E+03  0.48959336112E+02  0.27271510469E+03  0.33672589174E+03  0.12500000000E+03 0.  0.
</event>
<event>
 5    0  0.5641283E-005  0.2514491E+03  0.7546771E-02  0.1112392E+00
         21   -1    0    0  502  501  0.00000000000E+00  0.00000000000E+00  0.12728614008E+03  0.12728614008E+03  0.00000000000E+00 0. -1.
         21   -1    0    0  501  502 -0.00000000000E+00 -0.00000000000E+00 -0.49672863410E+03  0.49672863410E+03  0.00000000000E+00 0. -1.
         25    1    1    2    0    0 -0.86715343845E+02  0.77169123350E+02 -0.26424313619E+03  0.31452195389E+03  0.12500000000E+03 0.  0.
         25    1    1    2    0    0  0.82108111170E+02 -0.70672811214E+02 -0.51825950573E+02  0.17334162027E+03  0.12500000000E+03 0.  0.
         25    1    1    2    0    0  0.46072326755E+01 -0.64963121354E+01 -0.53373407255E+02  0.13615120002E+03  0.12500000000E+03 0.  0.
</event>
<event>
 5    0  0.5641283E-005  0.2900955E+03  0.7546771E-02  0.1090299E+00
         21   -1    0    0  502  501  0.00000000000E+00  0.00000000000E+00  0.85658885662E+02  0.85658885662E+02  0.00000000000E+00 0. -1.
         21   -1    0    0  501  502 -0.00000000000E+00 -0.00000000000E+00 -0.98244817119E+03  0.98244817119E+03  0.00000000000E+00 0. -1.
         25    1    1    2    0    0  0.12949093678E+02  0.15647164919E+03 -0.31662385695E+03  0.37486894085E+03  0.12500000000E+03 0.  0.
         25    1    1    2    0    0 -0.25312345868E+02  0.24613744896E+02 -0.96772066286E+02  0.16197649244E+03  0.12500000000E+03 0.  0.
         25    1    1    2    0    0  0.12363252190E+02 -0.18108539408E+03 -0.48339336229E+03  0.53126162355E+03  0.12500000000E+03 0.  0.
</event>
<event>
 5    0  0.5641283E-005  0.2560041E+03  0.7546771E-02  0.1109568E+00
         21   -1    0    0  502  501  0.00000000000E+00  0.00000000000E+00  0.28654881973E+02  0.28654881973E+02  0.00000000000E+00 0.  1.
         21   -1    0    0  501  502 -0.00000000000E+00 -0.00000000000E+00 -0.22871537356E+04  0.22871537356E+04  0.00000000000E+00 0.  1.
         25    1    1    2    0    0  0.40750557856E+02  0.57561323006E+02 -0.85295179860E+03  0.86494259035E+03  0.12500000000E+03 0.  0.
         25    1    1    2    0    0 -0.67928381229E+02 -0.13648041882E+03 -0.60436670452E+03  0.63570848919E+03  0.12500000000E+03 0.  0.
         25    1    1    2    0    0  0.27177823372E+02  0.78919095812E+02 -0.80118035055E+03  0.81515753808E+03  0.12500000000E+03 0.  0.
</event>
<event>
 5    0  0.5641283E-005  0.2622414E+03  0.7546771E-02  0.1105804E+00
         21   -1    0    0  502  501  0.00000000000E+00  0.00000000000E+00  0.46795819138E+03  0.46795819138E+03  0.00000000000E+00 0.  1.
         21   -1    0    0  501  502 -0.00000000000E+00 -0.00000000000E+00 -0.14695878831E+03  0.14695878831E+03  0.00000000000E+00 0.  1.
         25    1    1    2    0    0  0.61341196693E+02 -0.12468308585E+03  0.29596090479E+02  0.18923409545E+03  0.12500000000E+03 0.  0.
         25    1    1    2    0    0 -0.66574286827E+02  0.11865880655E+03  0.18264202629E+03  0.25979830216E+03  0.12500000000E+03 0.  0.
         25    1    1    2    0    0  0.52330901332E+01  0.60242793004E+01  0.10876128630E+03  0.16588458208E+03  0.12500000000E+03 0.  0.
</event>
<event>
 5    0  0.5641283E-005  0.9766885E+03  0.7546771E-02  0.9334489E-01
         21   -1    0    0  502  501  0.00000000000E+00  0.00000000000E+00  0.80997334922E+03  0.80997334922E+03  0.00000000000E+00 0.  1.
         21   -1    0    0  501  502 -0.00000000000E+00 -0.00000000000E+00 -0.11777182705E+04  0.11777182705E+04  0.00000000000E+00 0.  1.
         25    1    1    2    0    0  0.32614737045E+03 -0.54834965823E+03  0.39825875595E+03  0.76242671229E+03  0.12500000000E+03 0.  0.
         25    1    1    2    0    0  0.85068310317E+02  0.19272934717E+03 -0.59237365859E+03  0.64102478117E+03  0.12500000000E+03 0.  0.
         25    1    1    2    0    0 -0.41121568076E+03  0.35562031106E+03 -0.17363001861E+03  0.58424012624E+03  0.12500000000E+03 0.  0.
</event>
<event>
 5    0  0.5641283E-005  0.5673894E+03  0.7546771E-02  0.9975472E-01
         21   -1    0    0  502  501  0.00000000000E+00  0.00000000000E+00  0.23687986841E+03  0.23687986841E+03  0.00000000000E+00 0. -1.
         21   -1    0    0  501  502 -0.00000000000E+00 -0.00000000000E+00 -0.13590463836E+04  0.13590463836E+04  0.00000000000E+00 0. -1.
         25    1    1    2    0    0  0.17826372557E+03  0.38815463098E+03 -0.92092928866E+03  0.10228282985E+04  0.12500000000E+03 0.  0.
         25    1    1    2    0    0 -0.96423137108E+02 -0.47873060362E+02 -0.61852147711E+02  0.17618155254E+03  0.12500000000E+03 0.  0.
         25    1    1    2    0    0 -0.81840588466E+02 -0.34028157062E+03 -0.13938507886E+03  0.39691640106E+03  0.12500000000E+03 0.  0.
</event>
<event>
 5    0  0.5980601E-005  0.2972728E+03  0.7546771E-02  0.1086612E+00
         21   -1    0    0  502  501  0.00000000000E+00  0.00000000000E+00  0.22892965464E+03  0.22892965464E+03  0.00000000000E+00 0. -1.
         21   -1    0    0  501  502 -0.00000000000E+00 -0.00000000000E+00 -0.38601861750E+03  0.38601861750E+03  0.00000000000E+00 0. -1.
         25    1    1    2    0    0  0.53939534458E+02 -0.42031113923E+02 -0.26811377166E+03  0.30362161068E+03  0.12500000000E+03 0.  0.
         25    1    1    2    0    0 -0.76076866257E+02 -0.15084522808E+02  0.29585786024E+02  0.15005182819E+03  0.12500000000E+03 0.  0.
         25    1    1    2    0    0  0.22137331799E+02  0.57115636730E+02  0.81439022770E+02  0.16127483328E+03  0.12500000000E+03 0.  0.
</event>
<event>
 5    0  0.6038802E-005  0.3947037E+03  0.7546771E-02  0.1045629E+00
         21   -1    0    0  502  501  0.00000000000E+00  0.00000000000E+00  0.25928864147E+03  0.25928864147E+03  0.00000000000E+00 0.  1.
         21   -1    0    0  501  502 -0.00000000000E+00 -0.00000000000E+00 -0.60084006955E+03  0.60084006955E+03  0.00000000000E+00 0.  1.
         25    1    1    2    0    0  0.69238370917E+02  0.18855097549E+03  0.38810165257E+02  0.23974288580E+03  0.12500000000E+03 0.  0.
         25    1    1    2    0    0 -0.11568463806E+02 -0.10365532218E+03  0.41989832286E+02  0.16812614665E+03  0.12500000000E+03 0.  0.
         25    1    1    2    0    0 -0.57669907111E+02 -0.84895653311E+02 -0.42235142562E+03  0.45225967857E+03  0.12500000000E+03 0.  0.
</event>
<event>
 5    0  0.5641283E-005  0.2305035E+03  0.7546771E-02  0.1126286E+00
         21   -1    0    0  502  501  0.00000000000E+00  0.00000000000E+00  0.58106973956E+02  0.58106973956E+02  0.00000000000E+00 0.  1.
         21   -1    0    0  501  502 -0.00000000000E+00 -0.00000000000E+00 -0.91438048478E+03  0.91438048478E+03  0.00000000000E+00 0.  1.
         25    1    1    2    0    0  0.34388337319E+02  0.55261057514E+02 -0.11709880999E+03  0.18323065661E+03  0.12500000000E+03 0.  0.
         25    1    1    2    0    0 -0.78134607048E+01 -0.24766010573E+02 -0.50351199994E+03  0.51944560786E+03  0.12500000000E+03 0.  0.
         25    1    1    2    0    0 -0.26574876615E+02 -0.30495046941E+02 -0.23566270090E+03  0.26981119426E+03  0.12500000000E+03 0.  0.
</event>
<event>
 5    0  0.6844682E-005  0.6620305E+03  0.7546771E-02  0.9784463E-01
         21   -1    0    0  502  501  0.00000000000E+00  0.00000000000E+00  0.81607144611E+03  0.81607144611E+03  0.00000000000E+00 0. -1.
         21   -1    0    0  501  502 -0.00000000000E+00 -0.00000000000E+00 -0.53706611058E+03  0.53706611058E+03  0.00000000000E+00 0. -1.
         25    1    1    2    0    0 -0.26062806857E+03  0.25552385585E+03 -0.21248812415E+03  0.44044935457E+03  0.12500000000E+03 0.  0.
         25    1    1    2    0    0  0.36687842933E+03  0.22766572574E+01  0.46589679885E+03  0.60604438142E+03  0.12500000000E+03 0.  0.
         25    1    1    2    0    0 -0.10625036076E+03 -0.25780051311E+03  0.25596660833E+02  0.30664382069E+03  0.12500000000E+03 0.  0.
</event>
<event>
 5    0  0.5641283E-005  0.3329233E+03  0.7546771E-02  0.1069851E+00
         21   -1    0    0  502  501  0.00000000000E+00  0.00000000000E+00  0.11018426495E+03  0.11018426495E+03  0.00000000000E+00 0.  1.
         21   -1    0    0  501  502 -0.00000000000E+00 -0.00000000000E+00 -0.10059326042E+04  0.10059326042E+04  0.00000000000E+00 0.  1.
         25    1    1    2    0    0  0.14357793689E+03 -0.48217998819E+02 -0.86384264333E+02  0.21453866900E+03  0.12500000000E+03 0.  0.
         25    1    1    2    0    0  0.90666093188E+00  0.92618086558E+02 -0.15971026941E+03  0.22296031519E+03  0.12500000000E+03 0.  0.
         25    1    1    2    0    0 -0.14448459782E+03 -0.44400087739E+02 -0.64965380547E+03  0.67861788494E+03  0.12500000000E+03 0.  0.
</event>
<event>
 5    0  0.5641283E-005  0.2296793E+03  0.7546771E-02  0.1126866E+00
         21   -1    0    0  502  501  0.00000000000E+00  0.00000000000E+00  0.17876657818E+04  0.17876657818E+04  0.00000000000E+00 0.  1.
         21   -1    0    0  501  502 -0.00000000000E+00 -0.00000000000E+00 -0.29509184239E+02  0.29509184239E+02  0.00000000000E+00 0.  1.
         25    1    1    2    0    0 -0.35510947617E+02 -0.19353156769E+02  0.32328695703E+03  0.34896278980E+03  0.12500000000E+03 0.  0.
         25    1    1    2    0    0  0.52907690839E+02  0.87545443670E+02  0.61326074330E+03  0.63417439851E+03  0.12500000000E+03 0.  0.
         25    1    1    2    0    0 -0.17396743222E+02 -0.68192286901E+02  0.82160889722E+03  0.83403777771E+03  0.12500000000E+03 0.  0.
</event>
<event>
 5    0  0.5641283E-005  0.2334476E+03  0.7546771E-02  0.1124236E+00
         21   -1    0    0  502  501  0.00000000000E+00  0.00000000000E+00  0.46667284507E+03  0.46667284507E+03  0.00000000000E+00 0.  1.
         21   -1    0    0  501  502 -0.00000000000E+00 -0.00000000000E+00 -0.11677943631E+03  0.11677943631E+03  0.00000000000E+00 0.  1.
         25    1    1    2    0    0  0.20969072563E+02  0.69902880678E+01  0.15635784021E+02  0.12789856869E+03  0.12500000000E+03 0.  0.
         25    1    1    2    0    0 -0.63940259119E+02 -0.16074145840E+02  0.27750774832E+03  0.31141978948E+03  0.12500000000E+03 0.  0.
         25    1    1    2    0    0  0.42971186556E+02  0.90838577726E+01  0.56749876424E+02  0.14413392321E+03  0.12500000000E+03 0.  0.
</event>
<event>
 5    0  0.5641283E-005  0.2824910E+03  0.7546771E-02  0.1094336E+00
         21   -1    0    0  502  501  0.00000000000E+00  0.00000000000E+00  0.83780056464E+03  0.83780056464E+03  0.00000000000E+00 0. -1.
         21   -1    0    0  501  502 -0.00000000000E+00 -0.00000000000E+00 -0.95250793759E+02  0.95250793759E+02  0.00000000000E+00 0. -1.
         25    1    1    2    0    0  0.96846856217E+02 -0.11649538101E+02  0.28217471052E+03  0.32367049997E+03  0.12500000000E+03 0.  0.
         25    1    1    2    0    0 -0.94796085123E+01 -0.75182264519E+02  0.39656396690E+03  0.42264667953E+03  0.12500000000E+03 0.  0.
         25    1    1    2    0    0 -0.87367247704E+02  0.86831802621E+02  0.63811093460E+02  0.18673417889E+03  0.12500000000E+03 0.  0.
</event>
<event>
 5    0  0.5641283E-005  0.3656893E+03  0.7546771E-02  0.1056354E+00
         21   -1    0    0  502  501  0.00000000000E+00  0.00000000000E+00  0.16215392461E+03  0.16215392461E+03  0.00000000000E+00 0. -1.
         21   -1    0    0  501  502 -0.00000000000E+00 -0.00000000000E+00 -0.82470208155E+03  0.82470208155E+03  0.00000000000E+00 0. -1.
         25    1    1    2    0    0  0.92860231130E+02  0.19155927944E+03 -0.15018346877E+03  0.28896029893E+03  0.12500000000E+03 0.  0.
         25    1    1    2    0    0  0.61200581353E+01 -0.10024392398E+02  0.63073977878E+01  0.12570889714E+03  0.12500000000E+03 0.  0.
         25    1    1    2    0    0 -0.98980289266E+02 -0.18153488704E+03 -0.51867208596E+03  0.57218681009E+03  0.12500000000E+03 0.  0.
</event>
<event>
 5    0  0.5641283E-005  0.3440614E+03  0.7546771E-02  0.1065079E+00
         21   -1    0    0  502  501  0.00000000000E+00  0.00000000000E+00  0.28666760195E+03  0.28666760195E+03  0.00000000000E+00 0. -1.
         21   -1    0    0  501  502 -0.00000000000E+00 -0.00000000000E+00 -0.41294603488E+03  0.41294603488E+03  0.00000000000E+00 0. -1.
         25    1    1    2    0    0 -0.61947990627E+02  0.33091557512E+02 -0.28694200441E+03  0.32076988421E+03  0.12500000000E+03 0.  0.
         25    1    1    2    0    0 -0.79396831952E+02  0.94287904322E+01  0.86061649223E+02  0.17153532138E+03  0.12500000000E+03 0.  0.
         25    1    1    2    0    0  0.14134482258E+03 -0.42520347945E+02  0.74601922265E+02  0.20730843124E+03  0.12500000000E+03 0.  0.
</event>
<event>
 5    0  0.6452263E-005  0.2582836E+03  0.7546771E-02  0.1108179E+00
         21   -1    0    0  502  501  0.00000000000E+00  0.00000000000E+00  0.13925099305E+04  0.13925099305E+04  0.00000000000E+00 0.  1.
         21   -1    0    0  501  502 -0.00000000000E+00 -0.00000000000E+00 -0.47906606031E+02  0.47906606031E+02  0.00000000000E+00 0.  1.
         25    1    1    2    0    0 -0.10663619268E+03  0.48771409943E+02  0.22477246349E+03  0.28266161458E+03  0.12500000000E+03 0.  0.
         25    1    1    2    0    0  0.51892667838E+02 -0.32512619621E+02  0.75862470111E+03  0.77128876340E+03  0.12500000000E+03 0.  0.
         25    1    1    2    0    0  0.54743524844E+02 -0.16258790322E+02  0.36120615991E+03  0.38646615858E+03  0.12500000000E+03 0.  0.
</event>
<event>
 5    0  0.5641283E-005  0.2867838E+03  0.7546771E-02  0.1092040E+00
         21   -1    0    0  502  501  0.00000000000E+00  0.00000000000E+00  0.49069230642E+02  0.49069230642E+02  0.00000000000E+00 0. -1.
         21   -1    0    0  501  502 -0.00000000000E+00 -0.00000000000E+00 -0.16761001713E+04  0.16761001713E+04  0.00000000000E+00 0. -1.
         25    1    1    2    0    0 -0.49640305433E+02  0.62575448118E+02 -0.10073785713E+04  0.10182418340E+04  0.12500000000E+03 0.  0.
         25    1    1    2    0    0 -0.69478943200E+02 -0.58548602813E+02 -0.19722385200E+03  0.25055440574E+03  0.12500000000E+03 0.  0.
         25    1    1    2    0    0  0.11911924863E+03 -0.40268453047E+01 -0.42242851730E+03  0.45637316212E+03  0.12500000000E+03 0.  0.
</event>
<event>
 5    0  0.5641283E-005  0.5329982E+03  0.7546771E-02  0.1005508E+00
         21   -1    0    0  502  501  0.00000000000E+00  0.00000000000E+00  0.14326781710E+04  0.14326781710E+04  0.00000000000E+00 0. -1.
         21   -1    0    0  501  502 -0.00000000000E+00 -0.00000000000E+00 -0.19829090096E+03  0.19829090096E+03  0.00000000000E+00 0. -1.
         25    1    1    2    0    0 -0.72756567536E+02  0.33372760536E+03  0.63535848877E+03  0.73210179754E+03  0.12500000000E+03 0.  0.
         25    1    1    2    0    0  0.74246528245E+01  0.11702103020E+03  0.58573704230E+02  0.18112130136E+03  0.12500000000E+03 0.  0.
         25    1    1    2    0    0  0.65331914712E+02 -0.45074863556E+03  0.54045507701E+03  0.71774597303E+03  0.12500000000E+03 0.  0.
</event>
<event>
 5    0  0.5641283E-005  0.2508299E+03  0.7546771E-02  0.1112781E+00
         21   -1    0    0  502  501  0.00000000000E+00  0.00000000000E+00  0.54016875586E+02  0.54016875586E+02  0.00000000000E+00 0. -1.
         21   -1    0    0  501  502 -0.00000000000E+00 -0.00000000000E+00 -0.11647407410E+04  0.11647407410E+04  0.00000000000E+00 0. -1.
         25    1    1    2    0    0  0.55086927933E+02 -0.76179348822E+02 -0.36540786155E+03  0.39747423577E+03  0.12500000000E+03 0.  0.
         25    1    1    2    0    0 -0.76395010398E+00  0.14317531775E+03 -0.35945828104E+03  0.40661408122E+03  0.12500000000E+03 0.  0.
         25    1    1    2    0    0 -0.54322977829E+02 -0.66995968931E+02 -0.38585772284E+03  0.41466929962E+03  0.12500000000E+03 0.  0.
</event>
<event>
 5    0  0.5641283E-005  0.6322929E+03  0.7546771E-02  0.9840585E-01
         21   -1    0    0  502  501  0.00000000000E+00  0.00000000000E+00  0.32716151288E+03  0.32716151288E+03  0.00000000000E+00 0. -1.
         21   -1    0    0  501  502 -0.00000000000E+00 -0.00000000000E+00 -0.12220088055E+04  0.12220088055E+04  0.00000000000E+00 0. -1.
         25    1    1    2    0    0 -0.42978539689E+03  0.19415977768E+03 -0.28735992798E+03  0.56622807671E+03  0.12500000000E+03 0.  0.
         25    1    1    2    0    0 -0.10925237173E+03  0.41580335142E+02 -0.14230209499E+03  0.22257558545E+03  0.12500000000E+03 0.  0.
         25    1    1    2    0    0  0.53903776861E+03 -0.23574011282E+03 -0.46518526963E+03  0.76036665621E+03  0.12500000000E+03 0.  0.
</event>
<event>
 5    0  0.5641283E-005  0.2258684E+03  0.7546771E-02  0.1129582E+00
         21   -1    0    0  502  501  0.00000000000E+00  0.00000000000E+00  0.28574127492E+03  0.28574127492E+03  0.00000000000E+00 0. -1.
         21   -1    0    0  501  502 -0.00000000000E+00 -0.00000000000E+00 -0.17854095970E+03  0.17854095970E+03  0.00000000000E+00 0. -1.
         25    1    1    2    0    0  0.35752183083E+02  0.75417278626E+02  0.15864503803E+00  0.15030305945E+03  0.12500000000E+03 0.  0.
         25    1    1    2    0    0 -0.68798652177E+02 -0.64782403156E+02  0.96023016092E+02  0.18378094003E+03  0.12500000000E+03 0.  0.
         25    1    1    2    0    0  0.33046469093E+02 -0.10634875470E+02  0.11018654094E+02  0.13019823514E+03  0.12500000000E+03 0.  0.
</event>
<event>
 5    0  0.5641283E-005  0.3628407E+03  0.7546771E-02  0.1057465E+00
         21   -1    0    0  502  501  0.00000000000E+00  0.00000000000E+00  0.94990087715E+02  0.94990087715E+02  0.00000000000E+00 0.  1.
         21   -1    0    0  501  502 -0.00000000000E+00 -0.00000000000E+00 -0.13859699013E+04  0.13859699013E+04  0.00000000000E+00 0.  1.
         25    1    1    2    0    0  0.89188929398E+02 -0.81264043699E+02 -0.18610164347E+03  0.25459248148E+03  0.12500000000E+03 0.  0.
         25    1    1    2    0    0 -0.12084701518E+03  0.25361622389E+03 -0.75976399946E+03  0.81962889466E+03  0.12500000000E+03 0.  0.
         25    1    1    2    0    0  0.31658085782E+02 -0.17235218019E+03 -0.34511417069E+03  0.40673861290E+03  0.12500000000E+03 0.  0.
</event>
<event>
 5    0  0.5641283E-005  0.5180284E+03  0.7546771E-02  0.1009178E+00
         21   -1    0    0  502  501  0.00000000000E+00  0.00000000000E+00  0.15622314804E+04  0.15622314804E+04  0.00000000000E+00 0.  1.
         21   -1    0    0  501  502 -0.00000000000E+00 -0.00000000000E+00 -0.17177568848E+03  0.17177568848E+03  0.00000000000E+00 0.  1.
         25    1    1    2    0    0 -0.24764944068E+03 -0.16841965606E+03  0.12303031876E+03  0.34706899221E+03  0.12500000000E+03 0.  0.
         25    1    1    2    0    0  0.28808375126E+03 -0.37744603471E+02  0.77854286660E+03  0.84033975150E+03  0.12500000000E+03 0.  0.
         25    1    1    2    0    0 -0.40434310572E+02  0.20616425953E+03  0.48888260654E+03  0.54659842514E+03  0.12500000000E+03 0.  0.
</event>
<event>
 5    0  0.5641283E-005  0.5392433E+03  0.7546771E-02  0.1004015E+00
         21   -1    0    0  502  501  0.00000000000E+00  0.00000000000E+00  0.82836543240E+03  0.82836543240E+03  0.00000000000E+00 0. -1.
         21   -1    0    0  501  502 -0.00000000000E+00 -0.00000000000E+00 -0.35103273744E+03  0.35103273744E+03  0.00000000000E+00 0. -1.
         25    1    1    2    0    0 -0.25900380178E+02  0.13500788009E+03 -0.13634370179E+03  0.23046162890E+03  0.12500000000E+03 0.  0.
         25    1    1    2    0    0 -0.32610030547E+02 -0.18813668008E+03 -0.78342959422E+02  0.24129120120E+03  0.12500000000E+03 0.  0.
         25    1    1    2    0    0  0.58510410725E+02  0.53128799986E+02  0.69201935617E+03  0.70764533974E+03  0.12500000000E+03 0.  0.
</event>
<event>
 5    0  0.5641283E-005  0.2832539E+03  0.7546771E-02  0.1093925E+00
         21   -1    0    0  502  501  0.00000000000E+00  0.00000000000E+00  0.38574137401E+03  0.38574137401E+03  0.00000000000E+00 0.  1.
         21   -1    0    0  501  502 -0.00000000000E+00 -0.00000000000E+00 -0.20799623513E+03  0.20799623513E+03  0.00000000000E+00 0.  1.
         25    1    1    2    0    0 -0.88649627632E+02  0.48968677030E+02  0.20270618311E+02  0.16214988676E+03  0.12500000000E+03 0.  0.
         25    1    1    2    0    0  0.15753674427E+03 -0.77008883646E+02  0.18458673008E+03  0.28362907975E+03  0.12500000000E+03 0.  0.
         25    1    1    2    0    0 -0.68887116637E+02  0.28040206616E+02 -0.27112209516E+02  0.14795864264E+03  0.12500000000E+03 0.  0.
</event>
<event>
 5    0  0.5641283E-005  0.3766598E+03  0.7546771E-02  0.1052175E+00
         21   -1    0    0  502  501  0.00000000000E+00  0.00000000000E+00  0.18836244414E+04  0.18836244414E+04  0.00000000000E+00 0.  1.
         21   -1    0    0  501  502 -0.00000000000E+00 -0.00000000000E+00 -0.75318956153E+02  0.75318956153E+02  0.00000000000E+00 0.  1.
         25    1    1    2    0    0 -0.16198054666E+03  0.15935677067E+03  0.12645360480E+04  0.12908557993E+04  0.12500000000E+03 0.  0.
         25    1    1    2    0    0  0.17548200309E+03 -0.14859911579E+03  0.37757726242E+03  0.45941834935E+03  0.12500000000E+03 0.  0.
         25    1    1    2    0    0 -0.13501456433E+02 -0.10757654879E+02  0.16619217474E+03  0.20866924884E+03  0.12500000000E+03 0.  0.
</event>
<event>
 5    0  0.5641283E-005  0.2405173E+03  0.7546771E-02  0.1119449E+00
         21   -1    0    0  502  501  0.00000000000E+00  0.00000000000E+00  0.10014532959E+04  0.10014532959E+04  0.00000000000E+00 0. -1.
         21   -1    0    0  501  502 -0.00000000000E+00 -0.00000000000E+00 -0.57764630543E+02  0.57764630543E+02  0.00000000000E+00 0. -1.
         25    1    1    2    0    0  0.10456946603E+03  0.23117007386E+02  0.23165481759E+03  0.28417973849E+03  0.12500000000E+03 0.  0.
         25    1    1    2    0    0 -0.98141034594E+02  0.39161418276E+02  0.43390157611E+03  0.46374654403E+03  0.12500000000E+03 0.  0.
         25    1    1    2    0    0 -0.64284314389E+01 -0.62278425662E+02  0.27813227164E+03  0.31129164390E+03  0.12500000000E+03 0.  0.
</event>
<event>
 5    0  0.5641283E-005  0.2905769E+03  0.7546771E-02  0.1090048E+00
         21   -1    0    0  502  501  0.00000000000E+00  0.00000000000E+00  0.23193599231E+03  0.23193599231E+03  0.00000000000E+00 0. -1.
         21   -1    0    0  501  502 -0.00000000000E+00 -0.00000000000E+00 -0.36404403134E+03  0.36404403134E+03  0.00000000000E+00 0. -1.
         25    1    1    2    0    0  0.12697615459E+03 -0.50704687069E+02  0.46798798499E+00  0.18525422570E+03  0.12500000000E+03 0.  0.
         25    1    1    2    0    0 -0.13231312714E+03 -0.87661491165E+02 -0.62929051439E+02  0.21160426782E+03  0.12500000000E+03 0.  0.
         25    1    1    2    0    0  0.53369725472E+01  0.13836617823E+03 -0.69646975576E+02  0.19912153013E+03  0.12500000000E+03 0.  0.
</event>
<event>
 5    0  0.5641283E-005  0.2542575E+03  0.7546771E-02  0.1110643E+00
         21   -1    0    0  502  501  0.00000000000E+00  0.00000000000E+00  0.49180004167E+03  0.49180004167E+03  0.00000000000E+00 0.  1.
         21   -1    0    0  501  502 -0.00000000000E+00 -0.00000000000E+00 -0.13144949605E+03  0.13144949605E+03  0.00000000000E+00 0.  1.
         25    1    1    2    0    0 -0.81615335236E+02  0.77578898877E+02  0.14119693705E+03  0.21963862030E+03  0.12500000000E+03 0.  0.
         25    1    1    2    0    0  0.29209064560E+02 -0.13770769616E+03  0.98650761433E+02  0.21254070614E+03  0.12500000000E+03 0.  0.
         25    1    1    2    0    0  0.52406270676E+02  0.60128797281E+02  0.12050284715E+03  0.19107021128E+03  0.12500000000E+03 0.  0.
</event>
<event>
 5    0  0.5641283E-005  0.2566812E+03  0.7546771E-02  0.1109154E+00
         21   -1    0    0  502  501  0.00000000000E+00  0.00000000000E+00  0.22528375637E+03  0.22528375637E+03  0.00000000000E+00 0. -1.
         21   -1    0    0  501  502 -0.00000000000E+00 -0.00000000000E+00 -0.29245446643E+03  0.29245446643E+03  0.00000000000E+00 0. -1.
         25    1    1    2    0    0 -0.61796406106E+02  0.21109999523E+02  0.35397027207E+02  0.14540418640E+03  0.12500000000E+03 0.  0.
         25    1    1    2    0    0 -0.41903296038E+02  0.44824630009E+02 -0.13514156962E+03  0.19404478224E+03  0.12500000000E+03 0.  0.
         25    1    1    2    0    0  0.10369970214E+03 -0.65934629533E+02  0.32573832359E+02  0.17828925417E+03  0.12500000000E+03 0.  0.
</event>
<event>
 5    0  0.5641283E-005  0.2499564E+03  0.7546771E-02  0.1113332E+00
         21   -1    0    0  502  501  0.00000000000E+00  0.00000000000E+00  0.13367695398E+04  0.13367695398E+04  0.00000000000E+00 0. -1.
         21   -1    0    0  501  502 -0.00000000000E+00 -0.00000000000E+00 -0.46738213546E+02  0.46738213546E+02  0.00000000000E+00 0. -1.
         25    1    1    2    0    0  0.12980105968E+02 -0.68279829681E+01  0.20708531487E+03  0.24233124466E+03  0.12500000000E+03 0.  0.
         25    1    1    2    0    0 -0.59071883468E+01 -0.84883882056E+01  0.94876001597E+03  0.95701489827E+03  0.12500000000E+03 0.  0.
         25    1    1    2    0    0 -0.70729176214E+01  0.15316371174E+02  0.13418599544E+03  0.18416161045E+03  0.12500000000E+03 0.  0.
</event>
<event>
 5    0  0.5785830E-005  0.2613628E+03  0.7546771E-02  0.1106327E+00
         21   -1    0    0  502  501  0.00000000000E+00  0.00000000000E+00  0.39352610005E+03  0.39352610005E+03  0.00000000000E+00 0.  1.
         21   -1    0    0  501  502 -0.00000000000E+00 -0.00000000000E+00 -0.17358573471E+03  0.17358573471E+03  0.00000000000E+00 0. -1.
         25    1    1    2    0    0 -0.62177525366E+02  0.34775270938E+02  0.34095985863E+02  0.14786108474E+03  0.12500000000E+03 0.  0.
         25    1    1    2    0    0 -0.10153035109E+03  0.17932149300E+02  0.64110789334E+02  0.17425604001E+03  0.12500000000E+03 0.  0.
         25    1    1    2    0    0  0.16370787645E+03 -0.52707420238E+02  0.12173359015E+03  0.24499471001E+03  0.12500000000E+03 0.  0.
</event>
<event>
 5    0  0.5738048E-005  0.3798971E+03  0.7546771E-02  0.1050972E+00
         21   -1    0    0  502  501  0.00000000000E+00  0.00000000000E+00  0.29677516201E+03  0.29677516201E+03  0.00000000000E+00 0. -1.
         21   -1    0    0  501  502 -0.00000000000E+00 -0.00000000000E+00 -0.48630024305E+03  0.48630024305E+03  0.00000000000E+00 0. -1.
         25    1    1    2    0    0  0.11137651922E+03 -0.14013115927E+03 -0.71236239344E+02  0.22965424583E+03  0.12500000000E+03 0.  0.
         25    1    1    2    0    0  0.22543401538E+02 -0.15714511563E+02 -0.24879232960E+03  0.27978165432E+03  0.12500000000E+03 0.  0.
         25    1    1    2    0    0 -0.13391992075E+03  0.15584567083E+03  0.13050348791E+03  0.27363950491E+03  0.12500000000E+03 0.  0.
</event>
<event>
 5    0  0.5641283E-005  0.4136066E+03  0.7546771E-02  0.1039167E+00
         21   -1    0    0  502  501  0.00000000000E+00  0.00000000000E+00  0.35592862198E+03  0.35592862198E+03  0.00000000000E+00 0.  1.
         21   -1    0    0  501  502 -0.00000000000E+00 -0.00000000000E+00 -0.48063117349E+03  0.48063117349E+03  0.00000000000E+00 0.  1.
         25    1    1    2    0    0  0.77688278238E+02 -0.12232210208E+03  0.15849698360E+03  0.24848432354E+03  0.12500000000E+03 0.  0.
         25    1    1    2    0    0 -0.80807531981E+02  0.18516050069E+03 -0.35780314796E+03  0.42949081588E+03  0.12500000000E+03 0.  0.
         25    1    1    2    0    0  0.31192537430E+01 -0.62838398609E+02  0.74603612847E+02  0.15858465605E+03  0.12500000000E+03 0.  0.
</event>
<event>
 5    0  0.5641283E-005  0.2111963E+03  0.7546771E-02  0.1140622E+00
         21   -1    0    0  502  501  0.00000000000E+00  0.00000000000E+00  0.40805163786E+03  0.40805163786E+03  0.00000000000E+00 0.  1.
         21   -1    0    0  501  502 -0.00000000000E+00 -0.00000000000E+00 -0.10930944485E+03  0.10930944485E+03  0.00000000000E+00 0.  1.
         25    1    1    2    0    0 -0.36985655951E+02  0.14978690081E+02  0.13325648170E+03  0.18701494544E+03  0.12500000000E+03 0.  0.
         25    1    1    2    0    0  0.45700088509E+02 -0.57997135040E+02  0.12565451397E+03  0.19200578805E+03  0.12500000000E+03 0.  0.
         25    1    1    2    0    0 -0.87144325579E+01  0.43018444960E+02  0.39831197329E+02  0.13834034922E+03  0.12500000000E+03 0.  0.
</event>
<event>
 5    0  0.6709635E-005  0.4632756E+03  0.7546771E-02  0.1023835E+00
         21   -1    0    0  502  501  0.00000000000E+00  0.00000000000E+00  0.73975441043E+03  0.73975441043E+03  0.00000000000E+00 0. -1.
         21   -1    0    0  501  502 -0.00000000000E+00 -0.00000000000E+00 -0.29012908809E+03  0.29012908809E+03  0.00000000000E+00 0. -1.
         25    1    1    2    0    0  0.17871501605E+03 -0.10042194613E+03 -0.47320412278E+02  0.24471993308E+03  0.12500000000E+03 0.  0.
         25    1    1    2    0    0  0.11972022925E+03  0.74456614069E+02  0.40674591654E+03  0.44826773394E+03  0.12500000000E+03 0.  0.
         25    1    1    2    0    0 -0.29843524530E+03  0.25965332061E+02  0.90199818065E+02  0.33689583150E+03  0.12500000000E+03 0.  0.
</event>
<event>
 5    0  0.5641283E-005  0.2901005E+03  0.7546771E-02  0.1090297E+00
         21   -1    0    0  502  501  0.00000000000E+00  0.00000000000E+00  0.10450336522E+03  0.10450336522E+03  0.00000000000E+00 0. -1.
         21   -1    0    0  501  502 -0.00000000000E+00 -0.00000000000E+00 -0.80531677597E+03  0.80531677597E+03  0.00000000000E+00 0. -1.
         25    1    1    2    0    0  0.33578554026E+02  0.20606460831E+02 -0.67196474318E+02  0.14728377942E+03  0.12500000000E+03 0.  0.
         25    1    1    2    0    0  0.13567555560E+03 -0.86384255071E+02 -0.29606396210E+03  0.35937301730E+03  0.12500000000E+03 0.  0.
         25    1    1    2    0    0 -0.16925410962E+03  0.65777794240E+02 -0.33755297434E+03  0.40316334447E+03  0.12500000000E+03 0.  0.
</event>
<event>
 5    0  0.5641283E-005  0.2534613E+03  0.7546771E-02  0.1111137E+00
         21   -1    0    0  502  501  0.00000000000E+00  0.00000000000E+00  0.24230393862E+03  0.24230393862E+03  0.00000000000E+00 0.  1.
         21   -1    0    0  501  502 -0.00000000000E+00 -0.00000000000E+00 -0.26513246573E+03  0.26513246573E+03  0.00000000000E+00 0.  1.
         25    1    1    2    0    0  0.14932521365E+02  0.35334088966E+02  0.95332103036E+02  0.16181683444E+03  0.12500000000E+03 0.  0.
         25    1    1    2    0    0 -0.55697596264E+02 -0.10821393994E+03 -0.64225401416E+02  0.18590960496E+03  0.12500000000E+03 0.  0.
         25    1    1    2    0    0  0.40765074899E+02  0.72879850978E+02 -0.53935228726E+02  0.15970996496E+03  0.12500000000E+03 0.  0.
</event>
<event>
 5    0  0.5641283E-005  0.3345536E+03  0.7546771E-02  0.1069140E+00
         21   -1    0    0  502  501  0.00000000000E+00  0.00000000000E+00  0.10547932739E+03  0.10547932739E+03  0.00000000000E+00 0. -1.
         21   -1    0    0  501  502 -0.00000000000E+00 -0.00000000000E+00 -0.10611189164E+04  0.10611189164E+04  0.00000000000E+00 0. -1.
         25    1    1    2    0    0 -0.30196000436E+02 -0.13734673320E+03 -0.25806988345E+03  0.31937593570E+03  0.12500000000E+03 0.  0.
         25    1    1    2    0    0  0.20066617147E+03  0.12095740119E+03 -0.43607689708E+03  0.51057385895E+03  0.12500000000E+03 0.  0.
         25    1    1    2    0    0 -0.17047017104E+03  0.16389332010E+02 -0.26149280843E+03  0.33664844910E+03  0.12500000000E+03 0.  0.
</event>
<event>
 5    0  0.5641283E-005  0.2862691E+03  0.7546771E-02  0.1092313E+00
         21   -1    0    0  502  501  0.00000000000E+00  0.00000000000E+00  0.14742910391E+03  0.14742910391E+03  0.00000000000E+00 0.  1.
         21   -1    0    0  501  502 -0.00000000000E+00 -0.00000000000E+00 -0.55586020021E+03  0.55586020021E+03  0.00000000000E+00 0.  1.
         25    1    1    2    0    0  0.12643771000E+03 -0.11761787820E+03 -0.11664782586E+03  0.24300653296E+03  0.12500000000E+03 0.  0.
         25    1    1    2    0    0 -0.14372602603E+03  0.52626355907E+02 -0.23590209268E+03  0.30773609022E+03  0.12500000000E+03 0.  0.
         25    1    1    2    0    0  0.17288316027E+02  0.64991522292E+02 -0.55881177756E+02  0.15254668095E+03  0.12500000000E+03 0.  0.
</event>
<event>
 5    0  0.5641283E-005  0.2926134E+03  0.7546771E-02  0.1088992E+00
         21   -1    0    0  502  501  0.00000000000E+00  0.00000000000E+00  0.25120576217E+03  0.25120576217E+03  0.00000000000E+00 0.  1.
         21   -1    0    0  501  502 -0.00000000000E+00 -0.00000000000E+00 -0.34084656259E+03  0.34084656259E+03  0.00000000000E+00 0. -1.
         25    1    1    2    0    0  0.21179543833E+03  0.24199190605E+02 -0.13534826266E+01  0.24712292577E+03  0.12500000000E+03 0.  0.
         25    1    1    2    0    0 -0.12540477702E+03  0.92644079089E+01 -0.56840960439E+02  0.18619366836E+03  0.12500000000E+03 0.  0.
         25    1    1    2    0    0 -0.86390661311E+02 -0.33463598514E+02 -0.31446357357E+02  0.15873573063E+03  0.12500000000E+03 0.  0.
</event>
<event>
 5    0  0.5641283E-005  0.2253147E+03  0.7546771E-02  0.1129982E+00
         21   -1    0    0  502  501  0.00000000000E+00  0.00000000000E+00  0.12740672695E+03  0.12740672695E+03  0.00000000000E+00 0. -1.
         21   -1    0    0  501  502 -0.00000000000E+00 -0.00000000000E+00 -0.39846162550E+03  0.39846162550E+03  0.00000000000E+00 0. -1.
         25    1    1    2    0    0  0.43577180782E+02 -0.90434186137E+02 -0.47549161343E+02  0.16722211412E+03  0.12500000000E+03 0.  0.
         25    1    1    2    0    0 -0.37550084956E+02  0.13041006291E+02 -0.83185940007E+02  0.15532217273E+03  0.12500000000E+03 0.  0.
         25    1    1    2    0    0 -0.60270958266E+01  0.77393179846E+02 -0.14031979720E+03  0.20332406561E+03  0.12500000000E+03 0.  0.
</event>
<event>
 5    0  0.5641283E-005  0.2923406E+03  0.7546771E-02  0.1089133E+00
         21   -1    0    0  502  501  0.00000000000E+00  0.00000000000E+00  0.32022149288E+02  0.32022149288E+02  0.00000000000E+00 0. -1.
         21   -1    0    0  501  502 -0.00000000000E+00 -0.00000000000E+00 -0.26688715024E+04  0.26688715024E+04  0.00000000000E+00 0. -1.
         25    1    1    2    0    0  0.10473842922E+03 -0.33018614295E+02 -0.18892355585E+04  0.18965485396E+04  0.12500000000E+03 0.  0.
         25    1    1    2    0    0 -0.54050148081E+02 -0.15542720804E+02 -0.49771757933E+03  0.51624682416E+03  0.12500000000E+03 0.  0.
         25    1    1    2    0    0 -0.50688281137E+02  0.48561335098E+02 -0.24989621525E+03  0.28809828793E+03  0.12500000000E+03 0.  0.
</event>
<event>
 5    0  0.5641283E-005  0.2991222E+03  0.7546771E-02  0.1085680E+00
         21   -1    0    0  502  501  0.00000000000E+00  0.00000000000E+00  0.55289629961E+02  0.55289629961E+02  0.00000000000E+00 0. -1.
         21   -1    0    0  501  502 -0.00000000000E+00 -0.00000000000E+00 -0.16182793558E+04  0.16182793558E+04  0.00000000000E+00 0. -1.
         25    1    1    2    0    0  0.93400491608E+02  0.34052444585E+02 -0.65967393755E+03  0.67873258703E+03  0.12500000000E+03 0.  0.
         25    1    1    2    0    0  0.63134614154E+02 -0.80101501852E+02 -0.64420626214E+03  0.66410009658E+03  0.12500000000E+03 0.  0.
         25    1    1    2    0    0 -0.15653510576E+03  0.46049057267E+02 -0.25910952612E+03  0.33073630211E+03  0.12500000000E+03 0.  0.
</event>
<event>
 5    0  0.6369499E-005  0.3547657E+03  0.7546771E-02  0.1060676E+00
         21   -1    0    0  502  501  0.00000000000E+00  0.00000000000E+00  0.63560115650E+02  0.63560115650E+02  0.00000000000E+00 0.  1.
         21   -1    0    0  501  502 -0.00000000000E+00 -0.00000000000E+00 -0.19801517333E+04  0.19801517333E+04  0.00000000000E+00 0.  1.
         25    1    1    2    0    0  0.12176482160E+03 -0.18118224866E+03 -0.76824644948E+03  0.80838189375E+03  0.12500000000E+03 0.  0.
         25    1    1    2    0    0 -0.52982828223E+02  0.70218828749E+02 -0.12878025223E+03  0.19986799984E+03  0.12500000000E+03 0.  0.
         25    1    1    2    0    0 -0.68781993373E+02  0.11096341991E+03 -0.10195649160E+04  0.10354619554E+04  0.12500000000E+03 0.  0.
</event>
<event>
 5    0  0.5826825E-005  0.3296267E+03  0.7546771E-02  0.1071302E+00
         21   -1    0    0  502  501  0.00000000000E+00  0.00000000000E+00  0.23989503273E+03  0.23989503273E+03  0.00000000000E+00 0.  1.
         21   -1    0    0  501  502 -0.00000000000E+00 -0.00000000000E+00 -0.45292222811E+03  0.45292222811E+03  0.00000000000E+00 0.  1.
         25    1    1    2    0    0  0.11184106837E+03  0.52590916688E+02 -0.14313168005E+03  0.22668459790E+03  0.12500000000E+03 0.  0.
         25    1    1    2    0    0 -0.32514242762E+02  0.36874673010E+02 -0.20607207255E+03  0.24598295993E+03  0.12500000000E+03 0.  0.
         25    1    1    2    0    0 -0.79326825608E+02 -0.89465589698E+02  0.13617655721E+03  0.22014970301E+03  0.12500000000E+03 0.  0.
</event>
<event>
 5    0  0.5641283E-005  0.3377336E+03  0.7546771E-02  0.1067765E+00
         21   -1    0    0  502  501  0.00000000000E+00  0.00000000000E+00  0.12744278879E+04  0.12744278879E+04  0.00000000000E+00 0.  1.
         21   -1    0    0  501  502 -0.00000000000E+00 -0.00000000000E+00 -0.89502128729E+02  0.89502128729E+02  0.00000000000E+00 0.  1.
         25    1    1    2    0    0 -0.14529532348E+02  0.18875770424E+03  0.18136915965E+03  0.29044853295E+03  0.12500000000E+03 0.  0.
         25    1    1    2    0    0  0.92193178488E+02 -0.68886668301E+02  0.30003442589E+03  0.34480517970E+03  0.12500000000E+03 0.  0.
         25    1    1    2    0    0 -0.77663646140E+02 -0.11987103594E+03  0.70352217358E+03  0.72867630393E+03  0.12500000000E+03 0.  0.
</event>
<event>
 5    0  0.5641283E-005  0.4424620E+03  0.7546771E-02  0.1029994E+00
         21   -1    0    0  502  501  0.00000000000E+00  0.00000000000E+00  0.11281609471E+04  0.11281609471E+04  0.00000000000E+00 0.  1.
         21   -1    0    0  501  502 -0.00000000000E+00 -0.00000000000E+00 -0.17353256026E+03  0.17353256026E+03  0.00000000000E+00 0.  1.
         25    1    1    2    0    0  0.84621032534E+02  0.80393778650E+02  0.88535691933E+02  0.19258101552E+03  0.12500000000E+03 0.  0.
         25    1    1    2    0    0  0.22935017146E+03 -0.19668849454E+03  0.32792661435E+03  0.46308609290E+03  0.12500000000E+03 0.  0.
         25    1    1    2    0    0 -0.31397120400E+03  0.11629471589E+03  0.53816608055E+03  0.64602639894E+03  0.12500000000E+03 0.  0.
</event>
<event>
 5    0  0.5641283E-005  0.4226500E+03  0.7546771E-02  0.1036207E+00
         21   -1    0    0  502  501  0.00000000000E+00  0.00000000000E+00  0.34344491024E+03  0.34344491024E+03  0.00000000000E+00 0.  1.
         21   -1    0    0  501  502 -0.00000000000E+00 -0.00000000000E+00 -0.52012134399E+03  0.52012134399E+03  0.00000000000E+00 0.  1.
         25    1    1    2    0    0  0.43235836042E+02  0.23051764465E+03 -0.30370054962E+03  0.40356752329E+03  0.12500000000E+03 0.  0.
         25    1    1    2    0    0  0.10095940553E+03 -0.16512304212E+03  0.11604684383E+03  0.25797342997E+03  0.12500000000E+03 0.  0.
         25    1    1    2    0    0 -0.14419524158E+03 -0.65394602531E+02  0.10977272037E+02  0.20202530098E+03  0.12500000000E+03 0.  0.
</event>
<event>
 5    0  0.5641283E-005  0.3646097E+03  0.7546771E-02  0.1056773E+00
         21   -1    0    0  502  501  0.00000000000E+00  0.00000000000E+00  0.79572907106E+03  0.79572907106E+03  0.00000000000E+00 0. -1.
         21   -1    0    0  501  502 -0.00000000000E+00 -0.00000000000E+00 -0.16706718213E+03  0.16706718213E+03  0.00000000000E+00 0. -1.
         25    1    1    2    0    0  0.10444977326E+03 -0.20098694765E+03  0.36039462316E+03  0.44363813256E+03  0.12500000000E+03 0.  0.
         25    1    1    2    0    0  0.93209337125E+02  0.88763175843E+02  0.15090251865E+03  0.23444285455E+03  0.12500000000E+03 0.  0.
         25    1    1    2    0    0 -0.19765911038E+03  0.11222377181E+03  0.11736474711E+03  0.28471526608E+03  0.12500000000E+03 0.  0.
</event>
<event>
 5    0  0.5641283E-005  0.2599226E+03  0.7546771E-02  0.1107190E+00
         21   -1    0    0  502  501  0.00000000000E+00  0.00000000000E+00  0.18327328091E+04  0.18327328091E+04  0.00000000000E+00 0. -1.
         21   -1    0    0  501  502 -0.00000000000E+00 -0.00000000000E+00 -0.36862852069E+02  0.36862852069E+02  0.00000000000E+00 0. -1.
         25    1    1    2    0    0  0.36871018861E+02 -0.12281896458E+03  0.76320258802E+03  0.78393058395E+03  0.12500000000E+03 0.  0.
         25    1    1    2    0    0  0.11086954937E+02  0.53243681784E+02  0.21777356775E+03  0.25692048776E+03  0.12500000000E+03 0.  0.
         25    1    1    2    0    0 -0.47957973798E+02  0.69575282793E+02  0.81489380121E+03  0.82874458941E+03  0.12500000000E+03 0.  0.
</event>
<event>
 5    0  0.5641283E-005  0.2810637E+03  0.7546771E-02  0.1095109E+00
         21   -1    0    0  502  501  0.00000000000E+00  0.00000000000E+00  0.62798208244E+03  0.62798208244E+03  0.00000000000E+00 0. -1.
         21   -1    0    0  501  502 -0.00000000000E+00 -0.00000000000E+00 -0.12579471085E+03  0.12579471085E+03  0.00000000000E+00 0. -1.
         25    1    1    2    0    0  0.26737721261E+01  0.54822090323E+02  0.24592597988E+03  0.28127779547E+03  0.12500000000E+03 0.  0.
         25    1    1    2    0    0 -0.32742717405E+02 -0.10303426371E+03  0.28756036359E+03  0.33166867164E+03  0.12500000000E+03 0.  0.
         25    1    1    2    0    0  0.30068945279E+02  0.48212173386E+02 -0.31298971877E+02  0.14083032618E+03  0.12500000000E+03 0.  0.
</event>
<event>
 5    0  0.5641283E-005  0.4538705E+03  0.7546771E-02  0.1026574E+00
         21   -1    0    0  502  501  0.00000000000E+00  0.00000000000E+00  0.88340105388E+02  0.88340105388E+02  0.00000000000E+00 0.  1.
         21   -1    0    0  501  502 -0.00000000000E+00 -0.00000000000E+00 -0.23318794269E+04  0.23318794269E+04  0.00000000000E+00 0.  1.
         25    1    1    2    0    0  0.19888991087E+02  0.19093622017E+03 -0.48477357872E+03  0.53617407133E+03  0.12500000000E+03 0.  0.
         25    1    1    2    0    0  0.15630534475E+03  0.12977864465E+03 -0.35279089802E+03  0.42586415103E+03  0.12500000000E+03 0.  0.
         25    1    1    2    0    0 -0.17619433584E+03 -0.32071486482E+03 -0.14059748448E+04  0.14581813100E+04  0.12500000000E+03 0.  0.
</event>
<event>
 5    0  0.5641283E-005  0.2373738E+03  0.7546771E-02  0.1121555E+00
         21   -1    0    0  502  501  0.00000000000E+00  0.00000000000E+00  0.36653089274E+02  0.36653089274E+02  0.00000000000E+00 0.  1.
         21   -1    0    0  501  502 -0.00000000000E+00 -0.00000000000E+00 -0.15372870174E+04  0.15372870174E+04  0.00000000000E+00 0.  1.
         25    1    1    2    0    0  0.30468111210E+02 -0.52045910759E+02 -0.21836161871E+03  0.25873515253E+03  0.12500000000E+03 0.  0.
         25    1    1    2    0    0 -0.46496863522E+02  0.97327000198E+01 -0.91283468289E+03  0.92257728243E+03  0.12500000000E+03 0.  0.
         25    1    1    2    0    0  0.16028752312E+02  0.42313210739E+02 -0.36943762647E+03  0.39262767167E+03  0.12500000000E+03 0.  0.
</event>
<event>
 5    0  0.5641283E-005  0.4343157E+03  0.7546771E-02  0.1032505E+00
         21   -1    0    0  502  501  0.00000000000E+00  0.00000000000E+00  0.19042997434E+03  0.19042997434E+03  0.00000000000E+00 0.  1.
         21   -1    0    0  501  502 -0.00000000000E+00 -0.00000000000E+00 -0.99054841468E+03  0.99054841468E+03  0.00000000000E+00 0.  1.
         25    1    1    2    0    0  0.24285763178E+03 -0.16388179453E+02 -0.25249376813E+02  0.27479252677E+03  0.12500000000E+03 0.  0.
         25    1    1    2    0    0 -0.19564709186E+03 -0.13341489355E+03 -0.40880397958E+03  0.48869521391E+03  0.12500000000E+03 0.  0.
         25    1    1    2    0    0 -0.47210539917E+02  0.14980307301E+03 -0.36606508395E+03  0.41749064834E+03  0.12500000000E+03 0.  0.
</event>
<event>
 5    0  0.5641283E-005  0.3901311E+03  0.7546771E-02  0.1047252E+00
         21   -1    0    0  502  501  0.00000000000E+00  0.00000000000E+00  0.88142616764E+03  0.88142616764E+03  0.00000000000E+00 0. -1.
         21   -1    0    0  501  502 -0.00000000000E+00 -0.00000000000E+00 -0.17267725073E+03  0.17267725073E+03  0.00000000000E+00 0. -1.
         25    1    1    2    0    0  0.46458186996E+02  0.21702069295E+03  0.31174483653E+03  0.40257444952E+03  0.12500000000E+03 0.  0.
         25    1    1    2    0    0  0.14621945451E+01 -0.31339325921E+03  0.33455400130E+03  0.47515139978E+03  0.12500000000E+03 0.  0.
         25    1    1    2    0    0 -0.47920381541E+02  0.96372566257E+02  0.62450079076E+02  0.17637756907E+03  0.12500000000E+03 0.  0.
</event>
<event>
 5    0  0.5641283E-005  0.2726751E+03  0.7546771E-02  0.1099758E+00
         21   -1    0    0  502  501  0.00000000000E+00  0.00000000000E+00  0.30498560687E+03  0.30498560687E+03  0.00000000000E+00 0. -1.
         21   -1    0    0  501  502 -0.00000000000E+00 -0.00000000000E+00 -0.24378767405E+03  0.24378767405E+03  0.00000000000E+00 0. -1.
         25    1    1    2    0    0  0.10825142373E+03 -0.97811401524E+01  0.14436478780E+03  0.21972763459E+03  0.12500000000E+03 0.  0.
         25    1    1    2    0    0 -0.41331813192E+00  0.44816918535E+02 -0.89541356709E+02  0.16016048695E+03  0.12500000000E+03 0.  0.
         25    1    1    2    0    0 -0.10783810560E+03 -0.35035778383E+02  0.63745017274E+01  0.16888515938E+03  0.12500000000E+03 0.  0.
</event>
<event>
 5    0  0.5641283E-005  0.2659456E+03  0.7546771E-02  0.1103623E+00
         21   -1    0    0  502  501  0.00000000000E+00  0.00000000000E+00  0.71169298248E+02  0.71169298248E+02  0.00000000000E+00 0.  1.
         21   -1    0    0  501  502 -0.00000000000E+00 -0.00000000000E+00 -0.99378646562E+03  0.99378646562E+03  0.00000000000E+00 0.  1.
         25    1    1    2    0    0 -0.20773908178E+02  0.78006232777E+02 -0.28106432069E+03  0.31802308089E+03  0.12500000000E+03 0.  0.
         25    1    1    2    0    0 -0.80484250587E+02 -0.93462912001E+02 -0.15495012545E+03  0.23419558469E+03  0.12500000000E+03 0.  0.
         25    1    1    2    0    0  0.10125815877E+03  0.15456679224E+02 -0.48660272123E+03  0.51273709829E+03  0.12500000000E+03 0.  0.
</event>
<event>
 5    0  0.5641283E-005  0.4021758E+03  0.7546771E-02  0.1043029E+00
         21   -1    0    0  502  501  0.00000000000E+00  0.00000000000E+00  0.10386289625E+04  0.10386289625E+04  0.00000000000E+00 0.  1.
         21   -1    0    0  501  502 -0.00000000000E+00 -0.00000000000E+00 -0.15572967283E+03  0.15572967283E+03  0.00000000000E+00 0.  1.
         25    1    1    2    0    0  0.59122992920E+02  0.21930692189E+03  0.55892865727E+03  0.61613090996E+03  0.12500000000E+03 0.  0.
         25    1    1    2    0    0 -0.15608463473E+03 -0.82004409098E+02  0.29657388412E+03  0.36697166792E+03  0.12500000000E+03 0.  0.
         25    1    1    2    0    0  0.96961641814E+02 -0.13730251279E+03  0.27396748305E+02  0.21125605748E+03  0.12500000000E+03 0.  0.
</event>
<event>
 5    0  0.5641283E-005  0.5055634E+03  0.7546771E-02  0.1012337E+00
         21   -1    0    0  502  501  0.00000000000E+00  0.00000000000E+00  0.20328812718E+03  0.20328812718E+03  0.00000000000E+00 0.  1.
         21   -1    0    0  501  502 -0.00000000000E+00 -0.00000000000E+00 -0.12573010965E+04  0.12573010965E+04  0.00000000000E+00 0.  1.
         25    1    1    2    0    0 -0.19153129841E+03 -0.12675487343E+03 -0.26219547150E+03  0.37030055561E+03  0.12500000000E+03 0.  0.
         25    1    1    2    0    0  0.34437777666E+03  0.14613233434E+01 -0.13061593419E+03  0.38895206747E+03  0.12500000000E+03 0.  0.
         25    1    1    2    0    0 -0.15284647825E+03  0.12529355009E+03 -0.66120156364E+03  0.70133660062E+03  0.12500000000E+03 0.  0.
</event>
<event>
 5    0  0.5641283E-005  0.3767350E+03  0.7546771E-02  0.1052147E+00
         21   -1    0    0  502  501  0.00000000000E+00  0.00000000000E+00  0.49081066843E+03  0.49081066843E+03  0.00000000000E+00 0. -1.
         21   -1    0    0  501  502 -0.00000000000E+00 -0.00000000000E+00 -0.28917319648E+03  0.28917319648E+03  0.00000000000E+00 0. -1.
         25    1    1    2    0    0 -0.56056155852E+02  0.88753590194E+02  0.10764386859E+03  0.19552926847E+03  0.12500000000E+03 0.  0.
         25    1    1    2    0    0 -0.72399942925E+02  0.84169611967E+02 -0.15808612065E+03  0.23009236593E+03  0.12500000000E+03 0.  0.
         25    1    1    2    0    0  0.12845609878E+03 -0.17292320216E+03  0.25207972401E+03  0.35436223052E+03  0.12500000000E+03 0.  0.
</event>
<event>
 5    0  0.5641283E-005  0.2736065E+03  0.7546771E-02  0.1099233E+00
         21   -1    0    0  502  501  0.00000000000E+00  0.00000000000E+00  0.72790934447E+02  0.72790934447E+02  0.00000000000E+00 0.  1.
         21   -1    0    0  501  502 -0.00000000000E+00 -0.00000000000E+00 -0.10284316548E+04  0.10284316548E+04  0.00000000000E+00 0.  1.
         25    1    1    2    0    0  0.21069916573E+02  0.69754865675E+01 -0.20889894925E+03  0.24445116035E+03  0.12500000000E+03 0.  0.
         25    1    1    2    0    0 -0.28435139937E+02 -0.63292018719E+02 -0.57679035766E+02  0.15416325108E+03  0.12500000000E+03 0.  0.
         25    1    1    2    0    0  0.73652233637E+01  0.56316532152E+02 -0.68906273534E+03  0.70260817783E+03  0.12500000000E+03 0.  0.
</event>
<event>
 5    0  0.5641283E-005  0.3833749E+03  0.7546771E-02  0.1049693E+00
         21   -1    0    0  502  501  0.00000000000E+00  0.00000000000E+00  0.90572614336E+03  0.90572614336E+03  0.00000000000E+00 0.  1.
         21   -1    0    0  501  502 -0.00000000000E+00 -0.00000000000E+00 -0.16227457094E+03  0.16227457094E+03  0.00000000000E+00 0.  1.
         25    1    1    2    0    0  0.13092876140E+03  0.16512600980E+03  0.64914232392E+03  0.69384414415E+03  0.12500000000E+03 0.  0.
         25    1    1    2    0    0 -0.11719299526E+03 -0.86476187808E+02  0.11599246548E+03  0.22425784544E+03  0.12500000000E+03 0.  0.
         25    1    1    2    0    0 -0.13735766138E+02 -0.78649821989E+02 -0.21683216972E+02  0.14989872471E+03  0.12500000000E+03 0.  0.
</event>
<event>
 5    0  0.5641283E-005  0.3593136E+03  0.7546771E-02  0.1058856E+00
         21   -1    0    0  502  501  0.00000000000E+00  0.00000000000E+00  0.99251547677E+03  0.99251547677E+03  0.00000000000E+00 0. -1.
         21   -1    0    0  501  502 -0.00000000000E+00 -0.00000000000E+00 -0.13007987291E+03  0.13007987291E+03  0.00000000000E+00 0. -1.
         25    1    1    2    0    0 -0.33921254819E+02  0.13497443015E+03  0.25254648495E+03  0.31428247705E+03  0.12500000000E+03 0.  0.
         25    1    1    2    0    0  0.22673720761E+03 -0.17362981841E+02  0.39410558464E+03  0.47186380058E+03  0.12500000000E+03 0.  0.
         25    1    1    2    0    0 -0.19281595279E+03 -0.11761144831E+03  0.21578353427E+03  0.33644907205E+03  0.12500000000E+03 0.  0.
</event>
<event>
 5    0  0.5641283E-005  0.2138392E+03  0.7546771E-02  0.1138561E+00
         21   -1    0    0  502  501  0.00000000000E+00  0.00000000000E+00  0.12810109831E+04  0.12810109831E+04  0.00000000000E+00 0. -1.
         21   -1    0    0  501  502 -0.00000000000E+00 -0.00000000000E+00 -0.35696195772E+02  0.35696195772E+02  0.00000000000E+00 0. -1.
         25    1    1    2    0    0  0.99361566051E+01 -0.33885708805E+02  0.19590219043E+03  0.23505241263E+03  0.12500000000E+03 0.  0.
         25    1    1    2    0    0 -0.90616794814E+01  0.14932560611E+02  0.38015427172E+03  0.40055881679E+03  0.12500000000E+03 0.  0.
         25    1    1    2    0    0 -0.87447712374E+00  0.18953148194E+02  0.66925832522E+03  0.68109594949E+03  0.12500000000E+03 0.  0.
</event>
<event>
 5    0  0.5641283E-005  0.3077141E+03  0.7546771E-02  0.1081447E+00
         21   -1    0    0  502  501  0.00000000000E+00  0.00000000000E+00  0.93717263679E+03  0.93717263679E+03  0.00000000000E+00 0. -1.
         21   -1    0    0  501  502 -0.00000000000E+00 -0.00000000000E+00 -0.10103576168E+03  0.10103576168E+03  0.00000000000E+00 0. -1.
         25    1    1    2    0    0  0.89096668440E+02  0.10697494559E+03  0.51082610701E+03  0.54401302090E+03  0.12500000000E+03 0.  0.
         25    1    1    2    0    0 -0.97116987984E+02 -0.16934187667E+03  0.19326612531E+03  0.30180320697E+03  0.12500000000E+03 0.  0.
         25    1    1    2    0    0  0.80203195449E+01  0.62366931077E+02  0.13204464279E+03  0.19239217060E+03  0.12500000000E+03 0.  0.
</event>
<event>
 5    0  0.5641283E-005  0.1990720E+03  0.7546771E-02  0.1150524E+00
         21   -1    0    0  502  501  0.00000000000E+00  0.00000000000E+00  0.15433130499E+04  0.15433130499E+04  0.00000000000E+00 0.  1.
         21   -1    0    0  501  502 -0.00000000000E+00 -0.00000000000E+00 -0.25678312028E+02  0.25678312028E+02  0.00000000000E+00 0.  1.
         25    1    1    2    0    0 -0.18212518101E+02 -0.28585814242E+02  0.61384768853E+03  0.62736180096E+03  0.12500000000E+03 0.  0.
         25    1    1    2    0    0 -0.26307465341E+02  0.73177844793E+01  0.49775595482E+03  0.51393737290E+03  0.12500000000E+03 0.  0.
         25    1    1    2    0    0  0.44519983441E+02  0.21268029763E+02  0.40603109450E+03  0.42769218805E+03  0.12500000000E+03 0.  0.
</event>
<event>
 5    0  0.6666468E-005  0.2884430E+03  0.7546771E-02  0.1091165E+00
         21   -1    0    0  502  501  0.00000000000E+00  0.00000000000E+00  0.13777147837E+04  0.13777147837E+04  0.00000000000E+00 0. -1.
         21   -1    0    0  501  502 -0.00000000000E+00 -0.00000000000E+00 -0.60389379529E+02  0.60389379529E+02  0.00000000000E+00 0. -1.
         25    1    1    2    0    0  0.45795324084E+02 -0.60827705307E+02  0.37817228631E+03  0.40550770594E+03  0.12500000000E+03 0.  0.
         25    1    1    2    0    0  0.70424469280E+02 -0.72087436438E+02  0.17102271196E+03  0.23458468060E+03  0.12500000000E+03 0.  0.
         25    1    1    2    0    0 -0.11621979336E+03  0.13291514175E+03  0.76813040589E+03  0.79801177668E+03  0.12500000000E+03 0.  0.
</event>
<event>
 5    0  0.5641283E-005  0.3716976E+03  0.7546771E-02  0.1054046E+00
         21   -1    0    0  502  501  0.00000000000E+00  0.00000000000E+00  0.41786354317E+03  0.41786354317E+03  0.00000000000E+00 0.  1.
         21   -1    0    0  501  502 -0.00000000000E+00 -0.00000000000E+00 -0.33063219509E+03  0.33063219509E+03  0.00000000000E+00 0.  1.
         25    1    1    2    0    0 -0.18940094689E+03 -0.21513922773E+03 -0.36026976557E+02  0.31477062923E+03  0.12500000000E+03 0.  0.
         25    1    1    2    0    0  0.82894852792E+02  0.15191424732E+03  0.14254872453E+03  0.25669950140E+03  0.12500000000E+03 0.  0.
         25    1    1    2    0    0  0.10650609409E+03  0.63224980410E+02 -0.19290399883E+02  0.17702560762E+03  0.12500000000E+03 0.  0.
</event>
<event>
 5    0  0.5641283E-005  0.2662851E+03  0.7546771E-02  0.1103425E+00
         21   -1    0    0  502  501  0.00000000000E+00  0.00000000000E+00  0.26002253220E+03  0.26002253220E+03  0.00000000000E+00 0. -1.
         21   -1    0    0  501  502 -0.00000000000E+00 -0.00000000000E+00 -0.27269843308E+03  0.27269843308E+03  0.00000000000E+00 0. -1.
         25    1    1    2    0    0 -0.62471051055E+01  0.25536498111E+01 -0.62865251513E+02  0.14008064569E+03  0.12500000000E+03 0.  0.
         25    1    1    2    0    0 -0.12299820500E+03  0.78207888070E+02  0.17125621192E+02  0.19277790094E+03  0.12500000000E+03 0.  0.
         25    1    1    2    0    0  0.12924531010E+03 -0.80761537882E+02  0.33063729444E+02  0.19986241865E+03  0.12500000000E+03 0.  0.
</event>
<event>
 5    0  0.5641283E-005  0.2432619E+03  0.7546771E-02  0.1117639E+00
         21   -1    0    0  502  501  0.00000000000E+00  0.00000000000E+00  0.23193148740E+02  0.23193148740E+02  0.00000000000E+00 0.  1.
         21   -1    0    0  501  502 -0.00000000000E+00 -0.00000000000E+00 -0.25514587514E+04  0.25514587514E+04  0.00000000000E+00 0.  1.
         25    1    1    2    0    0  0.53104820944E+02  0.66208725682E+02 -0.89004007965E+03  0.90277353791E+03  0.12500000000E+03 0.  0.
         25    1    1    2    0    0  0.58465340426E+02  0.26770835900E+02 -0.61441919327E+03  0.63029423188E+03  0.12500000000E+03 0.  0.
         25    1    1    2    0    0 -0.11157016137E+03 -0.92979561582E+02 -0.10238063297E+04  0.10415841303E+04  0.12500000000E+03 0.  0.
</event>
<event>
 5    0  0.5641283E-005  0.2581852E+03  0.7546771E-02  0.1108239E+00
         21   -1    0    0  502  501  0.00000000000E+00  0.00000000000E+00  0.11440066731E+03  0.11440066731E+03  0.00000000000E+00 0. -1.
         21   -1    0    0  501  502 -0.00000000000E+00 -0.00000000000E+00 -0.58268547599E+03  0.58268547599E+03  0.00000000000E+00 0. -1.
         25    1    1    2    0    0 -0.43939665329E+02  0.53925228546E+02 -0.75483405050E+02  0.16174476468E+03  0.12500000000E+03 0.  0.
         25    1    1    2    0    0  0.92342771911E+02 -0.97371336223E+02 -0.33722661397E+03  0.38386866740E+03  0.12500000000E+03 0.  0.
         25    1    1    2    0    0 -0.48403106582E+02  0.43446107677E+02 -0.55574789653E+02  0.15147271122E+03  0.12500000000E+03 0.  0.
</event>
<event>
 5    0  0.5641283E-005  0.4215544E+03  0.7546771E-02  0.1036562E+00
         21   -1    0    0  502  501  0.00000000000E+00  0.00000000000E+00  0.17258759469E+03  0.17258759469E+03  0.00000000000E+00 0.  1.
         21   -1    0    0  501  502 -0.00000000000E+00 -0.00000000000E+00 -0.10296690544E+04  0.10296690544E+04  0.00000000000E+00 0.  1.
         25    1    1    2    0    0  0.48429603240E+02 -0.63775210903E+02 -0.31047806334E+03  0.34414289447E+03  0.12500000000E+03 0.  0.
         25    1    1    2    0    0  0.26428940999E+03  0.15152428426E+01 -0.37365175862E+03  0.47443843111E+03  0.12500000000E+03 0.  0.
         25    1    1    2    0    0 -0.31271901323E+03  0.62259968061E+02 -0.17295163770E+03  0.38367532347E+03  0.12500000000E+03 0.  0.
</event>
<event>
 5    0  0.5758960E-005  0.3183943E+03  0.7546771E-02  0.1076391E+00
         21   -1    0    0  502  501  0.00000000000E+00  0.00000000000E+00  0.48276221274E+03  0.48276221274E+03  0.00000000000E+00 0. -1.
         21   -1    0    0  501  502 -0.00000000000E+00 -0.00000000000E+00 -0.20998938827E+03  0.20998938827E+03  0.00000000000E+00 0. -1.
         25    1    1    2    0    0  0.77000619737E+02 -0.98307773736E+02 -0.56201493356E+02  0.18541068381E+03  0.12500000000E+03 0.  0.
         25    1    1    2    0    0 -0.49678168478E+02 -0.87232793602E+02  0.12378557752E+03  0.20254715477E+03  0.12500000000E+03 0.  0.
         25    1    1    2    0    0 -0.27322451258E+02  0.18554056734E+03  0.20518874030E+03  0.30479376243E+03  0.12500000000E+03 0.  0.
</event>
<event>
 5    0  0.5641283E-005  0.6614047E+03  0.7546771E-02  0.9785611E-01
         21   -1    0    0  502  501  0.00000000000E+00  0.00000000000E+00  0.11015019602E+04  0.11015019602E+04  0.00000000000E+00 0.  1.
         21   -1    0    0  501  502 -0.00000000000E+00 -0.00000000000E+00 -0.39714519653E+03  0.39714519653E+03  0.00000000000E+00 0.  1.
         25    1    1    2    0    0  0.16847257578E+03 -0.10082427376E+03  0.44090209605E+03  0.49856614534E+03  0.12500000000E+03 0.  0.
         25    1    1    2    0    0  0.22921152493E+03 -0.25312145485E+03  0.27043672215E+03  0.45317702364E+03  0.12500000000E+03 0.  0.
         25    1    1    2    0    0 -0.39768410072E+03  0.35394572861E+03 -0.69820545039E+01  0.54690398778E+03  0.12500000000E+03 0.  0.
</event>
<event>
 5    0  0.6411708E-005  0.4229632E+03  0.7546771E-02  0.1036106E+00
         21   -1    0    0  502  501  0.00000000000E+00  0.00000000000E+00  0.18040396698E+03  0.18040396698E+03  0.00000000000E+00 0.  1.
         21   -1    0    0  501  502 -0.00000000000E+00 -0.00000000000E+00 -0.99165175067E+03  0.99165175067E+03  0.00000000000E+00 0.  1.
         25    1    1    2    0    0  0.10002767101E+03  0.96101721906E+02 -0.49761457039E+03  0.53149443702E+03  0.12500000000E+03 0.  0.
         25    1    1    2    0    0  0.12966297243E+02 -0.27879220039E+03 -0.21171608340E+03  0.37194343096E+03  0.12500000000E+03 0.  0.
         25    1    1    2    0    0 -0.11299396825E+03  0.18269047849E+03 -0.10191712990E+03  0.26861784966E+03  0.12500000000E+03 0.  0.
</event>
<event>
 5    0  0.5641283E-005  0.2411656E+03  0.7546771E-02  0.1119019E+00
         21   -1    0    0  502  501  0.00000000000E+00  0.00000000000E+00  0.66867906170E+02  0.66867906170E+02  0.00000000000E+00 0.  1.
         21   -1    0    0  501  502 -0.00000000000E+00 -0.00000000000E+00 -0.86978684588E+03  0.86978684588E+03  0.00000000000E+00 0.  1.
         25    1    1    2    0    0  0.86243392388E+02 -0.99468973679E+02 -0.29836386145E+03  0.34925347997E+03  0.12500000000E+03 0.  0.
         25    1    1    2    0    0 -0.59516313897E+02  0.45727706821E+02 -0.16257114058E+03  0.21837488533E+03  0.12500000000E+03 0.  0.
         25    1    1    2    0    0 -0.26727078491E+02  0.53741266858E+02 -0.34198393768E+03  0.36902638676E+03  0.12500000000E+03 0.  0.
</event>
<event>
 5    0  0.5819835E-005  0.2933648E+03  0.7546771E-02  0.1088605E+00
         21   -1    0    0  502  501  0.00000000000E+00  0.00000000000E+00  0.19929835752E+03  0.19929835752E+03  0.00000000000E+00 0.  1.
         21   -1    0    0  501  502 -0.00000000000E+00 -0.00000000000E+00 -0.43182939377E+03  0.43182939377E+03  0.00000000000E+00 0.  1.
         25    1    1    2    0    0  0.69618150515E+02  0.15724876547E+03 -0.14441966090E+03  0.25701342295E+03  0.12500000000E+03 0.  0.
         25    1    1    2    0    0  0.51583859734E+02 -0.57287580390E+02  0.16403143505E+02  0.14777288171E+03  0.12500000000E+03 0.  0.
         25    1    1    2    0    0 -0.12120201025E+03 -0.99961185076E+02 -0.10451451885E+03  0.22634144662E+03  0.12500000000E+03 0.  0.
</event>
<event>
 5    0  0.5641283E-005  0.2960702E+03  0.7546771E-02  0.1087222E+00
         21   -1    0    0  502  501  0.00000000000E+00  0.00000000000E+00  0.31639808965E+02  0.31639808965E+02  0.00000000000E+00 0. -1.
         21   -1    0    0  501  502 -0.00000000000E+00 -0.00000000000E+00 -0.27704826197E+04  0.27704826197E+04  0.00000000000E+00 0. -1.
         25    1    1    2    0    0  0.93906205133E+02 -0.43149981333E+02 -0.14797379869E+04  0.14885999483E+04  0.12500000000E+03 0.  0.
         25    1    1    2    0    0 -0.11568550126E+03  0.13419396025E+02 -0.10718656274E+04  0.10853958442E+04  0.12500000000E+03 0.  0.
         25    1    1    2    0    0  0.21779296131E+02  0.29730585308E+02 -0.18723919644E+03  0.22812663616E+03  0.12500000000E+03 0.  0.
</event>
<event>
 5    0  0.5641283E-005  0.3959667E+03  0.7546771E-02  0.1045185E+00
         21   -1    0    0  502  501  0.00000000000E+00  0.00000000000E+00  0.88750251221E+03  0.88750251221E+03  0.00000000000E+00 0.  1.
         21   -1    0    0  501  502 -0.00000000000E+00 -0.00000000000E+00 -0.17666387700E+03  0.17666387700E+03  0.00000000000E+00 0.  1.
         25    1    1    2    0    0 -0.23890282760E+03  0.48572110557E+02  0.50652658717E+03  0.57587150865E+03  0.12500000000E+03 0.  0.
         25    1    1    2    0    0  0.10522030706E+03  0.78507991994E+02  0.19360991862E+03  0.26522559909E+03  0.12500000000E+03 0.  0.
         25    1    1    2    0    0  0.13368252054E+03 -0.12708010255E+03  0.10702129420E+02  0.22306928147E+03  0.12500000000E+03 0.  0.
</event>
<event>
 5    0  0.5641283E-005  0.3252891E+03  0.7546771E-02  0.1073241E+00
         21   -1    0    0  502  501  0.00000000000E+00  0.00000000000E+00  0.90251665891E+03  0.90251665891E+03  0.00000000000E+00 0.  1.
         21   -1    0    0  501  502 -0.00000000000E+00 -0.00000000000E+00 -0.11724214177E+03  0.11724214177E+03  0.00000000000E+00 0.  1.
         25    1    1    2    0    0 -0.13739639555E+03  0.17180536870E+03  0.44336666153E+03  0.51048393783E+03  0.12500000000E+03 0.  0.
         25    1    1    2    0    0  0.11244288357E+03 -0.69684885775E+02  0.76042539523E+02  0.19724820199E+03  0.12500000000E+03 0.  0.
         25    1    1    2    0    0  0.24953511978E+02 -0.10212048292E+03  0.26586531609E+03  0.31202666087E+03  0.12500000000E+03 0.  0.
</event>
<event>
 5    0  0.5641283E-005  0.2270217E+03  0.7546771E-02  0.1128754E+00
         21   -1    0    0  502  501  0.00000000000E+00  0.00000000000E+00  0.19644028053E+03  0.19644028053E+03  0.00000000000E+00 0. -1.
         21   -1    0    0  501  502 -0.00000000000E+00 -0.00000000000E+00 -0.26236385678E+03  0.26236385678E+03  0.00000000000E+00 0. -1.
         25    1    1    2    0    0 -0.35696435475E+02 -0.82004158547E+01  0.31819881129E+02  0.13408574555E+03  0.12500000000E+03 0.  0.
         25    1    1    2    0    0 -0.37083051649E+02 -0.63694657856E+02 -0.23713997777E+02  0.14703576385E+03  0.12500000000E+03 0.  0.
         25    1    1    2    0    0  0.72779487123E+02  0.71895073710E+02 -0.74029459601E+02  0.17768262790E+03  0.12500000000E+03 0.  0.
</event>
<event>
 5    0  0.5641283E-005  0.3327886E+03  0.7546771E-02  0.1069910E+00
         21   -1    0    0  502  501  0.00000000000E+00  0.00000000000E+00  0.12362271831E+04  0.12362271831E+04  0.00000000000E+00 0.  1.
         21   -1    0    0  501  502 -0.00000000000E+00 -0.00000000000E+00 -0.89585692487E+02  0.89585692487E+02  0.00000000000E+00 0.  1.
         25    1    1    2    0    0  0.51221884607E+02 -0.93984532950E+02  0.29241597660E+03  0.33554266087E+03  0.12500000000E+03 0.  0.
         25    1    1    2    0    0 -0.37021097473E+02 -0.16419369754E+03  0.42384276166E+03  0.47286131009E+03  0.12500000000E+03 0.  0.
         25    1    1    2    0    0 -0.14200787134E+02  0.25817823049E+03  0.43038275234E+03  0.51740890460E+03  0.12500000000E+03 0.  0.
</event>
<event>
 5    0  0.5641283E-005  0.2456946E+03  0.7546771E-02  0.1116056E+00
         21   -1    0    0  502  501  0.00000000000E+00  0.00000000000E+00  0.79683069980E+02  0.79683069980E+02  0.00000000000E+00 0.  1.
         21   -1    0    0  501  502 -0.00000000000E+00 -0.00000000000E+00 -0.75757401819E+03  0.75757401819E+03  0.00000000000E+00 0.  1.
         25    1    1    2    0    0 -0.88523792155E+02  0.31306659194E+02 -0.15351486205E+03  0.21910815037E+03  0.12500000000E+03 0.  0.
         25    1    1    2    0    0  0.26540389620E+02 -0.10625483319E+03 -0.30834839381E+03  0.35028304816E+03  0.12500000000E+03 0.  0.
         25    1    1    2    0    0  0.61983402535E+02  0.74948173997E+02 -0.21602769235E+03  0.26786588965E+03  0.12500000000E+03 0.  0.
</event>
<event>
 5    0  0.5641283E-005  0.2518875E+03  0.7546771E-02  0.1112118E+00
         21   -1    0    0  502  501  0.00000000000E+00  0.00000000000E+00  0.15325448440E+03  0.15325448440E+03  0.00000000000E+00 0. -1.
         21   -1    0    0  501  502 -0.00000000000E+00 -0.00000000000E+00 -0.41399970452E+03  0.41399970452E+03  0.00000000000E+00 0. -1.
         25    1    1    2    0    0  0.97515550467E+02  0.84331783165E+02 -0.81483246987E+02  0.19719445168E+03  0.12500000000E+03 0.  0.
         25    1    1    2    0    0 -0.11617414658E+03 -0.23763275816E+02 -0.50007133239E+02  0.17940690897E+03  0.12500000000E+03 0.  0.
         25    1    1    2    0    0  0.18658596115E+02 -0.60568507349E+02 -0.12925483989E+03  0.19065282827E+03  0.12500000000E+03 0.  0.
</event>
<event>
 5    0  0.5641283E-005  0.2592506E+03  0.7546771E-02  0.1107594E+00
         21   -1    0    0  502  501  0.00000000000E+00  0.00000000000E+00  0.25116919622E+03  0.25116919622E+03  0.00000000000E+00 0.  1.
         21   -1    0    0  501  502 -0.00000000000E+00 -0.00000000000E+00 -0.26759197947E+03  0.26759197947E+03  0.00000000000E+00 0.  1.
         25    1    1    2    0    0  0.99787583682E+02 -0.61610925363E+02 -0.21811397759E+02  0.17278369441E+03  0.12500000000E+03 0.  0.
         25    1    1    2    0    0 -0.94592403904E+02  0.12909437178E+03 -0.77830111839E+01  0.20322070506E+03  0.12500000000E+03 0.  0.
         25    1    1    2    0    0 -0.51951797779E+01 -0.67483446417E+02  0.13171625691E+02  0.14275677622E+03  0.12500000000E+03 0.  0.
</event>
<event>
 5    0  0.5641283E-005  0.2901289E+03  0.7546771E-02  0.1090282E+00
         21   -1    0    0  502  501  0.00000000000E+00  0.00000000000E+00  0.14999891498E+03  0.14999891498E+03  0.00000000000E+00 0. -1.
         21   -1    0    0  501  502 -0.00000000000E+00 -0.00000000000E+00 -0.56116914139E+03  0.56116914139E+03  0.00000000000E+00 0. -1.
         25    1    1    2    0    0  0.29515676542E+02  0.87329266438E+02 -0.34617446700E+03  0.37941973794E+03  0.12500000000E+03 0.  0.
         25    1    1    2    0    0 -0.49986701979E+02 -0.98427562413E+02 -0.10664361130E+03  0.19795078997E+03  0.12500000000E+03 0.  0.
         25    1    1    2    0    0  0.20471025437E+02  0.11098295975E+02  0.41647851892E+02  0.13379752846E+03  0.12500000000E+03 0.  0.
</event>
<event>
 5    0  0.5641283E-005  0.4539952E+03  0.7546771E-02  0.1026537E+00
         21   -1    0    0  502  501  0.00000000000E+00  0.00000000000E+00  0.30207052633E+03  0.30207052633E+03  0.00000000000E+00 0. -1.
         21   -1    0    0  501  502 -0.00000000000E+00 -0.00000000000E+00 -0.68232956933E+03  0.68232956933E+03  0.00000000000E+00 0. -1.
         25    1    1    2    0    0 -0.82782746858E+02 -0.17941381675E+03  0.14429634179E+03  0.27475213388E+03  0.12500000000E+03 0.  0.
         25    1    1    2    0    0 -0.95933166275E+02 -0.44459976635E+02 -0.20922945631E+03  0.26567240599E+03  0.12500000000E+03 0.  0.
         25    1    1    2    0    0  0.17871591313E+03  0.22387379338E+03 -0.31532592848E+03  0.44397555580E+03  0.12500000000E+03 0.  0.
</event>
<event>
 5    0  0.5641283E-005  0.2376279E+03  0.7546771E-02  0.1121383E+00
         21   -1    0    0  502  501  0.00000000000E+00  0.00000000000E+00  0.36907045151E+03  0.36907045151E+03  0.00000000000E+00 0.  1.
         21   -1    0    0  501  502 -0.00000000000E+00 -0.00000000000E+00 -0.15299793236E+03  0.15299793236E+03  0.00000000000E+00 0.  1.
         25    1    1    2    0    0  0.37162831350E+02 -0.91162739692E+01  0.12962096065E+03  0.18409447554E+03  0.12500000000E+03 0.  0.
         25    1    1    2    0    0 -0.16499771347E+01  0.82247502921E+02 -0.25128876179E+02  0.15173606881E+03  0.12500000000E+03 0.  0.
         25    1    1    2    0    0 -0.35512854216E+02 -0.73131228952E+02  0.11158043468E+03  0.18623783951E+03  0.12500000000E+03 0.  0.
</event>
<event>
 5    0  0.5641283E-005  0.2790652E+03  0.7546771E-02  0.1096201E+00
         21   -1    0    0  502  501  0.00000000000E+00  0.00000000000E+00  0.61868324468E+02  0.61868324468E+02  0.00000000000E+00 0.  1.
         21   -1    0    0  501  502 -0.00000000000E+00 -0.00000000000E+00 -0.12587606386E+04  0.12587606386E+04  0.00000000000E+00 0.  1.
         25    1    1    2    0    0  0.11789236893E+03  0.12085066971E+02 -0.27612601611E+03  0.32544621103E+03  0.12500000000E+03 0.  0.
         25    1    1    2    0    0  0.28206514230E+02  0.84269436711E+02 -0.49444734086E+03  0.51768727847E+03  0.12500000000E+03 0.  0.
         25    1    1    2    0    0 -0.14609888316E+03 -0.96354503683E+02 -0.42631895711E+03  0.47749547352E+03  0.12500000000E+03 0.  0.
</event>
<event>
 5    0  0.5641283E-005  0.2578168E+03  0.7546771E-02  0.1108462E+00
         21   -1    0    0  502  501  0.00000000000E+00  0.00000000000E+00  0.36668355232E+03  0.36668355232E+03  0.00000000000E+00 0.  1.
         21   -1    0    0  501  502 -0.00000000000E+00 -0.00000000000E+00 -0.18127209579E+03  0.18127209579E+03  0.00000000000E+00 0.  1.
         25    1    1    2    0    0  0.10792960464E+03  0.10427326649E+03  0.13479762319E+03  0.23731226871E+03  0.12500000000E+03 0.  0.
         25    1    1    2    0    0 -0.29718626521E+02 -0.47376787840E+01  0.19558253446E+02  0.13005063491E+03  0.12500000000E+03 0.  0.
         25    1    1    2    0    0 -0.78210978124E+02 -0.99535587705E+02  0.31055579894E+02  0.18059274449E+03  0.12500000000E+03 0.  0.
</event>
<event>
 5    0  0.5641283E-005  0.3082350E+03  0.7546771E-02  0.1081195E+00
         21   -1    0    0  502  501  0.00000000000E+00  0.00000000000E+00  0.15856921452E+03  0.15856921452E+03  0.00000000000E+00 0. -1.
         21   -1    0    0  501  502 -0.00000000000E+00 -0.00000000000E+00 -0.59916299536E+03  0.59916299536E+03  0.00000000000E+00 0. -1.
         25    1    1    2    0    0  0.10199609898E+03 -0.81109118735E+02 -0.17043255199E+03  0.24830253347E+03  0.12500000000E+03 0.  0.
         25    1    1    2    0    0  0.46905283668E+02 -0.97890816707E+02 -0.12861558506E+03  0.20964180488E+03  0.12500000000E+03 0.  0.
         25    1    1    2    0    0 -0.14890138265E+03  0.17899993544E+03 -0.14154564379E+03  0.29978787153E+03  0.12500000000E+03 0.  0.
</event>
<event>
 5    0  0.6616593E-005  0.4758130E+03  0.7546771E-02  0.1020292E+00
         21   -1    0    0  502  501  0.00000000000E+00  0.00000000000E+00  0.60293719345E+03  0.60293719345E+03  0.00000000000E+00 0.  1.
         21   -1    0    0  501  502 -0.00000000000E+00 -0.00000000000E+00 -0.37549189896E+03  0.37549189896E+03  0.00000000000E+00 0.  1.
         25    1    1    2    0    0  0.12339055629E+03  0.99172448125E+02 -0.19353172950E+03  0.27953521097E+03  0.12500000000E+03 0.  0.
         25    1    1    2    0    0  0.35313854516E+02  0.16269191022E+03  0.25394934019E+03  0.32837629841E+03  0.12500000000E+03 0.  0.
         25    1    1    2    0    0 -0.15870441081E+03 -0.26186435834E+03  0.16702768379E+03  0.37051758303E+03  0.12500000000E+03 0.  0.
</event>
<event>
 5    0  0.5641283E-005  0.3520598E+03  0.7546771E-02  0.1061773E+00
         21   -1    0    0  502  501  0.00000000000E+00  0.00000000000E+00  0.81873998227E+03  0.81873998227E+03  0.00000000000E+00 0.  1.
         21   -1    0    0  501  502 -0.00000000000E+00 -0.00000000000E+00 -0.15138644532E+03  0.15138644532E+03  0.00000000000E+00 0.  1.
         25    1    1    2    0    0 -0.11465206792E+03  0.10156075052E+03  0.20073207632E+03  0.28174110312E+03  0.12500000000E+03 0.  0.
         25    1    1    2    0    0  0.11386342787E+03 -0.88073779859E+02  0.51845105837E+03  0.55239331171E+03  0.12500000000E+03 0.  0.
         25    1    1    2    0    0  0.78864005046E+00 -0.13486970661E+02 -0.51829597737E+02  0.13599201275E+03  0.12500000000E+03 0.  0.
</event>
<event>
 5    0  0.5641283E-005  0.2154231E+03  0.7546771E-02  0.1137342E+00
         21   -1    0    0  502  501  0.00000000000E+00  0.00000000000E+00  0.17562154159E+03  0.17562154159E+03  0.00000000000E+00 0.  1.
         21   -1    0    0  501  502 -0.00000000000E+00 -0.00000000000E+00 -0.26424509283E+03  0.26424509283E+03  0.00000000000E+00 0.  1.
         25    1    1    2    0    0  0.10303673356E+02 -0.43256704139E+02  0.82232171336E+01  0.13292828682E+03  0.12500000000E+03 0.  0.
         25    1    1    2    0    0 -0.24225514733E+02 -0.40196887028E+02 -0.78497914427E+02  0.15488572517E+03  0.12500000000E+03 0.  0.
         25    1    1    2    0    0  0.13921841377E+02  0.83453591167E+02 -0.18348853946E+02  0.15205262243E+03  0.12500000000E+03 0.  0.
</event>
<event>
 5    0  0.5641283E-005  0.2687912E+03  0.7546771E-02  0.1101973E+00
         21   -1    0    0  502  501  0.00000000000E+00  0.00000000000E+00  0.56096579529E+02  0.56096579529E+02  0.00000000000E+00 0.  1.
         21   -1    0    0  501  502 -0.00000000000E+00 -0.00000000000E+00 -0.12879346971E+04  0.12879346971E+04  0.00000000000E+00 0.  1.
         25    1    1    2    0    0  0.39135362812E+02  0.72827952812E+02 -0.32208693551E+03  0.35524707087E+03  0.12500000000E+03 0.  0.
         25    1    1    2    0    0  0.95870336902E+02  0.25290157340E+02 -0.24738353164E+03  0.29437106733E+03  0.12500000000E+03 0.  0.
         25    1    1    2    0    0 -0.13500569971E+03 -0.98118110152E+02 -0.66236765038E+03  0.69441313839E+03  0.12500000000E+03 0.  0.
</event>
<event>
 5    0  0.5641283E-005  0.3336528E+03  0.7546771E-02  0.1069532E+00
         21   -1    0    0  502  501  0.00000000000E+00  0.00000000000E+00  0.84511961405E+03  0.84511961405E+03  0.00000000000E+00 0.  1.
         21   -1    0    0  501  502 -0.00000000000E+00 -0.00000000000E+00 -0.13172597358E+03  0.13172597358E+03  0.00000000000E+00 0.  1.
         25    1    1    2    0    0  0.20981320263E+03  0.91277367954E+02  0.30777065134E+03  0.40336201076E+03  0.12500000000E+03 0.  0.
         25    1    1    2    0    0 -0.22226353357E+03 -0.10348275564E+03  0.31396035307E+03  0.41749953577E+03  0.12500000000E+03 0.  0.
         25    1    1    2    0    0  0.12450330936E+02  0.12205387691E+02  0.91662636051E+02  0.15598404110E+03  0.12500000000E+03 0.  0.
</event>
<event>
 5    0  0.5641283E-005  0.2745374E+03  0.7546771E-02  0.1098710E+00
         21   -1    0    0  502  501  0.00000000000E+00  0.00000000000E+00  0.87877227614E+02  0.87877227614E+02  0.00000000000E+00 0. -1.
         21   -1    0    0  501  502 -0.00000000000E+00 -0.00000000000E+00 -0.85768286039E+03  0.85768286039E+03  0.00000000000E+00 0. -1.
         25    1    1    2    0    0 -0.21595933330E+02 -0.73903120884E+02 -0.61154607277E+03  0.62892102424E+03  0.12500000000E+03 0.  0.
         25    1    1    2    0    0  0.29004263554E+02  0.38172518432E+02 -0.37464545068E+02  0.13902151130E+03  0.12500000000E+03 0.  0.
         25    1    1    2    0    0 -0.74083302245E+01  0.35730602452E+02 -0.12079501494E+03  0.17761755246E+03  0.12500000000E+03 0.  0.
</event>
<event>
 5    0  0.5641283E-005  0.3691987E+03  0.7546771E-02  0.1055000E+00
         21   -1    0    0  502  501  0.00000000000E+00  0.00000000000E+00  0.39225095192E+03  0.39225095192E+03  0.00000000000E+00 0. -1.
         21   -1    0    0  501  502 -0.00000000000E+00 -0.00000000000E+00 -0.34750123028E+03  0.34750123028E+03  0.00000000000E+00 0.  1.
         25    1    1    2    0    0 -0.23614665493E+03  0.10266015167E+03  0.20940267657E+02  0.28699798637E+03  0.12500000000E+03 0.  0.
         25    1    1    2    0    0  0.24446725579E+03 -0.15562029290E+03  0.67534435415E+01  0.31567787967E+03  0.12500000000E+03 0.  0.
         25    1    1    2    0    0 -0.83206008629E+01  0.52960141233E+02  0.17056010435E+02  0.13707631615E+03  0.12500000000E+03 0.  0.
</event>
<event>
 5    0  0.5641283E-005  0.2801772E+03  0.7546771E-02  0.1095592E+00
         21   -1    0    0  502  501  0.00000000000E+00  0.00000000000E+00  0.44092776666E+02  0.44092776666E+02  0.00000000000E+00 0. -1.
         21   -1    0    0  501  502 -0.00000000000E+00 -0.00000000000E+00 -0.17803203349E+04  0.17803203349E+04  0.00000000000E+00 0. -1.
         25    1    1    2    0    0 -0.11540176028E+03 -0.13763041171E+03 -0.58215347139E+03  0.62192231086E+03  0.12500000000E+03 0.  0.
         25    1    1    2    0    0  0.11432696741E+03  0.28910127106E+02 -0.56371357798E+03  0.58932541853E+03  0.12500000000E+03 0.  0.
         25    1    1    2    0    0  0.10747928735E+01  0.10872028460E+03 -0.59036050888E+03  0.61316538219E+03  0.12500000000E+03 0.  0.
</event>
<event>
 5    0  0.5641283E-005  0.5645874E+03  0.7546771E-02  0.9981728E-01
         21   -1    0    0  502  501  0.00000000000E+00  0.00000000000E+00  0.11550548436E+04  0.11550548436E+04  0.00000000000E+00 0.  1.
         21   -1    0    0  501  502 -0.00000000000E+00 -0.00000000000E+00 -0.27596869728E+03  0.27596869728E+03  0.00000000000E+00 0.  1.
         25    1    1    2    0    0  0.24661446148E+03 -0.12487218913E+03  0.55577010149E+02  0.30842431857E+03  0.12500000000E+03 0.  0.
         25    1    1    2    0    0  0.22218555169E+02 -0.24454009781E+03  0.40910947147E+03  0.49324343206E+03  0.12500000000E+03 0.  0.
         25    1    1    2    0    0 -0.26883301665E+03  0.36941228694E+03  0.41439966466E+03  0.62935579020E+03  0.12500000000E+03 0.  0.
</event>
<event>
 5    0  0.5641283E-005  0.3090263E+03  0.7546771E-02  0.1080814E+00
         21   -1    0    0  502  501  0.00000000000E+00  0.00000000000E+00  0.21709670883E+03  0.21709670883E+03  0.00000000000E+00 0.  1.
         21   -1    0    0  501  502 -0.00000000000E+00 -0.00000000000E+00 -0.43988345758E+03  0.43988345758E+03  0.00000000000E+00 0.  1.
         25    1    1    2    0    0  0.84993806054E+02  0.33549416623E+01  0.10080547999E+03  0.18171941970E+03  0.12500000000E+03 0.  0.
         25    1    1    2    0    0 -0.87928056076E+02  0.72464015525E+02 -0.27180801056E+03  0.32013586365E+03  0.12500000000E+03 0.  0.
         25    1    1    2    0    0  0.29342500215E+01 -0.75818957188E+02 -0.51784218181E+02  0.15512488306E+03  0.12500000000E+03 0.  0.
</event>
<event>
 5    0  0.5641283E-005  0.3322056E+03  0.7546771E-02  0.1070165E+00
         21   -1    0    0  502  501  0.00000000000E+00  0.00000000000E+00  0.11026476433E+03  0.11026476433E+03  0.00000000000E+00 0. -1.
         21   -1    0    0  501  502 -0.00000000000E+00 -0.00000000000E+00 -0.10008689534E+04  0.10008689534E+04  0.00000000000E+00 0. -1.
         25    1    1    2    0    0  0.24934236096E+02  0.13227057550E+02 -0.24855428452E+02  0.13053529601E+03  0.12500000000E+03 0.  0.
         25    1    1    2    0    0  0.35821797912E+02 -0.41799687198E+01 -0.30248331105E+02  0.13356883948E+03  0.12500000000E+03 0.  0.
         25    1    1    2    0    0 -0.60756034008E+02 -0.90470888304E+01 -0.83550042955E+03  0.84702958228E+03  0.12500000000E+03 0.  0.
</event>
<event>
 5    0  0.5641283E-005  0.3820184E+03  0.7546771E-02  0.1050190E+00
         21   -1    0    0  502  501  0.00000000000E+00  0.00000000000E+00  0.14901065503E+04  0.14901065503E+04  0.00000000000E+00 0.  1.
         21   -1    0    0  501  502 -0.00000000000E+00 -0.00000000000E+00 -0.97938016905E+02  0.97938016905E+02  0.00000000000E+00 0. -1.
         25    1    1    2    0    0  0.23940610184E+03  0.16801495280E+02  0.95093663660E+03  0.98868754350E+03  0.12500000000E+03 0.  0.
         25    1    1    2    0    0 -0.39445171072E+02 -0.89552434969E+02  0.16596631635E+03  0.22966361987E+03  0.12500000000E+03 0.  0.
         25    1    1    2    0    0 -0.19996093077E+03  0.72750939689E+02  0.27526558044E+03  0.36969340383E+03  0.12500000000E+03 0.  0.
</event>
<event>
 5    0  0.5641283E-005  0.3287733E+03  0.7546771E-02  0.1071681E+00
         21   -1    0    0  502  501  0.00000000000E+00  0.00000000000E+00  0.23834984649E+04  0.23834984649E+04  0.00000000000E+00 0. -1.
         21   -1    0    0  501  502 -0.00000000000E+00 -0.00000000000E+00 -0.45350102640E+02  0.45350102640E+02  0.00000000000E+00 0. -1.
         25    1    1    2    0    0  0.31272517518E+02  0.13880630490E+03  0.80458146944E+03  0.82657213937E+03  0.12500000000E+03 0.  0.
         25    1    1    2    0    0 -0.14762740153E+03 -0.17217802369E+03  0.61378358244E+03  0.66617896063E+03  0.12500000000E+03 0.  0.
         25    1    1    2    0    0  0.11635488401E+03  0.33371718795E+02  0.91978331036E+03  0.93609746750E+03  0.12500000000E+03 0.  0.
</event>
<event>
 5    0  0.5641283E-005  0.2997755E+03  0.7546771E-02  0.1085353E+00
         21   -1    0    0  502  501  0.00000000000E+00  0.00000000000E+00  0.98206958682E+02  0.98206958682E+02  0.00000000000E+00 0. -1.
         21   -1    0    0  501  502 -0.00000000000E+00 -0.00000000000E+00 -0.91506112244E+03  0.91506112244E+03  0.00000000000E+00 0. -1.
         25    1    1    2    0    0 -0.97926822530E+01  0.83140829321E+02 -0.29769616932E+03  0.33355105060E+03  0.12500000000E+03 0.  0.
         25    1    1    2    0    0 -0.82701700649E+02 -0.15422279880E+03 -0.44321319594E+03  0.49263290594E+03  0.12500000000E+03 0.  0.
         25    1    1    2    0    0  0.92494382902E+02  0.71081969476E+02 -0.75944798495E+02  0.18708412458E+03  0.12500000000E+03 0.  0.
</event>
<event>
 5    0  0.5641283E-005  0.4544198E+03  0.7546771E-02  0.1026412E+00
         21   -1    0    0  502  501  0.00000000000E+00  0.00000000000E+00  0.37334401299E+03  0.37334401299E+03  0.00000000000E+00 0.  1.
         21   -1    0    0  501  502 -0.00000000000E+00 -0.00000000000E+00 -0.55310207785E+03  0.55310207785E+03  0.00000000000E+00 0.  1.
         25    1    1    2    0    0 -0.24090064014E+03 -0.27101044078E+03  0.65173557299E+02  0.38904031925E+03  0.12500000000E+03 0.  0.
         25    1    1    2    0    0  0.15020724229E+03  0.16706940593E+03 -0.39395485586E+02  0.26009883952E+03  0.12500000000E+03 0.  0.
         25    1    1    2    0    0  0.90693397848E+02  0.10394103484E+03 -0.20553613658E+03  0.27730693207E+03  0.12500000000E+03 0.  0.
</event>
<event>
 5    0  0.5641283E-005  0.2692297E+03  0.7546771E-02  0.1101721E+00
         21   -1    0    0  502  501  0.00000000000E+00  0.00000000000E+00  0.20297008489E+04  0.20297008489E+04  0.00000000000E+00 0. -1.
         21   -1    0    0  501  502 -0.00000000000E+00 -0.00000000000E+00 -0.35711967470E+02  0.35711967470E+02  0.00000000000E+00 0. -1.
         25    1    1    2    0    0  0.31326564215E+02  0.12457940224E+03  0.53681681880E+03  0.56594935996E+03  0.12500000000E+03 0.  0.
         25    1    1    2    0    0  0.91755186429E+02 -0.66559692699E+02  0.67811484410E+03  0.69879463987E+03  0.12500000000E+03 0.  0.
         25    1    1    2    0    0 -0.12308175064E+03 -0.58019709539E+02  0.77905721858E+03  0.80066881659E+03  0.12500000000E+03 0.  0.
</event>
<event>
 5    0  0.5641283E-005  0.2649801E+03  0.7546771E-02  0.1104187E+00
         21   -1    0    0  502  501  0.00000000000E+00  0.00000000000E+00  0.22390623075E+03  0.22390623075E+03  0.00000000000E+00 0.  1.
         21   -1    0    0  501  502 -0.00000000000E+00 -0.00000000000E+00 -0.31358872793E+03  0.31358872793E+03  0.00000000000E+00 0.  1.
         25    1    1    2    0    0 -0.34592344066E+02 -0.34124753023E+02  0.18387111116E+02  0.13536696381E+03  0.12500000000E+03 0.  0.
         25    1    1    2    0    0 -0.10756017517E+02  0.15515115489E+03 -0.16126606316E+02  0.20018151814E+03  0.12500000000E+03 0.  0.
         25    1    1    2    0    0  0.45348361583E+02 -0.12102640186E+03 -0.91943001977E+02  0.20194647672E+03  0.12500000000E+03 0.  0.
</event>
<event>
 5    0  0.5641283E-005  0.4602156E+03  0.7546771E-02  0.1024719E+00
         21   -1    0    0  502  501  0.00000000000E+00  0.00000000000E+00  0.21212569826E+04  0.21212569826E+04  0.00000000000E+00 0. -1.
         21   -1    0    0  501  502 -0.00000000000E+00 -0.00000000000E+00 -0.99845697830E+02  0.99845697830E+02  0.00000000000E+00 0. -1.
         25    1    1    2    0    0 -0.28285226529E+03 -0.24265168743E+03  0.89690799210E+03  0.97926206487E+03  0.12500000000E+03 0.  0.
         25    1    1    2    0    0  0.15671545174E+03  0.17853069148E+03  0.94105154958E+03  0.97858875917E+03  0.12500000000E+03 0.  0.
         25    1    1    2    0    0  0.12613681355E+03  0.64120995954E+02  0.18345174312E+03  0.26325185642E+03  0.12500000000E+03 0.  0.
</event>
<event>
 5    0  0.5641283E-005  0.5429279E+03  0.7546771E-02  0.1003144E+00
         21   -1    0    0  502  501  0.00000000000E+00  0.00000000000E+00  0.23095143272E+03  0.23095143272E+03  0.00000000000E+00 0.  1.
         21   -1    0    0  501  502 -0.00000000000E+00 -0.00000000000E+00 -0.12763319961E+04  0.12763319961E+04  0.00000000000E+00 0.  1.
         25    1    1    2    0    0  0.19488909706E+03  0.77545202478E+02 -0.40047096813E+03  0.46903839384E+03  0.12500000000E+03 0.  0.
         25    1    1    2    0    0 -0.41869450463E+03 -0.25072978135E+03 -0.38152496995E+03  0.63194684441E+03  0.12500000000E+03 0.  0.
         25    1    1    2    0    0  0.22380540757E+03  0.17318457887E+03 -0.26338462530E+03  0.40629819057E+03  0.12500000000E+03 0.  0.
</event>
<event>
 5    0  0.5641283E-005  0.2830814E+03  0.7546771E-02  0.1094018E+00
         21   -1    0    0  502  501  0.00000000000E+00  0.00000000000E+00  0.31938914808E+03  0.31938914808E+03  0.00000000000E+00 0. -1.
         21   -1    0    0  501  502 -0.00000000000E+00 -0.00000000000E+00 -0.25090107806E+03  0.25090107806E+03  0.00000000000E+00 0. -1.
         25    1    1    2    0    0 -0.13859056802E+03 -0.10518070234E+03 -0.19536156409E+02  0.21512086625E+03  0.12500000000E+03 0.  0.
         25    1    1    2    0    0 -0.11786078643E+02  0.14398530967E+02  0.13660712543E+02  0.12711350995E+03  0.12500000000E+03 0.  0.
         25    1    1    2    0    0  0.15037664666E+03  0.90782171374E+02  0.74363513885E+02  0.22805584995E+03  0.12500000000E+03 0.  0.
</event>
<event>
 5    0  0.5883655E-005  0.3029540E+03  0.7546771E-02  0.1083773E+00
         21   -1    0    0  502  501  0.00000000000E+00  0.00000000000E+00  0.40918452085E+03  0.40918452085E+03  0.00000000000E+00 0.  1.
         21   -1    0    0  501  502 -0.00000000000E+00 -0.00000000000E+00 -0.22430253203E+03  0.22430253203E+03  0.00000000000E+00 0.  1.
         25    1    1    2    0    0 -0.83472821997E+02 -0.12555945573E+02  0.16024720546E+03  0.22006710486E+03  0.12500000000E+03 0.  0.
         25    1    1    2    0    0  0.49910356176E+02  0.12414293512E+03  0.11883510530E+03  0.21828718296E+03  0.12500000000E+03 0.  0.
         25    1    1    2    0    0  0.33562465821E+02 -0.11158698955E+03 -0.94200321937E+02  0.19513276506E+03  0.12500000000E+03 0.  0.
</event>
<event>
 5    0  0.5641283E-005  0.2466825E+03  0.7546771E-02  0.1115420E+00
         21   -1    0    0  502  501  0.00000000000E+00  0.00000000000E+00  0.26961506585E+03  0.26961506585E+03  0.00000000000E+00 0. -1.
         21   -1    0    0  501  502 -0.00000000000E+00 -0.00000000000E+00 -0.22570041690E+03  0.22570041690E+03  0.00000000000E+00 0. -1.
         25    1    1    2    0    0 -0.54208483130E+02 -0.38193053784E+02 -0.33020817919E+02  0.14530190438E+03  0.12500000000E+03 0.  0.
         25    1    1    2    0    0 -0.22919263789E+02  0.10739489323E+03  0.86191361885E+02  0.18738438197E+03  0.12500000000E+03 0.  0.
         25    1    1    2    0    0  0.77127746920E+02 -0.69201839442E+02 -0.92558950149E+01  0.16262919639E+03  0.12500000000E+03 0.  0.
</event>
<event>
 5    0  0.5641283E-005  0.4014753E+03  0.7546771E-02  0.1043270E+00
         21   -1    0    0  502  501  0.00000000000E+00  0.00000000000E+00  0.40769367081E+03  0.40769367081E+03  0.00000000000E+00 0.  1.
         21   -1    0    0  501  502 -0.00000000000E+00 -0.00000000000E+00 -0.39535169223E+03  0.39535169223E+03  0.00000000000E+00 0.  1.
         25    1    1    2    0    0 -0.24251940050E+03  0.17116055756E+03 -0.11108796324E+03  0.34070094168E+03  0.12500000000E+03 0.  0.
         25    1    1    2    0    0  0.15593140533E+03 -0.53893035491E+02  0.16638630656E+03  0.26557195909E+03  0.12500000000E+03 0.  0.
         25    1    1    2    0    0  0.86587995164E+02 -0.11726752207E+03 -0.42956364743E+02  0.19677246228E+03  0.12500000000E+03 0.  0.
</event>
<event>
 5    0  0.5641283E-005  0.3220101E+03  0.7546771E-02  0.1074728E+00
         21   -1    0    0  502  501  0.00000000000E+00  0.00000000000E+00  0.15078145310E+03  0.15078145310E+03  0.00000000000E+00 0.  1.
         21   -1    0    0  501  502 -0.00000000000E+00 -0.00000000000E+00 -0.68768734498E+03  0.68768734498E+03  0.00000000000E+00 0.  1.
         25    1    1    2    0    0 -0.27508782909E+02  0.65263407093E+02 -0.20246259048E+02  0.14508947739E+03  0.12500000000E+03 0.  0.
         25    1    1    2    0    0  0.16923580533E+03 -0.14524913720E+03 -0.31469113635E+03  0.40545478288E+03  0.12500000000E+03 0.  0.
         25    1    1    2    0    0 -0.14172702242E+03  0.79985730111E+02 -0.20196849648E+03  0.28792453781E+03  0.12500000000E+03 0.  0.
</event>
<event>
 5    0  0.5641283E-005  0.2825709E+03  0.7546771E-02  0.1094293E+00
         21   -1    0    0  502  501  0.00000000000E+00  0.00000000000E+00  0.48571014997E+02  0.48571014997E+02  0.00000000000E+00 0.  1.
         21   -1    0    0  501  502 -0.00000000000E+00 -0.00000000000E+00 -0.16439082961E+04  0.16439082961E+04  0.00000000000E+00 0.  1.
         25    1    1    2    0    0  0.73141878277E+02 -0.11830022641E+03 -0.42760650309E+03  0.46670868795E+03  0.12500000000E+03 0.  0.
         25    1    1    2    0    0  0.53958711248E+02  0.12866177866E+03 -0.71404122011E+03  0.73820407735E+03  0.12500000000E+03 0.  0.
         25    1    1    2    0    0 -0.12710058953E+03 -0.10361552251E+02 -0.45368955791E+03  0.48756654580E+03  0.12500000000E+03 0.  0.
</event>
<event>
 5    0  0.5641283E-005  0.2365718E+03  0.7546771E-02  0.1122098E+00
         21   -1    0    0  502  501  0.00000000000E+00  0.00000000000E+00  0.81984018832E+03  0.81984018832E+03  0.00000000000E+00 0. -1.
         21   -1    0    0  501  502 -0.00000000000E+00 -0.00000000000E+00 -0.68264773686E+02  0.68264773686E+02  0.00000000000E+00 0. -1.
         25    1    1    2    0    0 -0.39379477199E+02 -0.68911871081E+00  0.34415431293E+03  0.36826404823E+03  0.12500000000E+03 0.  0.
         25    1    1    2    0    0 -0.61242414613E+02 -0.50610175329E+02  0.14017501138E+03  0.20392659711E+03  0.12500000000E+03 0.  0.
         25    1    1    2    0    0  0.10062189181E+03  0.51299294040E+02  0.26724609033E+03  0.31591431667E+03  0.12500000000E+03 0.  0.
</event>
<event>
 5    0  0.5641283E-005  0.2368520E+03  0.7546771E-02  0.1121908E+00
         21   -1    0    0  502  501  0.00000000000E+00  0.00000000000E+00  0.40479750297E+03  0.40479750297E+03  0.00000000000E+00 0. -1.
         21   -1    0    0  501  502 -0.00000000000E+00 -0.00000000000E+00 -0.13858507575E+03  0.13858507575E+03  0.00000000000E+00 0. -1.
         25    1    1    2    0    0 -0.11912182105E+03  0.52522567885E+02  0.11491580407E+03  0.21396090861E+03  0.12500000000E+03 0.  0.
         25    1    1    2    0    0  0.80289377523E+02  0.72189625513E+01  0.76485571131E+02  0.16725292271E+03  0.12500000000E+03 0.  0.
         25    1    1    2    0    0  0.38832443531E+02 -0.59741530436E+02  0.74811052012E+02  0.16216874740E+03  0.12500000000E+03 0.  0.
</event>
<event>
 5    0  0.5641283E-005  0.2042975E+03  0.7546771E-02  0.1146163E+00
         21   -1    0    0  502  501  0.00000000000E+00  0.00000000000E+00  0.58703607947E+02  0.58703607947E+02  0.00000000000E+00 0. -1.
         21   -1    0    0  501  502 -0.00000000000E+00 -0.00000000000E+00 -0.71098653707E+03  0.71098653707E+03  0.00000000000E+00 0. -1.
         25    1    1    2    0    0 -0.52550124453E+01  0.13988670884E+02 -0.18788954260E+03  0.22616537818E+03  0.12500000000E+03 0.  0.
         25    1    1    2    0    0 -0.20792656041E+02  0.36236627227E+02 -0.14522764968E+03  0.19611603180E+03  0.12500000000E+03 0.  0.
         25    1    1    2    0    0  0.26047668487E+02 -0.50225298112E+02 -0.31916573684E+03  0.34740873503E+03  0.12500000000E+03 0.  0.
</event>
<event>
 5    0  0.5641283E-005  0.3862104E+03  0.7546771E-02  0.1048662E+00
         21   -1    0    0  502  501  0.00000000000E+00  0.00000000000E+00  0.44111335801E+03  0.44111335801E+03  0.00000000000E+00 0. -1.
         21   -1    0    0  501  502 -0.00000000000E+00 -0.00000000000E+00 -0.33814088660E+03  0.33814088660E+03  0.00000000000E+00 0. -1.
         25    1    1    2    0    0  0.73035721198E+01 -0.46614425219E+01  0.68122542970E+01  0.12548497129E+03  0.12500000000E+03 0.  0.
         25    1    1    2    0    0 -0.26144090855E+03 -0.83374637341E+02  0.17266564538E+03  0.34747820638E+03  0.12500000000E+03 0.  0.
         25    1    1    2    0    0  0.25413733643E+03  0.88036079863E+02 -0.76505428262E+02  0.30629106693E+03  0.12500000000E+03 0.  0.
</event>
<event>
 5    0  0.5641283E-005  0.3340038E+03  0.7546771E-02  0.1069379E+00
         21   -1    0    0  502  501  0.00000000000E+00  0.00000000000E+00  0.79853910098E+03  0.79853910098E+03  0.00000000000E+00 0.  1.
         21   -1    0    0  501  502 -0.00000000000E+00 -0.00000000000E+00 -0.13970325990E+03  0.13970325990E+03  0.00000000000E+00 0.  1.
         25    1    1    2    0    0  0.21291018822E+03  0.89365542962E+02  0.23859681518E+03  0.35478217082E+03  0.12500000000E+03 0.  0.
         25    1    1    2    0    0 -0.12762840572E+03  0.16862411293E+02  0.80492711853E+02  0.19666577618E+03  0.12500000000E+03 0.  0.
         25    1    1    2    0    0 -0.85281782501E+02 -0.10622795425E+03  0.33974631406E+03  0.38679441388E+03  0.12500000000E+03 0.  0.
</event>
<event>
 5    0  0.5641283E-005  0.2002223E+03  0.7546771E-02  0.1149552E+00
         21   -1    0    0  502  501  0.00000000000E+00  0.00000000000E+00  0.37810909189E+03  0.37810909189E+03  0.00000000000E+00 0. -1.
         21   -1    0    0  501  502 -0.00000000000E+00 -0.00000000000E+00 -0.10602489092E+03  0.10602489092E+03  0.00000000000E+00 0. -1.
         25    1    1    2    0    0 -0.13099295758E+02  0.42686936262E+02  0.63055636709E+02  0.14695162264E+03  0.12500000000E+03 0.  0.
         25    1    1    2    0    0 -0.20082734445E+02 -0.47266960286E+02  0.10905690818E+03  0.17365451615E+03  0.12500000000E+03 0.  0.
         25    1    1    2    0    0  0.33182030203E+02  0.45800240233E+01  0.99971656085E+02  0.16352784402E+03  0.12500000000E+03 0.  0.
</event>
<event>
 5    0  0.5641283E-005  0.3657101E+03  0.7546771E-02  0.1056346E+00
         21   -1    0    0  502  501  0.00000000000E+00  0.00000000000E+00  0.12101441744E+03  0.12101441744E+03  0.00000000000E+00 0. -1.
         21   -1    0    0  501  502 -0.00000000000E+00 -0.00000000000E+00 -0.11051893205E+04  0.11051893205E+04  0.00000000000E+00 0. -1.
         25    1    1    2    0    0  0.10665408387E+03 -0.19563550737E+03 -0.23869518591E+03  0.34964086879E+03  0.12500000000E+03 0.  0.
         25    1    1    2    0    0  0.36924566655E+02 -0.23906642324E+02 -0.41919627095E+03  0.43964242829E+03  0.12500000000E+03 0.  0.
         25    1    1    2    0    0 -0.14357865052E+03  0.21954214970E+03 -0.32628344617E+03  0.43692044084E+03  0.12500000000E+03 0.  0.
</event>
<event>
 5    0  0.5641283E-005  0.2188199E+03  0.7546771E-02  0.1134766E+00
         21   -1    0    0  502  501  0.00000000000E+00  0.00000000000E+00  0.10675487904E+03  0.10675487904E+03  0.00000000000E+00 0.  1.
         21   -1    0    0  501  502 -0.00000000000E+00 -0.00000000000E+00 -0.44852428802E+03  0.44852428802E+03  0.00000000000E+00 0.  1.
         25    1    1    2    0    0  0.39968627843E+02  0.46982900953E+02 -0.20983380266E+03  0.25191289949E+03  0.12500000000E+03 0.  0.
         25    1    1    2    0    0 -0.57690352208E+01 -0.34117341056E+02 -0.19192300822E+02  0.13111300141E+03  0.12500000000E+03 0.  0.
         25    1    1    2    0    0 -0.34199592622E+02 -0.12865559897E+02 -0.11274330550E+03  0.17225326616E+03  0.12500000000E+03 0.  0.
</event>
<event>
 5    0  0.5641283E-005  0.3438717E+03  0.7546771E-02  0.1065159E+00
         21   -1    0    0  502  501  0.00000000000E+00  0.00000000000E+00  0.77854082349E+02  0.77854082349E+02  0.00000000000E+00 0. -1.
         21   -1    0    0  501  502 -0.00000000000E+00 -0.00000000000E+00 -0.15188377270E+04  0.15188377270E+04  0.00000000000E+00 0. -1.
         25    1    1    2    0    0  0.41841890760E+02 -0.21182784351E+03 -0.28124524137E+03  0.37595965861E+03  0.12500000000E+03 0.  0.
         25    1    1    2    0    0  0.47318219630E+02  0.11609969055E+03 -0.78342073714E+03  0.80317569898E+03  0.12500000000E+03 0.  0.
         25    1    1    2    0    0 -0.89160110390E+02  0.95728152964E+02 -0.37631766615E+03  0.41755645177E+03  0.12500000000E+03 0.  0.
</event>
<event>
 5    0  0.5641283E-005  0.4938697E+03  0.7546771E-02  0.1015392E+00
         21   -1    0    0  502  501  0.00000000000E+00  0.00000000000E+00  0.20320897484E+04  0.20320897484E+04  0.00000000000E+00 0. -1.
         21   -1    0    0  501  502 -0.00000000000E+00 -0.00000000000E+00 -0.12002781422E+03  0.12002781422E+03  0.00000000000E+00 0. -1.
         25    1    1    2    0    0 -0.10229570520E+03 -0.55178230332E+02  0.12692065093E+04  0.12806323483E+04  0.12500000000E+03 0.  0.
         25    1    1    2    0    0 -0.20955349587E+03  0.47126797089E+02  0.32299311429E+03  0.40753301034E+03  0.12500000000E+03 0.  0.
         25    1    1    2    0    0  0.31184920108E+03  0.80514332433E+01  0.31986231061E+03  0.46395220393E+03  0.12500000000E+03 0.  0.
</event>
<event>
 5    0  0.5641283E-005  0.4863780E+03  0.7546771E-02  0.1017397E+00
         21   -1    0    0  502  501  0.00000000000E+00  0.00000000000E+00  0.11751711265E+04  0.11751711265E+04  0.00000000000E+00 0. -1.
         21   -1    0    0  501  502 -0.00000000000E+00 -0.00000000000E+00 -0.20130137085E+03  0.20130137085E+03  0.00000000000E+00 0. -1.
         25    1    1    2    0    0  0.12146418565E+03 -0.25821240385E+02  0.23343097616E+02  0.17773627952E+03  0.12500000000E+03 0.  0.
         25    1    1    2    0    0  0.13461354364E+03 -0.34623399045E+02 -0.17574823667E+02  0.18775904857E+03  0.12500000000E+03 0.  0.
         25    1    1    2    0    0 -0.25607772929E+03  0.60444639429E+02  0.96810148167E+03  0.10109771692E+04  0.12500000000E+03 0.  0.
</event>
<event>
 5    0  0.5641283E-005  0.3423570E+03  0.7546771E-02  0.1065796E+00
         21   -1    0    0  502  501  0.00000000000E+00  0.00000000000E+00  0.13662410144E+04  0.13662410144E+04  0.00000000000E+00 0. -1.
         21   -1    0    0  501  502 -0.00000000000E+00 -0.00000000000E+00 -0.85788915330E+02  0.85788915330E+02  0.00000000000E+00 0. -1.
         25    1    1    2    0    0  0.16530064398E+03  0.10696778683E+03  0.48616788715E+03  0.53921296796E+03  0.12500000000E+03 0.  0.
         25    1    1    2    0    0 -0.13851205155E+03  0.78009844788E+01  0.13217628695E+03  0.22878377262E+03  0.12500000000E+03 0.  0.
         25    1    1    2    0    0 -0.26788592434E+02 -0.11476877131E+03  0.66210792500E+03  0.68403318918E+03  0.12500000000E+03 0.  0.
</event>
<event>
 5    0  0.5827744E-005  0.2514095E+03  0.7546771E-02  0.1112417E+00
         21   -1    0    0  502  501  0.00000000000E+00  0.00000000000E+00  0.10182164421E+03  0.10182164421E+03  0.00000000000E+00 0.  1.
         21   -1    0    0  501  502 -0.00000000000E+00 -0.00000000000E+00 -0.62075926728E+03  0.62075926728E+03  0.00000000000E+00 0.  1.
         25    1    1    2    0    0  0.31428278368E+02 -0.87639390923E+02 -0.13732174345E+03  0.20772737120E+03  0.12500000000E+03 0.  0.
         25    1    1    2    0    0 -0.86696836135E+02  0.11908299617E+03 -0.28593007287E+03  0.34507695945E+03  0.12500000000E+03 0.  0.
         25    1    1    2    0    0  0.55268557767E+02 -0.31443605249E+02 -0.95685806748E+02  0.16977658084E+03  0.12500000000E+03 0.  0.
</event>
<event>
 5    0  0.5641283E-005  0.2764967E+03  0.7546771E-02  0.1097618E+00
         21   -1    0    0  502  501  0.00000000000E+00  0.00000000000E+00  0.25604373672E+03  0.25604373672E+03  0.00000000000E+00 0. -1.
         21   -1    0    0  501  502 -0.00000000000E+00 -0.00000000000E+00 -0.29858336946E+03  0.29858336946E+03  0.00000000000E+00 0. -1.
         25    1    1    2    0    0 -0.78993703922E+02 -0.66190839282E+02 -0.54938525383E+01  0.16210001505E+03  0.12500000000E+03 0.  0.
         25    1    1    2    0    0  0.18310481535E+03  0.38318521704E+02 -0.94598496258E+01  0.22518918994E+03  0.12500000000E+03 0.  0.
         25    1    1    2    0    0 -0.10411111143E+03  0.27872317578E+02 -0.27585930577E+02  0.16733790119E+03  0.12500000000E+03 0.  0.
</event>
<event>
 5    0  0.5641283E-005  0.5129095E+03  0.7546771E-02  0.1010463E+00
         21   -1    0    0  502  501  0.00000000000E+00  0.00000000000E+00  0.16128835619E+04  0.16128835619E+04  0.00000000000E+00 0. -1.
         21   -1    0    0  501  502 -0.00000000000E+00 -0.00000000000E+00 -0.16310919747E+03  0.16310919747E+03  0.00000000000E+00 0. -1.
         25    1    1    2    0    0 -0.11997035475E+03 -0.41523056763E+03  0.90248838077E+03  0.10084243094E+04  0.12500000000E+03 0.  0.
         25    1    1    2    0    0  0.50924140989E+01  0.29749754256E+03  0.26403568220E+03  0.41697789148E+03  0.12500000000E+03 0.  0.
         25    1    1    2    0    0  0.11487794065E+03  0.11773302507E+03  0.28325030148E+03  0.35059055852E+03  0.12500000000E+03 0.  0.
</event>
<event>
 5    0  0.5641283E-005  0.3208126E+03  0.7546771E-02  0.1075276E+00
         21   -1    0    0  502  501  0.00000000000E+00  0.00000000000E+00  0.25458412312E+03  0.25458412312E+03  0.00000000000E+00 0. -1.
         21   -1    0    0  501  502 -0.00000000000E+00 -0.00000000000E+00 -0.40427010446E+03  0.40427010446E+03  0.00000000000E+00 0. -1.
         25    1    1    2    0    0  0.11060696662E+03 -0.87267134789E+01 -0.14280876050E+03  0.21983948387E+03  0.12500000000E+03 0.  0.
         25    1    1    2    0    0 -0.11735297141E+03  0.16544878752E+03 -0.87680629608E+01  0.23842587972E+03  0.12500000000E+03 0.  0.
         25    1    1    2    0    0  0.67460047908E+01 -0.15672207404E+03  0.18908421170E+01  0.20058886399E+03  0.12500000000E+03 0.  0.
</event>
<event>
 5    0  0.1303134E-004  0.8187799E+03  0.7546771E-02  0.9533225E-01
         21   -1    0    0  502  501  0.00000000000E+00  0.00000000000E+00  0.71998144094E+03  0.71998144094E+03  0.00000000000E+00 0. -1.
         21   -1    0    0  501  502 -0.00000000000E+00 -0.00000000000E+00 -0.93113589459E+03  0.93113589459E+03  0.00000000000E+00 0. -1.
         25    1    1    2    0    0  0.41833767689E+03  0.35617922700E+03  0.29603832044E+03  0.63650117110E+03  0.12500000000E+03 0.  0.
         25    1    1    2    0    0 -0.19841305049E+03 -0.26865227391E+03 -0.62702509379E+03  0.72133712723E+03  0.12500000000E+03 0.  0.
         25    1    1    2    0    0 -0.21992462639E+03 -0.87526953086E+02  0.11983231970E+03  0.29327903719E+03  0.12500000000E+03 0.  0.
</event>
<event>
 5    0  0.5641283E-005  0.3510579E+03  0.7546771E-02  0.1062182E+00
         21   -1    0    0  502  501  0.00000000000E+00  0.00000000000E+00  0.10900783903E+04  0.10900783903E+04  0.00000000000E+00 0.  1.
         21   -1    0    0  501  502 -0.00000000000E+00 -0.00000000000E+00 -0.11305757898E+03  0.11305757898E+03  0.00000000000E+00 0.  1.
         25    1    1    2    0    0  0.78863005535E+02 -0.16784900367E+03  0.28892167870E+03  0.36536748364E+03  0.12500000000E+03 0.  0.
         25    1    1    2    0    0 -0.64191680982E+02 -0.99458507194E+02  0.34066522929E+03  0.38169407254E+03  0.12500000000E+03 0.  0.
         25    1    1    2    0    0 -0.14671324553E+02  0.26730751086E+03  0.34743390336E+03  0.45607441315E+03  0.12500000000E+03 0.  0.
</event>
<event>
 5    0  0.5641283E-005  0.2598014E+03  0.7546771E-02  0.1107263E+00
         21   -1    0    0  502  501  0.00000000000E+00  0.00000000000E+00  0.22670130305E+03  0.22670130305E+03  0.00000000000E+00 0. -1.
         21   -1    0    0  501  502 -0.00000000000E+00 -0.00000000000E+00 -0.29773439575E+03  0.29773439575E+03  0.00000000000E+00 0. -1.
         25    1    1    2    0    0  0.79754593980E+01  0.34883262545E+02 -0.12663875220E+03  0.18150157993E+03  0.12500000000E+03 0.  0.
         25    1    1    2    0    0  0.84623955759E+02  0.51812177361E+02  0.37381770908E+02  0.16391495480E+03  0.12500000000E+03 0.  0.
         25    1    1    2    0    0 -0.92599415157E+02 -0.86695439907E+02  0.18223888588E+02  0.17901916407E+03  0.12500000000E+03 0.  0.
</event>
<event>
 5    0  0.5641283E-005  0.2209833E+03  0.7546771E-02  0.1133152E+00
         21   -1    0    0  502  501  0.00000000000E+00  0.00000000000E+00  0.18943524615E+03  0.18943524615E+03  0.00000000000E+00 0.  1.
         21   -1    0    0  501  502 -0.00000000000E+00 -0.00000000000E+00 -0.25778526611E+03  0.25778526611E+03  0.00000000000E+00 0.  1.
         25    1    1    2    0    0 -0.82366980909E+01 -0.81674585550E+02 -0.29336096617E+02  0.15239484140E+03  0.12500000000E+03 0.  0.
         25    1    1    2    0    0  0.37640749091E+02  0.74796228167E+02  0.22754077043E+02  0.15216454831E+03  0.12500000000E+03 0.  0.
         25    1    1    2    0    0 -0.29404051000E+02  0.68783573824E+01 -0.61768000382E+02  0.14266112255E+03  0.12500000000E+03 0.  0.
</event>
<event>
 5    0  0.7784226E-005  0.3339682E+03  0.7546771E-02  0.1069394E+00
         21   -1    0    0  502  501  0.00000000000E+00  0.00000000000E+00  0.43768973897E+03  0.43768973897E+03  0.00000000000E+00 0. -1.
         21   -1    0    0  501  502 -0.00000000000E+00 -0.00000000000E+00 -0.25482613568E+03  0.25482613568E+03  0.00000000000E+00 0. -1.
         25    1    1    2    0    0  0.15238203939E+03  0.12640110064E+03  0.12573374260E+03  0.26576587102E+03  0.12500000000E+03 0.  0.
         25    1    1    2    0    0 -0.11342993785E+03 -0.64333919992E+02  0.16614319820E+03  0.24542568401E+03  0.12500000000E+03 0.  0.
         25    1    1    2    0    0 -0.38952101540E+02 -0.62067180648E+02 -0.10901333751E+03  0.18132431961E+03  0.12500000000E+03 0.  0.
</event>
<event>
 5    0  0.5641283E-005  0.2758250E+03  0.7546771E-02  0.1097991E+00
         21   -1    0    0  502  501  0.00000000000E+00  0.00000000000E+00  0.14157337775E+04  0.14157337775E+04  0.00000000000E+00 0. -1.
         21   -1    0    0  501  502 -0.00000000000E+00 -0.00000000000E+00 -0.53738527082E+02  0.53738527082E+02  0.00000000000E+00 0. -1.
         25    1    1    2    0    0  0.32712921914E+02 -0.65826551287E+02  0.12732356554E+03  0.19297554367E+03  0.12500000000E+03 0.  0.
         25    1    1    2    0    0 -0.53384220157E+02  0.39922737890E+02  0.28717537566E+03  0.32021617128E+03  0.12500000000E+03 0.  0.
         25    1    1    2    0    0  0.20671298244E+02  0.25903813397E+02  0.94749630920E+03  0.95628058961E+03  0.12500000000E+03 0.  0.
</event>
<event>
 5    0  0.5641283E-005  0.3267611E+03  0.7546771E-02  0.1072579E+00
         21   -1    0    0  502  501  0.00000000000E+00  0.00000000000E+00  0.11261529365E+04  0.11261529365E+04  0.00000000000E+00 0. -1.
         21   -1    0    0  501  502 -0.00000000000E+00 -0.00000000000E+00 -0.94812020953E+02  0.94812020953E+02  0.00000000000E+00 0. -1.
         25    1    1    2    0    0 -0.50635959680E+02  0.19735129179E+03  0.24853731599E+03  0.34482942192E+03  0.12500000000E+03 0.  0.
         25    1    1    2    0    0 -0.77483618000E+02 -0.74468640572E+02  0.23662247992E+03  0.28838253673E+03  0.12500000000E+03 0.  0.
         25    1    1    2    0    0  0.12811957768E+03 -0.12288265122E+03  0.54618111965E+03  0.58775299881E+03  0.12500000000E+03 0.  0.
</event>
<event>
 5    0  0.6133180E-005  0.2945227E+03  0.7546771E-02  0.1088011E+00
         21   -1    0    0  502  501  0.00000000000E+00  0.00000000000E+00  0.18174516725E+04  0.18174516725E+04  0.00000000000E+00 0.  1.
         21   -1    0    0  501  502 -0.00000000000E+00 -0.00000000000E+00 -0.47728149020E+02  0.47728149020E+02  0.00000000000E+00 0.  1.
         25    1    1    2    0    0  0.56961019246E+02  0.60431922055E+02  0.10334591117E+04  0.10442984776E+04  0.12500000000E+03 0.  0.
         25    1    1    2    0    0  0.66020969917E+02  0.54114601390E+02  0.26535707410E+03  0.30549392027E+03  0.12500000000E+03 0.  0.
         25    1    1    2    0    0 -0.12298198916E+03 -0.11454652344E+03  0.47090733770E+03  0.51538742359E+03  0.12500000000E+03 0.  0.
</event>
<event>
 5    0  0.5641283E-005  0.2806134E+03  0.7546771E-02  0.1095354E+00
         21   -1    0    0  502  501  0.00000000000E+00  0.00000000000E+00  0.32201085040E+03  0.32201085040E+03  0.00000000000E+00 0.  1.
         21   -1    0    0  501  502 -0.00000000000E+00 -0.00000000000E+00 -0.24453800074E+03  0.24453800074E+03  0.00000000000E+00 0.  1.
         25    1    1    2    0    0  0.93467328212E+02 -0.16674418199E+02 -0.83639271213E+02  0.17786147799E+03  0.12500000000E+03 0.  0.
         25    1    1    2    0    0  0.19722247262E+02 -0.43628402386E+02  0.16128708079E+03  0.20959705857E+03  0.12500000000E+03 0.  0.
         25    1    1    2    0    0 -0.11318957547E+03  0.60302820585E+02 -0.17495991749E+00  0.17909031458E+03  0.12500000000E+03 0.  0.
</event>
<event>
 5    0  0.5641283E-005  0.4241100E+03  0.7546771E-02  0.1035737E+00
         21   -1    0    0  502  501  0.00000000000E+00  0.00000000000E+00  0.38613040158E+03  0.38613040158E+03  0.00000000000E+00 0.  1.
         21   -1    0    0  501  502 -0.00000000000E+00 -0.00000000000E+00 -0.46582516078E+03  0.46582516078E+03  0.00000000000E+00 0.  1.
         25    1    1    2    0    0  0.20346552929E+03  0.25675714450E+03  0.24975278004E+02  0.35152697958E+03  0.12500000000E+03 0.  0.
         25    1    1    2    0    0 -0.21987840285E+03 -0.92800535614E+02 -0.17657144857E+01  0.26941894737E+03  0.12500000000E+03 0.  0.
         25    1    1    2    0    0  0.16412873563E+02 -0.16395660889E+03 -0.10290432272E+03  0.23100963541E+03  0.12500000000E+03 0.  0.
</event>
<event>
 5    0  0.5641283E-005  0.2680475E+03  0.7546771E-02  0.1102402E+00
         21   -1    0    0  502  501  0.00000000000E+00  0.00000000000E+00  0.28546744360E+03  0.28546744360E+03  0.00000000000E+00 0. -1.
         21   -1    0    0  501  502 -0.00000000000E+00 -0.00000000000E+00 -0.25169048915E+03  0.25169048915E+03  0.00000000000E+00 0. -1.
         25    1    1    2    0    0  0.16883442987E+03  0.48501055030E+02  0.45174399259E+02  0.22027969357E+03  0.12500000000E+03 0.  0.
         25    1    1    2    0    0 -0.52101502129E+02 -0.46314758746E+02  0.14606675486E+02  0.14386791988E+03  0.12500000000E+03 0.  0.
         25    1    1    2    0    0 -0.11673292775E+03 -0.21862962838E+01 -0.26004120296E+02  0.17301031930E+03  0.12500000000E+03 0.  0.
</event>
<event>
 5    0  0.5641283E-005  0.2679450E+03  0.7546771E-02  0.1102462E+00
         21   -1    0    0  502  501  0.00000000000E+00  0.00000000000E+00  0.14911739447E+04  0.14911739447E+04  0.00000000000E+00 0.  1.
         21   -1    0    0  501  502 -0.00000000000E+00 -0.00000000000E+00 -0.48146323290E+02  0.48146323290E+02  0.00000000000E+00 0.  1.
         25    1    1    2    0    0 -0.26776658907E+02 -0.31729949046E+02  0.15061012606E+03  0.20008045682E+03  0.12500000000E+03 0.  0.
         25    1    1    2    0    0  0.13404056344E+03  0.66741163286E+00  0.65693737656E+03  0.68202568486E+03  0.12500000000E+03 0.  0.
         25    1    1    2    0    0 -0.10726390454E+03  0.31062537413E+02  0.63548011878E+03  0.65721412631E+03  0.12500000000E+03 0.  0.
</event>
<event>
 5    0  0.5641283E-005  0.2826844E+03  0.7546771E-02  0.1094232E+00
         21   -1    0    0  502  501  0.00000000000E+00  0.00000000000E+00  0.34504128151E+03  0.34504128151E+03  0.00000000000E+00 0.  1.
         21   -1    0    0  501  502 -0.00000000000E+00 -0.00000000000E+00 -0.23159685953E+03  0.23159685953E+03  0.00000000000E+00 0.  1.
         25    1    1    2    0    0  0.83389322057E+02 -0.12929554967E+03  0.11891521849E+03  0.23116432983E+03  0.12500000000E+03 0.  0.
         25    1    1    2    0    0 -0.22486770673E+01  0.96131474743E+02  0.73038573323E+02  0.17379859084E+03  0.12500000000E+03 0.  0.
         25    1    1    2    0    0 -0.81140644990E+02  0.33164074925E+02 -0.78509369834E+02  0.17167522036E+03  0.12500000000E+03 0.  0.
</event>
<event>
 5    0  0.5641283E-005  0.3969144E+03  0.7546771E-02  0.1044853E+00
         21   -1    0    0  502  501  0.00000000000E+00  0.00000000000E+00  0.12943008596E+03  0.12943008596E+03  0.00000000000E+00 0.  1.
         21   -1    0    0  501  502 -0.00000000000E+00 -0.00000000000E+00 -0.12171902047E+04  0.12171902047E+04  0.00000000000E+00 0.  1.
         25    1    1    2    0    0  0.11589787768E+03 -0.23965068135E+03 -0.38789827969E+03  0.48678007612E+03  0.12500000000E+03 0.  0.
         25    1    1    2    0    0  0.20969169299E+01 -0.36580541400E+02 -0.63017269673E+02  0.14470214009E+03  0.12500000000E+03 0.  0.
         25    1    1    2    0    0 -0.11799479461E+03  0.27623122275E+03 -0.63684456936E+03  0.71513807443E+03  0.12500000000E+03 0.  0.
</event>
<event>
 5    0  0.5641283E-005  0.3221081E+03  0.7546771E-02  0.1074683E+00
         21   -1    0    0  502  501  0.00000000000E+00  0.00000000000E+00  0.15062630883E+03  0.15062630883E+03  0.00000000000E+00 0.  1.
         21   -1    0    0  501  502 -0.00000000000E+00 -0.00000000000E+00 -0.68881491235E+03  0.68881491235E+03  0.00000000000E+00 0.  1.
         25    1    1    2    0    0 -0.17244945216E+03 -0.13544213202E+03 -0.20279395425E+03  0.32378043881E+03  0.12500000000E+03 0.  0.
         25    1    1    2    0    0  0.10977347366E+02  0.13896271935E+03 -0.15180134069E+03  0.24103897311E+03  0.12500000000E+03 0.  0.
         25    1    1    2    0    0  0.16147210480E+03 -0.35205873303E+01 -0.18359330859E+03  0.27462180926E+03  0.12500000000E+03 0.  0.
</event>
<event>
 5    0  0.5641283E-005  0.3428904E+03  0.7546771E-02  0.1065572E+00
         21   -1    0    0  502  501  0.00000000000E+00  0.00000000000E+00  0.80246768535E+03  0.80246768535E+03  0.00000000000E+00 0.  1.
         21   -1    0    0  501  502 -0.00000000000E+00 -0.00000000000E+00 -0.14651536279E+03  0.14651536279E+03  0.00000000000E+00 0.  1.
         25    1    1    2    0    0  0.16639335228E+02 -0.17642868187E+03  0.21759990781E+03  0.30721111168E+03  0.12500000000E+03 0.  0.
         25    1    1    2    0    0 -0.14487252888E+03 -0.23689006116E+02  0.24033430148E+03  0.30811490568E+03  0.12500000000E+03 0.  0.
         25    1    1    2    0    0  0.12823319365E+03  0.20011768799E+03  0.19801811327E+03  0.33365703077E+03  0.12500000000E+03 0.  0.
</event>
<event>
 5    0  0.5641283E-005  0.2665423E+03  0.7546771E-02  0.1103275E+00
         21   -1    0    0  502  501  0.00000000000E+00  0.00000000000E+00  0.46809046185E+03  0.46809046185E+03  0.00000000000E+00 0.  1.
         21   -1    0    0  501  502 -0.00000000000E+00 -0.00000000000E+00 -0.15177577629E+03  0.15177577629E+03  0.00000000000E+00 0.  1.
         25    1    1    2    0    0 -0.11372410883E+03 -0.46035848846E+02  0.79242522175E+02  0.19224164385E+03  0.12500000000E+03 0.  0.
         25    1    1    2    0    0  0.16193808694E+03  0.42823970898E+02  0.19831689075E+03  0.28811877003E+03  0.12500000000E+03 0.  0.
         25    1    1    2    0    0 -0.48213978115E+02  0.32118779478E+01  0.38755272640E+02  0.13950582426E+03  0.12500000000E+03 0.  0.
</event>
<event>
 5    0  0.5641283E-005  0.2894474E+03  0.7546771E-02  0.1090638E+00
         21   -1    0    0  502  501  0.00000000000E+00  0.00000000000E+00  0.43901221207E+02  0.43901221207E+02  0.00000000000E+00 0.  1.
         21   -1    0    0  501  502 -0.00000000000E+00 -0.00000000000E+00 -0.19083704809E+04  0.19083704809E+04  0.00000000000E+00 0.  1.
         25    1    1    2    0    0  0.23092415502E+02  0.11973139298E+01 -0.85480268114E+03  0.86420328447E+03  0.12500000000E+03 0.  0.
         25    1    1    2    0    0  0.12151991951E+02 -0.81895241491E+02 -0.86390985010E+03  0.87682365991E+03  0.12500000000E+03 0.  0.
         25    1    1    2    0    0 -0.35244407453E+02  0.80697927561E+02 -0.14575672842E+03  0.21124475769E+03  0.12500000000E+03 0.  0.
</event>
<event>
 5    0  0.5641283E-005  0.5330122E+03  0.7546771E-02  0.1005504E+00
         21   -1    0    0  502  501  0.00000000000E+00  0.00000000000E+00  0.13354681308E+03  0.13354681308E+03  0.00000000000E+00 0.  1.
         21   -1    0    0  501  502 -0.00000000000E+00 -0.00000000000E+00 -0.21273588764E+04  0.21273588764E+04  0.00000000000E+00 0.  1.
         25    1    1    2    0    0  0.44560504133E+01  0.12899807469E+02 -0.80582973421E+03  0.81558127857E+03  0.12500000000E+03 0.  0.
         25    1    1    2    0    0  0.19382638030E+03  0.31953158304E+03 -0.75239387612E+03  0.84934718642E+03  0.12500000000E+03 0.  0.
         25    1    1    2    0    0 -0.19828243072E+03 -0.33243139051E+03 -0.43558845294E+03  0.59597722445E+03  0.12500000000E+03 0.  0.
</event>
<event>
 5    0  0.5641283E-005  0.2673864E+03  0.7546771E-02  0.1102785E+00
         21   -1    0    0  502  501  0.00000000000E+00  0.00000000000E+00  0.82541336988E+03  0.82541336988E+03  0.00000000000E+00 0.  1.
         21   -1    0    0  501  502 -0.00000000000E+00 -0.00000000000E+00 -0.86617792115E+02  0.86617792115E+02  0.00000000000E+00 0.  1.
         25    1    1    2    0    0  0.41623979142E+02  0.11391799871E+03  0.29525158801E+03  0.34279493330E+03  0.12500000000E+03 0.  0.
         25    1    1    2    0    0  0.52467855310E+02 -0.87027122955E+00  0.29833257283E+03  0.32769033740E+03  0.12500000000E+03 0.  0.
         25    1    1    2    0    0 -0.94091834452E+02 -0.11304772748E+03  0.14521141691E+03  0.24154589129E+03  0.12500000000E+03 0.  0.
</event>
<event>
 5    0  0.5641283E-005  0.3424624E+03  0.7546771E-02  0.1065752E+00
         21   -1    0    0  502  501  0.00000000000E+00  0.00000000000E+00  0.14144277226E+04  0.14144277226E+04  0.00000000000E+00 0.  1.
         21   -1    0    0  501  502 -0.00000000000E+00 -0.00000000000E+00 -0.82917266747E+02  0.82917266747E+02  0.00000000000E+00 0.  1.
         25    1    1    2    0    0 -0.12604940327E+03  0.11843020871E+03  0.23518208457E+03  0.31756854269E+03  0.12500000000E+03 0.  0.
         25    1    1    2    0    0  0.18126434330E+03 -0.39063794765E+02  0.33884633301E+03  0.40598593524E+03  0.12500000000E+03 0.  0.
         25    1    1    2    0    0 -0.55214940030E+02 -0.79366413946E+02  0.75748203831E+03  0.77379051146E+03  0.12500000000E+03 0.  0.
</event>
<event>
 5    0  0.5641283E-005  0.2273116E+03  0.7546771E-02  0.1128546E+00
         21   -1    0    0  502  501  0.00000000000E+00  0.00000000000E+00  0.45027827463E+03  0.45027827463E+03  0.00000000000E+00 0.  1.
         21   -1    0    0  501  502 -0.00000000000E+00 -0.00000000000E+00 -0.11475248619E+03  0.11475248619E+03  0.00000000000E+00 0.  1.
         25    1    1    2    0    0 -0.27705723822E+02  0.10070645326E+03  0.16841447157E+03  0.23430286190E+03  0.12500000000E+03 0.  0.
         25    1    1    2    0    0  0.19119045918E+02 -0.90007441270E+02  0.12093691983E+03  0.19676792416E+03  0.12500000000E+03 0.  0.
         25    1    1    2    0    0  0.85866779033E+01 -0.10699011985E+02  0.46174397046E+02  0.13395997476E+03  0.12500000000E+03 0.  0.
</event>
<event>
 5    0  0.5641283E-005  0.3303906E+03  0.7546771E-02  0.1070964E+00
         21   -1    0    0  502  501  0.00000000000E+00  0.00000000000E+00  0.60777628420E+03  0.60777628420E+03  0.00000000000E+00 0.  1.
         21   -1    0    0  501  502 -0.00000000000E+00 -0.00000000000E+00 -0.17960217964E+03  0.17960217964E+03  0.00000000000E+00 0.  1.
         25    1    1    2    0    0  0.15099914962E+02 -0.11976090679E+03  0.20674436150E+03  0.27007205194E+03  0.12500000000E+03 0.  0.
         25    1    1    2    0    0 -0.63796978581E+01  0.14614958608E+03  0.30769506060E+03  0.36290722282E+03  0.12500000000E+03 0.  0.
         25    1    1    2    0    0 -0.87202171037E+01 -0.26388679288E+02 -0.86265317534E+02  0.15439918908E+03  0.12500000000E+03 0.  0.
</event>
<event>
 5    0  0.5641283E-005  0.3648255E+03  0.7546771E-02  0.1056689E+00
         21   -1    0    0  502  501  0.00000000000E+00  0.00000000000E+00  0.16591746158E+03  0.16591746158E+03  0.00000000000E+00 0. -1.
         21   -1    0    0  501  502 -0.00000000000E+00 -0.00000000000E+00 -0.80219185729E+03  0.80219185729E+03  0.00000000000E+00 0. -1.
         25    1    1    2    0    0 -0.20077289116E+03 -0.13943335883E+03 -0.13176634354E+03  0.30453043307E+03  0.12500000000E+03 0.  0.
         25    1    1    2    0    0  0.22738610497E+03  0.85598417140E+02 -0.42039384210E+03  0.50138559236E+03  0.12500000000E+03 0.  0.
         25    1    1    2    0    0 -0.26613213818E+02  0.53834941692E+02 -0.84114210067E+02  0.16219329342E+03  0.12500000000E+03 0.  0.
</event>
<event>
 5    0  0.5641283E-005  0.4007370E+03  0.7546771E-02  0.1043525E+00
         21   -1    0    0  502  501  0.00000000000E+00  0.00000000000E+00  0.58759696678E+03  0.58759696678E+03  0.00000000000E+00 0.  1.
         21   -1    0    0  501  502 -0.00000000000E+00 -0.00000000000E+00 -0.27329978057E+03  0.27329978057E+03  0.00000000000E+00 0.  1.
         25    1    1    2    0    0 -0.88031636167E+02  0.17905569198E+03 -0.33708010475E+02  0.23784814434E+03  0.12500000000E+03 0.  0.
         25    1    1    2    0    0  0.10574334615E+03 -0.12237261594E+03  0.41996529979E+03  0.46706805223E+03  0.12500000000E+03 0.  0.
         25    1    1    2    0    0 -0.17711709983E+02 -0.56683076046E+02 -0.71960103113E+02  0.15598055078E+03  0.12500000000E+03 0.  0.
</event>
<event>
 5    0  0.5641283E-005  0.4059616E+03  0.7546771E-02  0.1041735E+00
         21   -1    0    0  502  501  0.00000000000E+00  0.00000000000E+00  0.12945265619E+04  0.12945265619E+04  0.00000000000E+00 0.  1.
         21   -1    0    0  501  502 -0.00000000000E+00 -0.00000000000E+00 -0.12730893236E+03  0.12730893236E+03  0.00000000000E+00 0.  1.
         25    1    1    2    0    0  0.25158082101E+03  0.19207796784E+03  0.32367316336E+03  0.46965537568E+03  0.12500000000E+03 0.  0.
         25    1    1    2    0    0 -0.23703209405E+03 -0.13097077427E+03  0.62777387087E+03  0.69502704283E+03  0.12500000000E+03 0.  0.
         25    1    1    2    0    0 -0.14548726963E+02 -0.61107193571E+02  0.21577059529E+03  0.25715307572E+03  0.12500000000E+03 0.  0.
</event>
<event>
 5    0  0.5641283E-005  0.5386777E+03  0.7546771E-02  0.1004149E+00
         21   -1    0    0  502  501  0.00000000000E+00  0.00000000000E+00  0.20493642500E+03  0.20493642500E+03  0.00000000000E+00 0.  1.
         21   -1    0    0  501  502 -0.00000000000E+00 -0.00000000000E+00 -0.14159206339E+04  0.14159206339E+04  0.00000000000E+00 0.  1.
         25    1    1    2    0    0  0.17229729235E+03 -0.71110055832E+02 -0.16065472444E+03  0.27600350990E+03  0.12500000000E+03 0.  0.
         25    1    1    2    0    0  0.30360493598E+03  0.10536242771E+03 -0.38870461090E+03  0.51960896149E+03  0.12500000000E+03 0.  0.
         25    1    1    2    0    0 -0.47590222833E+03 -0.34252371873E+02 -0.66162487352E+03  0.82524458748E+03  0.12500000000E+03 0.  0.
</event>
<event>
 5    0  0.5641283E-005  0.2331727E+03  0.7546771E-02  0.1124426E+00
         21   -1    0    0  502  501  0.00000000000E+00  0.00000000000E+00  0.28067841003E+03  0.28067841003E+03  0.00000000000E+00 0. -1.
         21   -1    0    0  501  502 -0.00000000000E+00 -0.00000000000E+00 -0.19370746067E+03  0.19370746067E+03  0.00000000000E+00 0. -1.
         25    1    1    2    0    0  0.46717360323E+02  0.33684116545E+02  0.45822792989E+02  0.14505812566E+03  0.12500000000E+03 0.  0.
         25    1    1    2    0    0 -0.40857106814E+02 -0.84801139831E+02  0.95852836268E+02  0.18350286841E+03  0.12500000000E+03 0.  0.
         25    1    1    2    0    0 -0.58602535088E+01  0.51117023285E+02 -0.54704679893E+02  0.14582487663E+03  0.12500000000E+03 0.  0.
</event>
<event>
 5    0  0.6724895E-005  0.2761727E+03  0.7546771E-02  0.1097798E+00
         21   -1    0    0  502  501  0.00000000000E+00  0.00000000000E+00  0.55284453318E+03  0.55284453318E+03  0.00000000000E+00 0. -1.
         21   -1    0    0  501  502 -0.00000000000E+00 -0.00000000000E+00 -0.13796171626E+03  0.13796171626E+03  0.00000000000E+00 0. -1.
         25    1    1    2    0    0 -0.72887455778E+02 -0.15529420345E+03  0.10662946762E+03  0.23753676389E+03  0.12500000000E+03 0.  0.
         25    1    1    2    0    0 -0.22113752272E+02  0.97161888408E+02  0.18997085595E+03  0.24828084241E+03  0.12500000000E+03 0.  0.
         25    1    1    2    0    0  0.95001208050E+02  0.58132315047E+02  0.11828249335E+03  0.20498864314E+03  0.12500000000E+03 0.  0.
</event>
<event>
 5    0  0.5641283E-005  0.5216806E+03  0.7546771E-02  0.1008270E+00
         21   -1    0    0  502  501  0.00000000000E+00  0.00000000000E+00  0.56989608510E+03  0.56989608510E+03  0.00000000000E+00 0. -1.
         21   -1    0    0  501  502 -0.00000000000E+00 -0.00000000000E+00 -0.47754428186E+03  0.47754428186E+03  0.00000000000E+00 0. -1.
         25    1    1    2    0    0  0.23115633797E+03 -0.33104858289E+02  0.67311361526E+02  0.27328557155E+03  0.12500000000E+03 0.  0.
         25    1    1    2    0    0 -0.28426452688E+03  0.21214841734E+03  0.25361845369E+03  0.45360841292E+03  0.12500000000E+03 0.  0.
         25    1    1    2    0    0  0.53108188902E+02 -0.17904355905E+03 -0.22857801197E+03  0.32054638249E+03  0.12500000000E+03 0.  0.
</event>
<event>
 5    0  0.5641283E-005  0.4515062E+03  0.7546771E-02  0.1027274E+00
         21   -1    0    0  502  501  0.00000000000E+00  0.00000000000E+00  0.57790429221E+03  0.57790429221E+03  0.00000000000E+00 0.  1.
         21   -1    0    0  501  502 -0.00000000000E+00 -0.00000000000E+00 -0.35275358616E+03  0.35275358616E+03  0.00000000000E+00 0.  1.
         25    1    1    2    0    0  0.44351403288E+02 -0.25293214433E+03 -0.11574138053E+03  0.30816032155E+03  0.12500000000E+03 0.  0.
         25    1    1    2    0    0 -0.63190427399E+02  0.33187939627E+03  0.29771960052E+03  0.46733170695E+03  0.12500000000E+03 0.  0.
         25    1    1    2    0    0  0.18839024111E+02 -0.78947251933E+02  0.43172486055E+02  0.15516584988E+03  0.12500000000E+03 0.  0.
</event>
<event>
 5    0  0.5641283E-005  0.2320815E+03  0.7546771E-02  0.1125183E+00
         21   -1    0    0  502  501  0.00000000000E+00  0.00000000000E+00  0.24826890578E+03  0.24826890578E+03  0.00000000000E+00 0. -1.
         21   -1    0    0  501  502 -0.00000000000E+00 -0.00000000000E+00 -0.21694958051E+03  0.21694958051E+03  0.00000000000E+00 0. -1.
         25    1    1    2    0    0  0.19756177070E+02  0.84911798124E+01  0.34511139409E+02  0.13144742451E+03  0.12500000000E+03 0.  0.
         25    1    1    2    0    0 -0.58785360265E+01  0.55902431951E+02 -0.93653698110E+02  0.16599895859E+03  0.12500000000E+03 0.  0.
         25    1    1    2    0    0 -0.13877641044E+02 -0.64393611763E+02  0.90461883971E+02  0.16777210319E+03  0.12500000000E+03 0.  0.
</event>
<event>
 5    0  0.5641283E-005  0.2981423E+03  0.7546771E-02  0.1086173E+00
         21   -1    0    0  502  501  0.00000000000E+00  0.00000000000E+00  0.17469687672E+04  0.17469687672E+04  0.00000000000E+00 0. -1.
         21   -1    0    0  501  502 -0.00000000000E+00 -0.00000000000E+00 -0.50881753511E+02  0.50881753511E+02  0.00000000000E+00 0. -1.
         25    1    1    2    0    0 -0.52414387854E+02 -0.17686074399E+03  0.66746783714E+03  0.70367983092E+03  0.12500000000E+03 0.  0.
         25    1    1    2    0    0 -0.28260834655E+02  0.18645386475E+02  0.20566078401E+03  0.24303843995E+03  0.12500000000E+03 0.  0.
         25    1    1    2    0    0  0.80675222509E+02  0.15821535752E+03  0.82295839250E+03  0.85113224981E+03  0.12500000000E+03 0.  0.
</event>
<event>
 5    0  0.5641283E-005  0.3734875E+03  0.7546771E-02  0.1053367E+00
         21   -1    0    0  502  501  0.00000000000E+00  0.00000000000E+00  0.42056936680E+03  0.42056936680E+03  0.00000000000E+00 0.  1.
         21   -1    0    0  501  502 -0.00000000000E+00 -0.00000000000E+00 -0.33167632142E+03  0.33167632142E+03  0.00000000000E+00 0.  1.
         25    1    1    2    0    0  0.70203754086E+02 -0.12234145009E+03  0.19756991099E+03  0.27304737176E+03  0.12500000000E+03 0.  0.
         25    1    1    2    0    0 -0.16783472353E+03  0.18369618922E+03 -0.13090171594E+03  0.30768984967E+03  0.12500000000E+03 0.  0.
         25    1    1    2    0    0  0.97630969447E+02 -0.61354739133E+02  0.22224850329E+02  0.17150846679E+03  0.12500000000E+03 0.  0.
</event>
<event>
 5    0  0.5641283E-005  0.4151279E+03  0.7546771E-02  0.1038664E+00
         21   -1    0    0  502  501  0.00000000000E+00  0.00000000000E+00  0.44406192251E+03  0.44406192251E+03  0.00000000000E+00 0. -1.
         21   -1    0    0  501  502 -0.00000000000E+00 -0.00000000000E+00 -0.38807918698E+03  0.38807918698E+03  0.00000000000E+00 0. -1.
         25    1    1    2    0    0 -0.55482006996E+02 -0.53070859564E+02 -0.70882754088E+02  0.16292370626E+03  0.12500000000E+03 0.  0.
         25    1    1    2    0    0  0.25068254489E+03 -0.90294262441E+02 -0.10388353846E+03  0.31210828522E+03  0.12500000000E+03 0.  0.
         25    1    1    2    0    0 -0.19520053789E+03  0.14336512201E+03  0.23074902808E+03  0.35710911800E+03  0.12500000000E+03 0.  0.
</event>
<event>
 5    0  0.5641283E-005  0.2654416E+03  0.7546771E-02  0.1103917E+00
         21   -1    0    0  502  501  0.00000000000E+00  0.00000000000E+00  0.35870405307E+03  0.35870405307E+03  0.00000000000E+00 0. -1.
         21   -1    0    0  501  502 -0.00000000000E+00 -0.00000000000E+00 -0.19642719229E+03  0.19642719229E+03  0.00000000000E+00 0. -1.
         25    1    1    2    0    0 -0.90561638772E+02  0.71166086940E+02  0.14549204248E+03  0.22373859026E+03  0.12500000000E+03 0.  0.
         25    1    1    2    0    0  0.78412093101E+01 -0.11424052854E+03  0.38753865988E+02  0.17389435026E+03  0.12500000000E+03 0.  0.
         25    1    1    2    0    0  0.82720429462E+02  0.43074441602E+02 -0.21969047697E+02  0.15749830484E+03  0.12500000000E+03 0.  0.
</event>
<event>
 5    0  0.5641283E-005  0.2961455E+03  0.7546771E-02  0.1087183E+00
         21   -1    0    0  502  501  0.00000000000E+00  0.00000000000E+00  0.12190404102E+03  0.12190404102E+03  0.00000000000E+00 0.  1.
         21   -1    0    0  501  502 -0.00000000000E+00 -0.00000000000E+00 -0.71943601483E+03  0.71943601483E+03  0.00000000000E+00 0.  1.
         25    1    1    2    0    0  0.94056352704E+02  0.93394950146E+02 -0.43937670321E+03  0.47565334175E+03  0.12500000000E+03 0.  0.
         25    1    1    2    0    0 -0.41726611472E+02  0.27061312529E+02 -0.12028816589E+03  0.18046514232E+03  0.12500000000E+03 0.  0.
         25    1    1    2    0    0 -0.52329741232E+02 -0.12045626267E+03 -0.37867104713E+02  0.18522157178E+03  0.12500000000E+03 0.  0.
</event>
<event>
 5    0  0.5641283E-005  0.3953348E+03  0.7546771E-02  0.1045407E+00
         21   -1    0    0  502  501  0.00000000000E+00  0.00000000000E+00  0.13289633904E+03  0.13289633904E+03  0.00000000000E+00 0.  1.
         21   -1    0    0  501  502 -0.00000000000E+00 -0.00000000000E+00 -0.11760264322E+04  0.11760264322E+04  0.00000000000E+00 0.  1.
         25    1    1    2    0    0 -0.10781829975E+03 -0.22431703505E+03 -0.68500236671E+03  0.73945666565E+03  0.12500000000E+03 0.  0.
         25    1    1    2    0    0  0.53457353539E+01  0.11911288388E+02 -0.25318991439E+03  0.28266692135E+03  0.12500000000E+03 0.  0.
         25    1    1    2    0    0  0.10247256439E+03  0.21240574667E+03 -0.10493781203E+03  0.28679918421E+03  0.12500000000E+03 0.  0.
</event>
<event>
 5    0  0.5641283E-005  0.2796173E+03  0.7546771E-02  0.1095898E+00
         21   -1    0    0  502  501  0.00000000000E+00  0.00000000000E+00  0.40948888958E+03  0.40948888958E+03  0.00000000000E+00 0. -1.
         21   -1    0    0  501  502 -0.00000000000E+00 -0.00000000000E+00 -0.19093522918E+03  0.19093522918E+03  0.00000000000E+00 0. -1.
         25    1    1    2    0    0 -0.11801214204E+03 -0.74834951635E+02  0.17763170291E+03  0.25827341624E+03  0.12500000000E+03 0.  0.
         25    1    1    2    0    0  0.10331730600E+03  0.11144876812E+03  0.68211000614E+02  0.20826193661E+03  0.12500000000E+03 0.  0.
         25    1    1    2    0    0  0.14694836043E+02 -0.36613816487E+02 -0.27289043117E+02  0.13388876592E+03  0.12500000000E+03 0.  0.
</event>
<event>
 5    0  0.5641283E-005  0.2498491E+03  0.7546771E-02  0.1113400E+00
         21   -1    0    0  502  501  0.00000000000E+00  0.00000000000E+00  0.32027784772E+02  0.32027784772E+02  0.00000000000E+00 0.  1.
         21   -1    0    0  501  502 -0.00000000000E+00 -0.00000000000E+00 -0.19490753813E+04  0.19490753813E+04  0.00000000000E+00 0.  1.
         25    1    1    2    0    0 -0.12179269011E+03 -0.13118779449E+02 -0.89009049502E+03  0.90713375588E+03  0.12500000000E+03 0.  0.
         25    1    1    2    0    0  0.18558896283E+02 -0.28288388285E+02 -0.27992196123E+03  0.30842498265E+03  0.12500000000E+03 0.  0.
         25    1    1    2    0    0  0.10323379382E+03  0.41407167734E+02 -0.74703514023E+03  0.76554442750E+03  0.12500000000E+03 0.  0.
</event>
<event>
 5    0  0.5641283E-005  0.3160009E+03  0.7546771E-02  0.1077505E+00
         21   -1    0    0  502  501  0.00000000000E+00  0.00000000000E+00  0.12929025638E+03  0.12929025638E+03  0.00000000000E+00 0. -1.
         21   -1    0    0  501  502 -0.00000000000E+00 -0.00000000000E+00 -0.77234431564E+03  0.77234431564E+03  0.00000000000E+00 0. -1.
         25    1    1    2    0    0 -0.49178790847E+02 -0.45111465578E+01 -0.15211416744E+03  0.20298429458E+03  0.12500000000E+03 0.  0.
         25    1    1    2    0    0  0.31859204023E+02 -0.17969827288E+03 -0.40092490524E+03  0.45789983381E+03  0.12500000000E+03 0.  0.
         25    1    1    2    0    0  0.17319586823E+02  0.18420941944E+03 -0.90014986587E+02  0.24075044363E+03  0.12500000000E+03 0.  0.
</event>
<event>
 5    0  0.5641283E-005  0.3944133E+03  0.7546771E-02  0.1045732E+00
         21   -1    0    0  502  501  0.00000000000E+00  0.00000000000E+00  0.10328734758E+04  0.10328734758E+04  0.00000000000E+00 0.  1.
         21   -1    0    0  501  502 -0.00000000000E+00 -0.00000000000E+00 -0.15061073726E+03  0.15061073726E+03  0.00000000000E+00 0.  1.
         25    1    1    2    0    0  0.32022457520E+02 -0.13953305441E+03  0.22304914753E+03  0.29303725577E+03  0.12500000000E+03 0.  0.
         25    1    1    2    0    0 -0.16723509006E+03  0.15390869075E+03  0.65632796476E+03  0.70572434971E+03  0.12500000000E+03 0.  0.
         25    1    1    2    0    0  0.13521263254E+03 -0.14375636340E+02  0.28856262626E+01  0.18472260760E+03  0.12500000000E+03 0.  0.
</event>
<event>
 5    0  0.5641283E-005  0.2629936E+03  0.7546771E-02  0.1105358E+00
         21   -1    0    0  502  501  0.00000000000E+00  0.00000000000E+00  0.10866208498E+04  0.10866208498E+04  0.00000000000E+00 0. -1.
         21   -1    0    0  501  502 -0.00000000000E+00 -0.00000000000E+00 -0.63652046860E+02  0.63652046860E+02  0.00000000000E+00 0. -1.
         25    1    1    2    0    0 -0.16456495507E+02  0.11639999770E+02  0.41288845879E+03  0.43186593434E+03  0.12500000000E+03 0.  0.
         25    1    1    2    0    0  0.97495239076E+02 -0.50863525314E+02  0.12147107969E+03  0.20608892025E+03  0.12500000000E+03 0.  0.
         25    1    1    2    0    0 -0.81038743569E+02  0.39223525543E+02  0.48860926448E+03  0.51231804209E+03  0.12500000000E+03 0.  0.
</event>
<event>
 5    0  0.5641283E-005  0.2506580E+03  0.7546771E-02  0.1112890E+00
         21   -1    0    0  502  501  0.00000000000E+00  0.00000000000E+00  0.55916756171E+02  0.55916756171E+02  0.00000000000E+00 0.  1.
         21   -1    0    0  501  502 -0.00000000000E+00 -0.00000000000E+00 -0.11236247528E+04  0.11236247528E+04  0.00000000000E+00 0.  1.
         25    1    1    2    0    0  0.52841093773E+02 -0.36273289073E+01 -0.31795980642E+03  0.34572934096E+03  0.12500000000E+03 0.  0.
         25    1    1    2    0    0 -0.44806509548E+02 -0.95998146964E+02 -0.57025178618E+03  0.59332568389E+03  0.12500000000E+03 0.  0.
         25    1    1    2    0    0 -0.80345842259E+01  0.99625475872E+02 -0.17949640405E+03  0.24048648414E+03  0.12500000000E+03 0.  0.
</event>
<event>
 5    0  0.5641283E-005  0.2405041E+03  0.7546771E-02  0.1119457E+00
         21   -1    0    0  502  501  0.00000000000E+00  0.00000000000E+00  0.93282271213E+03  0.93282271213E+03  0.00000000000E+00 0.  1.
         21   -1    0    0  501  502 -0.00000000000E+00 -0.00000000000E+00 -0.62007739245E+02  0.62007739245E+02  0.00000000000E+00 0.  1.
         25    1    1    2    0    0  0.79347761078E+02 -0.28412556407E+02  0.30969103055E+03  0.34443704062E+03  0.12500000000E+03 0.  0.
         25    1    1    2    0    0 -0.83577450805E+02 -0.35861392268E+02  0.14806666817E+03  0.21405599259E+03  0.12500000000E+03 0.  0.
         25    1    1    2    0    0  0.42296897271E+01  0.64273948675E+02  0.41305727416E+03  0.43633741817E+03  0.12500000000E+03 0.  0.
</event>
<event>
 5    0  0.5641283E-005  0.2683777E+03  0.7546771E-02  0.1102212E+00
         21   -1    0    0  502  501  0.00000000000E+00  0.00000000000E+00  0.15511770163E+03  0.15511770163E+03  0.00000000000E+00 0. -1.
         21   -1    0    0  501  502 -0.00000000000E+00 -0.00000000000E+00 -0.46433522513E+03  0.46433522513E+03  0.00000000000E+00 0. -1.
         25    1    1    2    0    0 -0.10562266547E+03 -0.57711371034E+02  0.19468765798E+02  0.17461610078E+03  0.12500000000E+03 0.  0.
         25    1    1    2    0    0  0.29948663809E+02  0.63608111220E+02 -0.10563683663E+03  0.17812090144E+03  0.12500000000E+03 0.  0.
         25    1    1    2    0    0  0.75674001665E+02 -0.58967401864E+01 -0.22304945266E+03  0.26671592454E+03  0.12500000000E+03 0.  0.
</event>
<event>
 5    0  0.5641283E-005  0.5310114E+03  0.7546771E-02  0.1005987E+00
         21   -1    0    0  502  501  0.00000000000E+00  0.00000000000E+00  0.18826676767E+04  0.18826676767E+04  0.00000000000E+00 0.  1.
         21   -1    0    0  501  502 -0.00000000000E+00 -0.00000000000E+00 -0.14977316533E+03  0.14977316533E+03  0.00000000000E+00 0.  1.
         25    1    1    2    0    0  0.21135727219E+03  0.12095320278E+03  0.81199500694E+03  0.85689116291E+03  0.12500000000E+03 0.  0.
         25    1    1    2    0    0  0.12686049849E+02  0.55256568800E+02 -0.57518609846E+02  0.14882074699E+03  0.12500000000E+03 0.  0.
         25    1    1    2    0    0 -0.22404332204E+03 -0.17620977158E+03  0.97841811422E+03  0.10267289321E+04  0.12500000000E+03 0.  0.
</event>
<event>
 5    0  0.5641283E-005  0.6385636E+03  0.7546771E-02  0.9828479E-01
         21   -1    0    0  502  501  0.00000000000E+00  0.00000000000E+00  0.17317474214E+03  0.17317474214E+03  0.00000000000E+00 0. -1.
         21   -1    0    0  501  502 -0.00000000000E+00 -0.00000000000E+00 -0.23546361206E+04  0.23546361206E+04  0.00000000000E+00 0. -1.
         25    1    1    2    0    0  0.35643366198E+03  0.89046360294E+02 -0.69263702945E+03  0.79394285956E+03  0.12500000000E+03 0.  0.
         25    1    1    2    0    0 -0.24227439790E+03 -0.26117001833E+03 -0.20910282522E+03  0.43157346288E+03  0.12500000000E+03 0.  0.
         25    1    1    2    0    0 -0.11415926409E+03  0.17212365804E+03 -0.12797215238E+04  0.13022945403E+04  0.12500000000E+03 0.  0.
</event>
<event>
 5    0  0.5641283E-005  0.4127065E+03  0.7546771E-02  0.1039467E+00
         21   -1    0    0  502  501  0.00000000000E+00  0.00000000000E+00  0.53759087858E+03  0.53759087858E+03  0.00000000000E+00 0.  1.
         21   -1    0    0  501  502 -0.00000000000E+00 -0.00000000000E+00 -0.31683322750E+03  0.31683322750E+03  0.00000000000E+00 0.  1.
         25    1    1    2    0    0  0.32285324403E+03 -0.11974774197E+03  0.58985620427E+02  0.37104991888E+03  0.12500000000E+03 0.  0.
         25    1    1    2    0    0 -0.21203421402E+03  0.62195902445E+02  0.16106678840E+02  0.25438408618E+03  0.12500000000E+03 0.  0.
         25    1    1    2    0    0 -0.11081903001E+03  0.57551839522E+02  0.14566535182E+03  0.22899010102E+03  0.12500000000E+03 0.  0.
</event>
<event>
 5    0  0.5641283E-005  0.2523934E+03  0.7546771E-02  0.1111802E+00
         21   -1    0    0  502  501  0.00000000000E+00  0.00000000000E+00  0.46225928080E+03  0.46225928080E+03  0.00000000000E+00 0. -1.
         21   -1    0    0  501  502 -0.00000000000E+00 -0.00000000000E+00 -0.13780670042E+03  0.13780670042E+03  0.00000000000E+00 0. -1.
         25    1    1    2    0    0  0.22920949721E+02 -0.11897427022E+03  0.17667896986E+03  0.24803367776E+03  0.12500000000E+03 0.  0.
         25    1    1    2    0    0 -0.19633109898E+02  0.30913373212E+02  0.15053851790E+03  0.19906767950E+03  0.12500000000E+03 0.  0.
         25    1    1    2    0    0 -0.32878398230E+01  0.88060897010E+02 -0.27649073789E+01  0.15296462397E+03  0.12500000000E+03 0.  0.
</event>
<event>
 5    0  0.5641283E-005  0.3250502E+03  0.7546771E-02  0.1073348E+00
         21   -1    0    0  502  501  0.00000000000E+00  0.00000000000E+00  0.17710908501E+03  0.17710908501E+03  0.00000000000E+00 0.  1.
         21   -1    0    0  501  502 -0.00000000000E+00 -0.00000000000E+00 -0.59656799474E+03  0.59656799474E+03  0.00000000000E+00 0.  1.
         25    1    1    2    0    0 -0.15787703376E+03  0.11749588130E+03 -0.18717263506E+02  0.23389265885E+03  0.12500000000E+03 0.  0.
         25    1    1    2    0    0  0.90600273731E+02  0.25100894916E+02 -0.21559072184E+03  0.26635094119E+03  0.12500000000E+03 0.  0.
         25    1    1    2    0    0  0.67276760025E+02 -0.14259677621E+03 -0.18515092438E+03  0.27343347971E+03  0.12500000000E+03 0.  0.
</event>
<event>
 5    0  0.5641283E-005  0.2666425E+03  0.7546771E-02  0.1103217E+00
         21   -1    0    0  502  501  0.00000000000E+00  0.00000000000E+00  0.56879248844E+02  0.56879248844E+02  0.00000000000E+00 0. -1.
         21   -1    0    0  501  502 -0.00000000000E+00 -0.00000000000E+00 -0.12499851476E+04  0.12499851476E+04  0.00000000000E+00 0. -1.
         25    1    1    2    0    0  0.49314398257E+01  0.47028115590E+02 -0.55802032290E+03  0.57380104873E+03  0.12500000000E+03 0.  0.
         25    1    1    2    0    0 -0.43055930600E+02 -0.14558364517E+03 -0.41034545999E+03  0.45503495189E+03  0.12500000000E+03 0.  0.
         25    1    1    2    0    0  0.38124490774E+02  0.98555529583E+02 -0.22474011586E+03  0.27802839583E+03  0.12500000000E+03 0.  0.
</event>
<event>
 5    0  0.5641283E-005  0.2726556E+03  0.7546771E-02  0.1099769E+00
         21   -1    0    0  502  501  0.00000000000E+00  0.00000000000E+00  0.24790013811E+02  0.24790013811E+02  0.00000000000E+00 0. -1.
         21   -1    0    0  501  502 -0.00000000000E+00 -0.00000000000E+00 -0.29988315556E+04  0.29988315556E+04  0.00000000000E+00 0. -1.
         25    1    1    2    0    0  0.77328166937E+02 -0.16523044024E+03 -0.12057941660E+04  0.12259059159E+04  0.12500000000E+03 0.  0.
         25    1    1    2    0    0 -0.76117944319E+02  0.73120332704E+02 -0.10680797719E+04  0.10805368682E+04  0.12500000000E+03 0.  0.
         25    1    1    2    0    0 -0.12102226185E+01  0.92110107540E+02 -0.70016760386E+03  0.71717878527E+03  0.12500000000E+03 0.  0.
</event>
<event>
 5    0  0.5641283E-005  0.5332900E+03  0.7546771E-02  0.1005437E+00
         21   -1    0    0  502  501  0.00000000000E+00  0.00000000000E+00  0.40899414911E+03  0.40899414911E+03  0.00000000000E+00 0.  1.
         21   -1    0    0  501  502 -0.00000000000E+00 -0.00000000000E+00 -0.69536007399E+03  0.69536007399E+03  0.00000000000E+00 0.  1.
         25    1    1    2    0    0  0.34651312548E+03 -0.25217503015E+03 -0.27741045350E+02  0.44727861290E+03  0.12500000000E+03 0.  0.
         25    1    1    2    0    0 -0.32833030385E+03  0.27500158269E+03 -0.10773863912E+03  0.45897633193E+03  0.12500000000E+03 0.  0.
         25    1    1    2    0    0 -0.18182821633E+02 -0.22826552546E+02 -0.15088624041E+03  0.19809927826E+03  0.12500000000E+03 0.  0.
</event>
<event>
 5    0  0.5641283E-005  0.3109967E+03  0.7546771E-02  0.1079869E+00
         21   -1    0    0  502  501  0.00000000000E+00  0.00000000000E+00  0.12211348348E+04  0.12211348348E+04  0.00000000000E+00 0.  1.
         21   -1    0    0  501  502 -0.00000000000E+00 -0.00000000000E+00 -0.79204143708E+02  0.79204143708E+02  0.00000000000E+00 0.  1.
         25    1    1    2    0    0 -0.27707024461E+02 -0.11666890083E+03  0.43246529573E+03  0.46586537072E+03  0.12500000000E+03 0.  0.
         25    1    1    2    0    0 -0.11393331511E+03 -0.40314161929E+02  0.42168550639E+03  0.45612465209E+03  0.12500000000E+03 0.  0.
         25    1    1    2    0    0  0.14164033957E+03  0.15698306276E+03  0.28777988900E+03  0.37834895572E+03  0.12500000000E+03 0.  0.
</event>
<event>
 5    0  0.5641283E-005  0.3879044E+03  0.7546771E-02  0.1048050E+00
         21   -1    0    0  502  501  0.00000000000E+00  0.00000000000E+00  0.23891538419E+03  0.23891538419E+03  0.00000000000E+00 0.  1.
         21   -1    0    0  501  502 -0.00000000000E+00 -0.00000000000E+00 -0.62980378817E+03  0.62980378817E+03  0.00000000000E+00 0.  1.
         25    1    1    2    0    0  0.10805848828E+03  0.10526765914E+03 -0.11418243947E+03  0.22676098966E+03  0.12500000000E+03 0.  0.
         25    1    1    2    0    0  0.58003961624E+02 -0.24650299185E+03 -0.26979693163E+03  0.39056826403E+03  0.12500000000E+03 0.  0.
         25    1    1    2    0    0 -0.16606244990E+03  0.14123533271E+03 -0.69090328816E+01  0.25138991867E+03  0.12500000000E+03 0.  0.
</event>
<event>
 5    0  0.5641283E-005  0.4966136E+03  0.7546771E-02  0.1014667E+00
         21   -1    0    0  502  501  0.00000000000E+00  0.00000000000E+00  0.69895155270E+03  0.69895155270E+03  0.00000000000E+00 0.  1.
         21   -1    0    0  501  502 -0.00000000000E+00 -0.00000000000E+00 -0.35284996037E+03  0.35284996037E+03  0.00000000000E+00 0.  1.
         25    1    1    2    0    0  0.32087108589E+02 -0.14066800386E+03 -0.34476960420E+02  0.19398641872E+03  0.12500000000E+03 0.  0.
         25    1    1    2    0    0 -0.30643111753E+03  0.84241002504E+00  0.40684679933E+03  0.52445214993E+03  0.12500000000E+03 0.  0.
         25    1    1    2    0    0  0.27434400894E+03  0.13982559383E+03 -0.26268246579E+02  0.33336294442E+03  0.12500000000E+03 0.  0.
</event>
<event>
 5    0  0.5641283E-005  0.2615068E+03  0.7546771E-02  0.1106241E+00
         21   -1    0    0  502  501  0.00000000000E+00  0.00000000000E+00  0.41987035530E+03  0.41987035530E+03  0.00000000000E+00 0. -1.
         21   -1    0    0  501  502 -0.00000000000E+00 -0.00000000000E+00 -0.16287359995E+03  0.16287359995E+03  0.00000000000E+00 0. -1.
         25    1    1    2    0    0 -0.80120492444E+01 -0.38058942583E+02  0.14041006879E+03  0.19197047549E+03  0.12500000000E+03 0.  0.
         25    1    1    2    0    0 -0.21771985982E+02 -0.90985870961E+02 -0.27523238048E+02  0.15854014230E+03  0.12500000000E+03 0.  0.
         25    1    1    2    0    0  0.29784035226E+02  0.12904481354E+03  0.14410992461E+03  0.23223333746E+03  0.12500000000E+03 0.  0.
</event>
<event>
 5    0  0.5641283E-005  0.2396807E+03  0.7546771E-02  0.1120006E+00
         21   -1    0    0  502  501  0.00000000000E+00  0.00000000000E+00  0.19269752877E+03  0.19269752877E+03  0.00000000000E+00 0. -1.
         21   -1    0    0  501  502 -0.00000000000E+00 -0.00000000000E+00 -0.29811932538E+03  0.29811932538E+03  0.00000000000E+00 0. -1.
         25    1    1    2    0    0  0.84068323012E+02  0.31454073005E+02  0.31965651605E+02  0.15717393081E+03  0.12500000000E+03 0.  0.
         25    1    1    2    0    0 -0.26862621430E+02 -0.87901484309E+02 -0.62998111464E+02  0.16745755708E+03  0.12500000000E+03 0.  0.
         25    1    1    2    0    0 -0.57205701582E+02  0.56447411304E+02 -0.74389336753E+02  0.16618536626E+03  0.12500000000E+03 0.  0.
</event>
<event>
 5    0  0.5641283E-005  0.3393301E+03  0.7546771E-02  0.1067082E+00
         21   -1    0    0  502  501  0.00000000000E+00  0.00000000000E+00  0.36446876889E+03  0.36446876889E+03  0.00000000000E+00 0.  1.
         21   -1    0    0  501  502 -0.00000000000E+00 -0.00000000000E+00 -0.31592532676E+03  0.31592532676E+03  0.00000000000E+00 0.  1.
         25    1    1    2    0    0 -0.90935445872E+02 -0.21085090086E+03 -0.62188579957E+01  0.26151679087E+03  0.12500000000E+03 0.  0.
         25    1    1    2    0    0 -0.12682708218E+02  0.17072241303E+02 -0.61139961137E+02  0.14076720981E+03  0.12500000000E+03 0.  0.
         25    1    1    2    0    0  0.10361815409E+03  0.19377865956E+03  0.11590226126E+03  0.27811009497E+03  0.12500000000E+03 0.  0.
</event>
<event>
 5    0  0.5641283E-005  0.4297673E+03  0.7546771E-02  0.1033934E+00
         21   -1    0    0  502  501  0.00000000000E+00  0.00000000000E+00  0.55312619540E+03  0.55312619540E+03  0.00000000000E+00 0.  1.
         21   -1    0    0  501  502 -0.00000000000E+00 -0.00000000000E+00 -0.33392002527E+03  0.33392002527E+03  0.00000000000E+00 0.  1.
         25    1    1    2    0    0  0.62219734149E+02 -0.14513024489E+03  0.89204939919E+02  0.22026485104E+03  0.12500000000E+03 0.  0.
         25    1    1    2    0    0 -0.30376698054E+03  0.16720442325E+03  0.13857953390E+03  0.39377783690E+03  0.12500000000E+03 0.  0.
         25    1    1    2    0    0  0.24154724639E+03 -0.22074178369E+02 -0.85783036926E+01  0.27300353273E+03  0.12500000000E+03 0.  0.
</event>
<event>
 5    0  0.5641283E-005  0.2979834E+03  0.7546771E-02  0.1086253E+00
         21   -1    0    0  502  501  0.00000000000E+00  0.00000000000E+00  0.45503490588E+02  0.45503490588E+02  0.00000000000E+00 0.  1.
         21   -1    0    0  501  502 -0.00000000000E+00 -0.00000000000E+00 -0.19513695226E+04  0.19513695226E+04  0.00000000000E+00 0.  1.
         25    1    1    2    0    0 -0.26690401173E+02  0.12795899445E+03 -0.30193952445E+03  0.35196357511E+03  0.12500000000E+03 0.  0.
         25    1    1    2    0    0  0.50217460396E+02 -0.98284810024E+02 -0.39238567294E+03  0.42634869947E+03  0.12500000000E+03 0.  0.
         25    1    1    2    0    0 -0.23527059223E+02 -0.29674184426E+02 -0.12115408347E+04  0.12185607386E+04  0.12500000000E+03 0.  0.
</event>
<event>
 5    0  0.5883633E-005  0.2818663E+03  0.7546771E-02  0.1094674E+00
         21   -1    0    0  502  501  0.00000000000E+00  0.00000000000E+00  0.36742086427E+03  0.36742086427E+03  0.00000000000E+00 0. -1.
         21   -1    0    0  501  502 -0.00000000000E+00 -0.00000000000E+00 -0.21623319650E+03  0.21623319650E+03  0.00000000000E+00 0. -1.
         25    1    1    2    0    0  0.14560354110E+03 -0.80651111169E+02  0.16189792623E+03  0.26370614599E+03  0.12500000000E+03 0.  0.
         25    1    1    2    0    0 -0.49784994858E+02  0.76379340681E+02  0.29120187967E+02  0.15743358836E+03  0.12500000000E+03 0.  0.
         25    1    1    2    0    0 -0.95818546242E+02  0.42717704877E+01 -0.39830446434E+02  0.16251432642E+03  0.12500000000E+03 0.  0.
</event>
<event>
 5    0  0.5641283E-005  0.2549874E+03  0.7546771E-02  0.1110193E+00
         21   -1    0    0  502  501  0.00000000000E+00  0.00000000000E+00  0.90267792315E+02  0.90267792315E+02  0.00000000000E+00 0.  1.
         21   -1    0    0  501  502 -0.00000000000E+00 -0.00000000000E+00 -0.72028552910E+03  0.72028552910E+03  0.00000000000E+00 0.  1.
         25    1    1    2    0    0  0.36687815203E+02 -0.27848025375E+02 -0.23399202066E+03  0.26925596379E+03  0.12500000000E+03 0.  0.
         25    1    1    2    0    0 -0.11156169182E+03 -0.57169908016E+02 -0.29678595286E+03  0.34557388686E+03  0.12500000000E+03 0.  0.
         25    1    1    2    0    0  0.74873876613E+02  0.85017933391E+02 -0.99239763258E+02  0.19572347077E+03  0.12500000000E+03 0.  0.
</event>
<event>
 5    0  0.6963126E-005  0.2773029E+03  0.7546771E-02  0.1097171E+00
         21   -1    0    0  502  501  0.00000000000E+00  0.00000000000E+00  0.28872516480E+03  0.28872516480E+03  0.00000000000E+00 0.  1.
         21   -1    0    0  501  502 -0.00000000000E+00 -0.00000000000E+00 -0.26633259752E+03  0.26633259752E+03  0.00000000000E+00 0.  1.
         25    1    1    2    0    0 -0.58707738563E+02 -0.72783992276E+02  0.18469153935E+02  0.15719484007E+03  0.12500000000E+03 0.  0.
         25    1    1    2    0    0  0.12157780779E+03  0.95957836459E+02 -0.99320363947E+02  0.22243786643E+03  0.12500000000E+03 0.  0.
         25    1    1    2    0    0 -0.62870069230E+02 -0.23173844183E+02  0.10324377729E+03  0.17542505582E+03  0.12500000000E+03 0.  0.
</event>
<event>
 5    0  0.5641283E-005  0.4307513E+03  0.7546771E-02  0.1033623E+00
         21   -1    0    0  502  501  0.00000000000E+00  0.00000000000E+00  0.59279220883E+03  0.59279220883E+03  0.00000000000E+00 0.  1.
         21   -1    0    0  501  502 -0.00000000000E+00 -0.00000000000E+00 -0.31300456275E+03  0.31300456275E+03  0.00000000000E+00 0.  1.
         25    1    1    2    0    0 -0.56281219062E+02 -0.27160954863E+02  0.20778525461E+03  0.25040967458E+03  0.12500000000E+03 0.  0.
         25    1    1    2    0    0  0.74635941522E+02  0.18921963723E+03  0.27661811113E+03  0.36540001954E+03  0.12500000000E+03 0.  0.
         25    1    1    2    0    0 -0.18354722460E+02 -0.16205868236E+03 -0.20461571966E+03  0.28998707747E+03  0.12500000000E+03 0.  0.
</event>
<event>
 5    0  0.5641283E-005  0.2313140E+03  0.7546771E-02  0.1125718E+00
         21   -1    0    0  502  501  0.00000000000E+00  0.00000000000E+00  0.13451340479E+03  0.13451340479E+03  0.00000000000E+00 0.  1.
         21   -1    0    0  501  502 -0.00000000000E+00 -0.00000000000E+00 -0.39777559471E+03  0.39777559471E+03  0.00000000000E+00 0.  1.
         25    1    1    2    0    0  0.68589757220E+02 -0.63329101106E+02 -0.20617645165E+03  0.25855146307E+03  0.12500000000E+03 0.  0.
         25    1    1    2    0    0 -0.31788908620E+02  0.20787461709E+02 -0.28442238379E+02  0.13370345620E+03  0.12500000000E+03 0.  0.
         25    1    1    2    0    0 -0.36800848600E+02  0.42541639397E+02 -0.28643499890E+02  0.14003408023E+03  0.12500000000E+03 0.  0.
</event>
<event>
 5    0  0.5641283E-005  0.3005379E+03  0.7546771E-02  0.1084972E+00
         21   -1    0    0  502  501  0.00000000000E+00  0.00000000000E+00  0.11067845257E+03  0.11067845257E+03  0.00000000000E+00 0.  1.
         21   -1    0    0  501  502 -0.00000000000E+00 -0.00000000000E+00 -0.81608501295E+03  0.81608501295E+03  0.00000000000E+00 0.  1.
         25    1    1    2    0    0 -0.18134148967E+02 -0.10890929990E+03 -0.14918466429E+03  0.22376583077E+03  0.12500000000E+03 0.  0.
         25    1    1    2    0    0 -0.64209622915E+02  0.45120255809E+02 -0.51418024142E+03  0.53494395391E+03  0.12500000000E+03 0.  0.
         25    1    1    2    0    0  0.82343771881E+02  0.63789044092E+02 -0.42041654671E+02  0.16805368083E+03  0.12500000000E+03 0.  0.
</event>
<event>
 5    0  0.5641283E-005  0.2640616E+03  0.7546771E-02  0.1104727E+00
         21   -1    0    0  502  501  0.00000000000E+00  0.00000000000E+00  0.35624708396E+03  0.35624708396E+03  0.00000000000E+00 0.  1.
         21   -1    0    0  501  502 -0.00000000000E+00 -0.00000000000E+00 -0.19573073141E+03  0.19573073141E+03  0.00000000000E+00 0.  1.
         25    1    1    2    0    0 -0.11770374411E+02 -0.14635947124E+03  0.12680200177E+03  0.23078861364E+03  0.12500000000E+03 0.  0.
         25    1    1    2    0    0  0.14322288549E+02  0.93361864632E+02  0.82287687987E+02  0.17696844157E+03  0.12500000000E+03 0.  0.
         25    1    1    2    0    0 -0.25519141378E+01  0.52997606605E+02 -0.48573337209E+02  0.14422076015E+03  0.12500000000E+03 0.  0.
</event>
<event>
 5    0  0.5641283E-005  0.3428041E+03  0.7546771E-02  0.1065608E+00
         21   -1    0    0  502  501  0.00000000000E+00  0.00000000000E+00  0.94442286235E+03  0.94442286235E+03  0.00000000000E+00 0.  1.
         21   -1    0    0  501  502 -0.00000000000E+00 -0.00000000000E+00 -0.12443011329E+03  0.12443011329E+03  0.00000000000E+00 0.  1.
         25    1    1    2    0    0  0.14364182027E+03 -0.92930652647E+02  0.27432544441E+03  0.34662447718E+03  0.12500000000E+03 0.  0.
         25    1    1    2    0    0 -0.24502762067E+03 -0.20345783454E+02  0.33478293363E+03  0.43377079022E+03  0.12500000000E+03 0.  0.
         25    1    1    2    0    0  0.10138580041E+03  0.11327643610E+03  0.21088437102E+03  0.28845770824E+03  0.12500000000E+03 0.  0.
</event>
<event>
 5    0  0.5641283E-005  0.3804598E+03  0.7546771E-02  0.1050764E+00
         21   -1    0    0  502  501  0.00000000000E+00  0.00000000000E+00  0.12828753915E+04  0.12828753915E+04  0.00000000000E+00 0.  1.
         21   -1    0    0  501  502 -0.00000000000E+00 -0.00000000000E+00 -0.11283218992E+03  0.11283218992E+03  0.00000000000E+00 0.  1.
         25    1    1    2    0    0 -0.75639494846E+02  0.85953605417E+02  0.27476935025E+03  0.32285066408E+03  0.12500000000E+03 0.  0.
         25    1    1    2    0    0  0.44540732904E+02 -0.21808296216E+03  0.84338368627E+03  0.88117256967E+03  0.12500000000E+03 0.  0.
         25    1    1    2    0    0  0.31098761941E+02  0.13212935674E+03  0.51890165066E+02  0.19168434766E+03  0.12500000000E+03 0.  0.
</event>
<event>
 5    0  0.5641283E-005  0.2559463E+03  0.7546771E-02  0.1109604E+00
         21   -1    0    0  502  501  0.00000000000E+00  0.00000000000E+00  0.66290808244E+02  0.66290808244E+02  0.00000000000E+00 0. -1.
         21   -1    0    0  501  502 -0.00000000000E+00 -0.00000000000E+00 -0.98819862358E+03  0.98819862358E+03  0.00000000000E+00 0. -1.
         25    1    1    2    0    0 -0.21122732038E+02 -0.99667267595E+01 -0.12512408679E+03  0.17839995109E+03  0.12500000000E+03 0.  0.
         25    1    1    2    0    0 -0.16456595926E+02  0.10094031805E+03 -0.19283413768E+03  0.25153483260E+03  0.12500000000E+03 0.  0.
         25    1    1    2    0    0  0.37579327964E+02 -0.90973591295E+02 -0.60394959087E+03  0.62455464814E+03  0.12500000000E+03 0.  0.
</event>
<event>
 5    0  0.5641283E-005  0.2620181E+03  0.7546771E-02  0.1105937E+00
         21   -1    0    0  502  501  0.00000000000E+00  0.00000000000E+00  0.34116910103E+03  0.34116910103E+03  0.00000000000E+00 0.  1.
         21   -1    0    0  501  502 -0.00000000000E+00 -0.00000000000E+00 -0.20123011031E+03  0.20123011031E+03  0.00000000000E+00 0.  1.
         25    1    1    2    0    0 -0.15776699385E+02  0.11403716544E+03  0.16672537051E+02  0.17075231430E+03  0.12500000000E+03 0.  0.
         25    1    1    2    0    0  0.10604561550E+03 -0.34025495946E+02  0.10347315515E+03  0.19681234915E+03  0.12500000000E+03 0.  0.
         25    1    1    2    0    0 -0.90268916112E+02 -0.80011669497E+02  0.19793298523E+02  0.17483454790E+03  0.12500000000E+03 0.  0.
</event>
<event>
 5    0  0.5641283E-005  0.2811681E+03  0.7546771E-02  0.1095053E+00
         21   -1    0    0  502  501  0.00000000000E+00  0.00000000000E+00  0.76167194199E+03  0.76167194199E+03  0.00000000000E+00 0. -1.
         21   -1    0    0  501  502 -0.00000000000E+00 -0.00000000000E+00 -0.10379209682E+03  0.10379209682E+03  0.00000000000E+00 0. -1.
         25    1    1    2    0    0 -0.64210033715E+02 -0.13521686593E+03  0.15645185119E+03  0.25001742140E+03  0.12500000000E+03 0.  0.
         25    1    1    2    0    0  0.10866377824E+03  0.11738129939E+03  0.19695897904E+03  0.28284982866E+03  0.12500000000E+03 0.  0.
         25    1    1    2    0    0 -0.44453744525E+02  0.17835566539E+02  0.30446901494E+03  0.33259678876E+03  0.12500000000E+03 0.  0.
</event>
<event>
 5    0  0.5641283E-005  0.3444062E+03  0.7546771E-02  0.1064935E+00
         21   -1    0    0  502  501  0.00000000000E+00  0.00000000000E+00  0.83192431616E+02  0.83192431616E+02  0.00000000000E+00 0.  1.
         21   -1    0    0  501  502 -0.00000000000E+00 -0.00000000000E+00 -0.14257987130E+04  0.14257987130E+04  0.00000000000E+00 0.  1.
         25    1    1    2    0    0  0.15222278711E+03  0.16475798478E+03 -0.86063200733E+03  0.89812550487E+03  0.12500000000E+03 0.  0.
         25    1    1    2    0    0 -0.12047278359E+03 -0.10405451157E+03 -0.15749500769E+03  0.25645800906E+03  0.12500000000E+03 0.  0.
         25    1    1    2    0    0 -0.31750003515E+02 -0.60703473211E+02 -0.32447926634E+03  0.35440763066E+03  0.12500000000E+03 0.  0.
</event>
<event>
 5    0  0.7207873E-005  0.3482003E+03  0.7546771E-02  0.1063356E+00
         21   -1    0    0  502  501  0.00000000000E+00  0.00000000000E+00  0.18925992766E+03  0.18925992766E+03  0.00000000000E+00 0.  1.
         21   -1    0    0  501  502 -0.00000000000E+00 -0.00000000000E+00 -0.64061885008E+03  0.64061885008E+03  0.00000000000E+00 0.  1.
         25    1    1    2    0    0  0.11816755478E+03 -0.82917982741E+02 -0.20550545665E+03  0.28052888546E+03  0.12500000000E+03 0.  0.
         25    1    1    2    0    0 -0.15563703357E+03  0.51516534698E+02 -0.33132340824E+03  0.39022690887E+03  0.12500000000E+03 0.  0.
         25    1    1    2    0    0  0.37469478793E+02  0.31401448043E+02  0.85469942468E+02  0.15912298340E+03  0.12500000000E+03 0.  0.
</event>
<event>
 5    0  0.5641283E-005  0.3233681E+03  0.7546771E-02  0.1074110E+00
         21   -1    0    0  502  501  0.00000000000E+00  0.00000000000E+00  0.13853885263E+03  0.13853885263E+03  0.00000000000E+00 0.  1.
         21   -1    0    0  501  502 -0.00000000000E+00 -0.00000000000E+00 -0.75478397845E+03  0.75478397845E+03  0.00000000000E+00 0.  1.
         25    1    1    2    0    0 -0.53948187515E+02  0.67054525193E+02 -0.29342028209E+03  0.33034403010E+03  0.12500000000E+03 0.  0.
         25    1    1    2    0    0  0.20974325732E+03 -0.89810651920E+02 -0.18534983265E+03  0.31943347923E+03  0.12500000000E+03 0.  0.
         25    1    1    2    0    0 -0.15579506980E+03  0.22756126727E+02 -0.13747501108E+03  0.24354532175E+03  0.12500000000E+03 0.  0.
</event>
<event>
 5    0  0.5641283E-005  0.3501583E+03  0.7546771E-02  0.1062550E+00
         21   -1    0    0  502  501  0.00000000000E+00  0.00000000000E+00  0.48772108431E+03  0.48772108431E+03  0.00000000000E+00 0. -1.
         21   -1    0    0  501  502 -0.00000000000E+00 -0.00000000000E+00 -0.25139543022E+03  0.25139543022E+03  0.00000000000E+00 0. -1.
         25    1    1    2    0    0  0.76304511061E+02  0.89608582757E+02  0.27031812751E+03  0.32023267568E+03  0.12500000000E+03 0.  0.
         25    1    1    2    0    0  0.67198764000E+02  0.73379118734E+02 -0.51088630759E+02  0.16773555718E+03  0.12500000000E+03 0.  0.
         25    1    1    2    0    0 -0.14350327506E+03 -0.16298770149E+03  0.17096157337E+02  0.25114828167E+03  0.12500000000E+03 0.  0.
</event>
<event>
 5    0  0.5641283E-005  0.2958341E+03  0.7546771E-02  0.1087342E+00
         21   -1    0    0  502  501  0.00000000000E+00  0.00000000000E+00  0.36628514393E+03  0.36628514393E+03  0.00000000000E+00 0.  1.
         21   -1    0    0  501  502 -0.00000000000E+00 -0.00000000000E+00 -0.23893352872E+03  0.23893352872E+03  0.00000000000E+00 0.  1.
         25    1    1    2    0    0 -0.14443926088E+03  0.16183841593E+03  0.90928936313E+02  0.26635961483E+03  0.12500000000E+03 0.  0.
         25    1    1    2    0    0  0.37680459085E+02 -0.61670378584E+02  0.14469302195E+02  0.14511172695E+03  0.12500000000E+03 0.  0.
         25    1    1    2    0    0  0.10675880180E+03 -0.10016803735E+03  0.21953376702E+02  0.19374733086E+03  0.12500000000E+03 0.  0.
</event>
<event>
 5    0  0.5641283E-005  0.4263400E+03  0.7546771E-02  0.1035022E+00
         21   -1    0    0  502  501  0.00000000000E+00  0.00000000000E+00  0.42484113545E+03  0.42484113545E+03  0.00000000000E+00 0. -1.
         21   -1    0    0  501  502 -0.00000000000E+00 -0.00000000000E+00 -0.42784418559E+03  0.42784418559E+03  0.00000000000E+00 0. -1.
         25    1    1    2    0    0  0.12664788498E+03  0.39027064224E+02 -0.13992862077E+03  0.22971246684E+03  0.12500000000E+03 0.  0.
         25    1    1    2    0    0  0.74888534925E+01  0.15866062744E+02  0.32865742561E+03  0.35206323052E+03  0.12500000000E+03 0.  0.
         25    1    1    2    0    0 -0.13413673847E+03 -0.54893126968E+02 -0.19173185498E+03  0.27090962369E+03  0.12500000000E+03 0.  0.
</event>
<event>
 5    0  0.5641283E-005  0.4124206E+03  0.7546771E-02  0.1039562E+00
         21   -1    0    0  502  501  0.00000000000E+00  0.00000000000E+00  0.34469402919E+03  0.34469402919E+03  0.00000000000E+00 0.  1.
         21   -1    0    0  501  502 -0.00000000000E+00 -0.00000000000E+00 -0.49345425997E+03  0.49345425997E+03  0.00000000000E+00 0.  1.
         25    1    1    2    0    0  0.68774113948E+02  0.25164740610E+03 -0.15517085745E+03  0.32826710275E+03  0.12500000000E+03 0.  0.
         25    1    1    2    0    0 -0.16922485888E+03  0.92252541876E+00  0.10911230230E+02  0.21067026098E+03  0.12500000000E+03 0.  0.
         25    1    1    2    0    0  0.10045074493E+03 -0.25256993152E+03 -0.45006035642E+01  0.29921092543E+03  0.12500000000E+03 0.  0.
</event>
<event>
 5    0  0.5641283E-005  0.4358515E+03  0.7546771E-02  0.1032027E+00
         21   -1    0    0  502  501  0.00000000000E+00  0.00000000000E+00  0.54221994681E+03  0.54221994681E+03  0.00000000000E+00 0. -1.
         21   -1    0    0  501  502 -0.00000000000E+00 -0.00000000000E+00 -0.35034954015E+03  0.35034954015E+03  0.00000000000E+00 0. -1.
         25    1    1    2    0    0  0.21365384955E+03 -0.28601258834E+03  0.31622618695E+02  0.37957365310E+03  0.12500000000E+03 0.  0.
         25    1    1    2    0    0 -0.20228346487E+03  0.12221992193E+03  0.30151900266E+02  0.26905472783E+03  0.12500000000E+03 0.  0.
         25    1    1    2    0    0 -0.11370384673E+02  0.16379266641E+03  0.13009588770E+03  0.24394110604E+03  0.12500000000E+03 0.  0.
</event>
<event>
 5    0  0.5641283E-005  0.3273161E+03  0.7546771E-02  0.1072331E+00
         21   -1    0    0  502  501  0.00000000000E+00  0.00000000000E+00  0.20736086944E+04  0.20736086944E+04  0.00000000000E+00 0. -1.
         21   -1    0    0  501  502 -0.00000000000E+00 -0.00000000000E+00 -0.51666358049E+02  0.51666358049E+02  0.00000000000E+00 0. -1.
         25    1    1    2    0    0 -0.18276678725E+03  0.12607437073E+03  0.48640832444E+03  0.54910518443E+03  0.12500000000E+03 0.  0.
         25    1    1    2    0    0  0.14162257565E+03 -0.67046329298E+02  0.69402883863E+03  0.72239407047E+03  0.12500000000E+03 0.  0.
         25    1    1    2    0    0  0.41144211604E+02 -0.59028041433E+02  0.84150517332E+03  0.85377579759E+03  0.12500000000E+03 0.  0.
</event>
<event>
 5    0  0.5641283E-005  0.5040677E+03  0.7546771E-02  0.1012723E+00
         21   -1    0    0  502  501  0.00000000000E+00  0.00000000000E+00  0.10142522855E+04  0.10142522855E+04  0.00000000000E+00 0.  1.
         21   -1    0    0  501  502 -0.00000000000E+00 -0.00000000000E+00 -0.25051385237E+03  0.25051385237E+03  0.00000000000E+00 0.  1.
         25    1    1    2    0    0 -0.18898817336E+03 -0.30153399765E+03  0.48912854468E+03  0.61766577906E+03  0.12500000000E+03 0.  0.
         25    1    1    2    0    0  0.11630053700E+03  0.26797083662E+03  0.35651743029E+03  0.47756032319E+03  0.12500000000E+03 0.  0.
         25    1    1    2    0    0  0.72687636358E+02  0.33563161026E+02 -0.81907541863E+02  0.16954003560E+03  0.12500000000E+03 0.  0.
</event>
<event>
 5    0  0.5641283E-005  0.4039716E+03  0.7546771E-02  0.1042413E+00
         21   -1    0    0  502  501  0.00000000000E+00  0.00000000000E+00  0.76111708375E+02  0.76111708375E+02  0.00000000000E+00 0. -1.
         21   -1    0    0  501  502 -0.00000000000E+00 -0.00000000000E+00 -0.21441250195E+04  0.21441250195E+04  0.00000000000E+00 0. -1.
         25    1    1    2    0    0 -0.55702401958E+02  0.16234435899E+03 -0.14746838505E+04  0.14898912401E+04  0.12500000000E+03 0.  0.
         25    1    1    2    0    0  0.12154929559E+03 -0.15646597325E+03 -0.18586749696E+03  0.29904440886E+03  0.12500000000E+03 0.  0.
         25    1    1    2    0    0 -0.65846893633E+02 -0.58783857424E+01 -0.40746196366E+03  0.43130107889E+03  0.12500000000E+03 0.  0.
</event>
<event>
 5    0  0.5641283E-005  0.2247967E+03  0.7546771E-02  0.1130357E+00
         21   -1    0    0  502  501  0.00000000000E+00  0.00000000000E+00  0.10309106631E+03  0.10309106631E+03  0.00000000000E+00 0. -1.
         21   -1    0    0  501  502 -0.00000000000E+00 -0.00000000000E+00 -0.49018385756E+03  0.49018385756E+03  0.00000000000E+00 0. -1.
         25    1    1    2    0    0  0.73364156346E+02  0.38122216471E+02 -0.12521818740E+03  0.19529515427E+03  0.12500000000E+03 0.  0.
         25    1    1    2    0    0 -0.73039193589E+02 -0.77601683194E+02 -0.17873674918E+03  0.24275207629E+03  0.12500000000E+03 0.  0.
         25    1    1    2    0    0 -0.32496275687E+00  0.39479466723E+02 -0.83137854681E+02  0.15522769332E+03  0.12500000000E+03 0.  0.
</event>
<event>
 5    0  0.5641283E-005  0.2791491E+03  0.7546771E-02  0.1096155E+00
         21   -1    0    0  502  501  0.00000000000E+00  0.00000000000E+00  0.15180607044E+03  0.15180607044E+03  0.00000000000E+00 0. -1.
         21   -1    0    0  501  502 -0.00000000000E+00 -0.00000000000E+00 -0.51331436784E+03  0.51331436784E+03  0.00000000000E+00 0. -1.
         25    1    1    2    0    0  0.13943806578E+03 -0.22181137044E+02 -0.18566580831E+03  0.26463516283E+03  0.12500000000E+03 0.  0.
         25    1    1    2    0    0 -0.16005507374E+03  0.41629260397E+02 -0.35328010304E+02  0.21029429442E+03  0.12500000000E+03 0.  0.
         25    1    1    2    0    0  0.20617007964E+02 -0.19448123353E+02 -0.14051447879E+03  0.19019098104E+03  0.12500000000E+03 0.  0.
</event>
<event>
 5    0  0.5641283E-005  0.4558157E+03  0.7546771E-02  0.1026002E+00
         21   -1    0    0  502  501  0.00000000000E+00  0.00000000000E+00  0.22812438883E+03  0.22812438883E+03  0.00000000000E+00 0. -1.
         21   -1    0    0  501  502 -0.00000000000E+00 -0.00000000000E+00 -0.91076611379E+03  0.91076611379E+03  0.00000000000E+00 0. -1.
         25    1    1    2    0    0 -0.27671212641E+03  0.68557648472E+02 -0.28297254877E+03  0.42067590307E+03  0.12500000000E+03 0.  0.
         25    1    1    2    0    0  0.20306843354E+03 -0.17976078857E+03 -0.22968868507E+02  0.29950508965E+03  0.12500000000E+03 0.  0.
         25    1    1    2    0    0  0.73643692875E+02  0.11120314009E+03 -0.37670030768E+03  0.41870950989E+03  0.12500000000E+03 0.  0.
</event>
<event>
 5    0  0.5641283E-005  0.2764616E+03  0.7546771E-02  0.1097637E+00
         21   -1    0    0  502  501  0.00000000000E+00  0.00000000000E+00  0.13392128154E+04  0.13392128154E+04  0.00000000000E+00 0.  1.
         21   -1    0    0  501  502 -0.00000000000E+00 -0.00000000000E+00 -0.57071608461E+02  0.57071608461E+02  0.00000000000E+00 0.  1.
         25    1    1    2    0    0 -0.91450324825E+02 -0.13549001394E+03  0.58544265384E+03  0.62055524067E+03  0.12500000000E+03 0.  0.
         25    1    1    2    0    0 -0.34111834650E+02  0.52036558619E+02  0.36124031995E+03  0.38728670188E+03  0.12500000000E+03 0.  0.
         25    1    1    2    0    0  0.12556215947E+03  0.83453455321E+02  0.33545823313E+03  0.38844248129E+03  0.12500000000E+03 0.  0.
</event>
<event>
 5    0  0.5641283E-005  0.2195153E+03  0.7546771E-02  0.1134245E+00
         21   -1    0    0  502  501  0.00000000000E+00  0.00000000000E+00  0.24621543628E+02  0.24621543628E+02  0.00000000000E+00 0. -1.
         21   -1    0    0  501  502 -0.00000000000E+00 -0.00000000000E+00 -0.19571053205E+04  0.19571053205E+04  0.00000000000E+00 0. -1.
         25    1    1    2    0    0  0.29693152085E+02 -0.98994815314E+02 -0.78418216150E+03  0.80077981940E+03  0.12500000000E+03 0.  0.
         25    1    1    2    0    0 -0.33562459582E+02  0.68263838881E+02 -0.65090035588E+03  0.66714515937E+03  0.12500000000E+03 0.  0.
         25    1    1    2    0    0  0.38693074970E+01  0.30730976433E+02 -0.49740125954E+03  0.51380188541E+03  0.12500000000E+03 0.  0.
</event>
<event>
 5    0  0.5641283E-005  0.4160889E+03  0.7546771E-02  0.1038347E+00
         21   -1    0    0  502  501  0.00000000000E+00  0.00000000000E+00  0.82146716513E+02  0.82146716513E+02  0.00000000000E+00 0.  1.
         21   -1    0    0  501  502 -0.00000000000E+00 -0.00000000000E+00 -0.21075699767E+04  0.21075699767E+04  0.00000000000E+00 0.  1.
         25    1    1    2    0    0 -0.15846437289E+03 -0.24397417381E+02 -0.14342416676E+04  0.14485787354E+04  0.12500000000E+03 0.  0.
         25    1    1    2    0    0 -0.58301258085E+02  0.11338498268E+03 -0.19741646699E+03  0.26618311823E+03  0.12500000000E+03 0.  0.
         25    1    1    2    0    0  0.21676563097E+03 -0.88987565303E+02 -0.39376512562E+03  0.47495483964E+03  0.12500000000E+03 0.  0.
</event>
<event>
 5    0  0.5641283E-005  0.2623334E+03  0.7546771E-02  0.1105749E+00
         21   -1    0    0  502  501  0.00000000000E+00  0.00000000000E+00  0.56249014972E+02  0.56249014972E+02  0.00000000000E+00 0. -1.
         21   -1    0    0  501  502 -0.00000000000E+00 -0.00000000000E+00 -0.12234668848E+04  0.12234668848E+04  0.00000000000E+00 0. -1.
         25    1    1    2    0    0 -0.56338391793E+02  0.47375329899E+02 -0.31254871983E+03  0.34457239956E+03  0.12500000000E+03 0.  0.
         25    1    1    2    0    0  0.16202027488E+03  0.84855807065E+01 -0.50773023263E+03  0.54748293460E+03  0.12500000000E+03 0.  0.
         25    1    1    2    0    0 -0.10568188308E+03 -0.55860910606E+02 -0.34693891739E+03  0.38766056563E+03  0.12500000000E+03 0.  0.
</event>
<event>
 5    0  0.5641283E-005  0.3115562E+03  0.7546771E-02  0.1079602E+00
         21   -1    0    0  502  501  0.00000000000E+00  0.00000000000E+00  0.72522271155E+02  0.72522271155E+02  0.00000000000E+00 0.  1.
         21   -1    0    0  501  502 -0.00000000000E+00 -0.00000000000E+00 -0.13384478945E+04  0.13384478945E+04  0.00000000000E+00 0.  1.
         25    1    1    2    0    0  0.51154593477E+01  0.17498715500E+03 -0.36451380114E+03  0.42325167875E+03  0.12500000000E+03 0.  0.
         25    1    1    2    0    0  0.16835142173E+02 -0.46042979941E+02 -0.10344188518E+03  0.16949513746E+03  0.12500000000E+03 0.  0.
         25    1    1    2    0    0 -0.21950601521E+02 -0.12894417506E+03 -0.79796993706E+03  0.81822334948E+03  0.12500000000E+03 0.  0.
</event>
<event>
 5    0  0.5641283E-005  0.3391344E+03  0.7546771E-02  0.1067165E+00
         21   -1    0    0  502  501  0.00000000000E+00  0.00000000000E+00  0.77102685859E+02  0.77102685859E+02  0.00000000000E+00 0.  1.
         21   -1    0    0  501  502 -0.00000000000E+00 -0.00000000000E+00 -0.14916744951E+04  0.14916744951E+04  0.00000000000E+00 0.  1.
         25    1    1    2    0    0 -0.73977437592E+02  0.11719480637E+03 -0.15092644717E+03  0.24002307466E+03  0.12500000000E+03 0.  0.
         25    1    1    2    0    0  0.71544202998E+02 -0.20958749926E+03 -0.83007078258E+03  0.86815205864E+03  0.12500000000E+03 0.  0.
         25    1    1    2    0    0  0.24332345939E+01  0.92392692895E+02 -0.43357457950E+03  0.46060204767E+03  0.12500000000E+03 0.  0.
</event>
<event>
 5    0  0.5641283E-005  0.3097056E+03  0.7546771E-02  0.1080487E+00
         21   -1    0    0  502  501  0.00000000000E+00  0.00000000000E+00  0.88029581572E+03  0.88029581572E+03  0.00000000000E+00 0.  1.
         21   -1    0    0  501  502 -0.00000000000E+00 -0.00000000000E+00 -0.10896063082E+03  0.10896063082E+03  0.00000000000E+00 0.  1.
         25    1    1    2    0    0 -0.66384280199E+01 -0.11650914939E+03  0.48684714091E+02  0.17780228346E+03  0.12500000000E+03 0.  0.
         25    1    1    2    0    0 -0.79290758276E+02  0.15034105504E+03  0.36689275320E+03  0.42323131918E+03  0.12500000000E+03 0.  0.
         25    1    1    2    0    0  0.85929186296E+02 -0.33831905643E+02  0.35575771760E+03  0.38822284391E+03  0.12500000000E+03 0.  0.
</event>
<event>
 5    0  0.5827575E-005  0.3512286E+03  0.7546771E-02  0.1062112E+00
         21   -1    0    0  502  501  0.00000000000E+00  0.00000000000E+00  0.54258969309E+03  0.54258969309E+03  0.00000000000E+00 0. -1.
         21   -1    0    0  501  502 -0.00000000000E+00 -0.00000000000E+00 -0.22735691073E+03  0.22735691073E+03  0.00000000000E+00 0. -1.
         25    1    1    2    0    0 -0.12683659038E+03  0.35703752356E+02  0.12603010133E+03  0.22106755762E+03  0.12500000000E+03 0.  0.
         25    1    1    2    0    0 -0.46636604344E+02 -0.19049698393E+03  0.15915834416E+02  0.23311453737E+03  0.12500000000E+03 0.  0.
         25    1    1    2    0    0  0.17347319472E+03  0.15479323157E+03  0.17328684661E+03  0.31576450883E+03  0.12500000000E+03 0.  0.
</event>
<event>
 5    0  0.6574329E-005  0.2786333E+03  0.7546771E-02  0.1096438E+00
         21   -1    0    0  502  501  0.00000000000E+00  0.00000000000E+00  0.17245139701E+03  0.17245139701E+03  0.00000000000E+00 0.  1.
         21   -1    0    0  501  502 -0.00000000000E+00 -0.00000000000E+00 -0.45019348869E+03  0.45019348869E+03  0.00000000000E+00 0.  1.
         25    1    1    2    0    0 -0.15412043950E+03  0.50600635577E+02 -0.10291148981E+02  0.20504741388E+03  0.12500000000E+03 0.  0.
         25    1    1    2    0    0  0.68195634910E+02 -0.18673285797E+02 -0.53191139116E+02  0.15314579166E+03  0.12500000000E+03 0.  0.
         25    1    1    2    0    0  0.85924804587E+02 -0.31927349780E+02 -0.21425980358E+03  0.26445168016E+03  0.12500000000E+03 0.  0.
</event>
<event>
 5    0  0.5641283E-005  0.2625909E+03  0.7546771E-02  0.1105597E+00
         21   -1    0    0  502  501  0.00000000000E+00  0.00000000000E+00  0.15164263490E+03  0.15164263490E+03  0.00000000000E+00 0.  1.
         21   -1    0    0  501  502 -0.00000000000E+00 -0.00000000000E+00 -0.45471353713E+03  0.45471353713E+03  0.00000000000E+00 0.  1.
         25    1    1    2    0    0 -0.14209469034E+03  0.68591985979E+02 -0.10399683787E+03  0.22657472023E+03  0.12500000000E+03 0.  0.
         25    1    1    2    0    0  0.98026933488E+02  0.17991917408E+02 -0.13405223475E+03  0.20863362726E+03  0.12500000000E+03 0.  0.
         25    1    1    2    0    0  0.44067756848E+02 -0.86583903386E+02 -0.65021829611E+02  0.17114782454E+03  0.12500000000E+03 0.  0.
</event>
<event>
 5    0  0.5641283E-005  0.2988010E+03  0.7546771E-02  0.1085841E+00
         21   -1    0    0  502  501  0.00000000000E+00  0.00000000000E+00  0.36060502181E+03  0.36060502181E+03  0.00000000000E+00 0.  1.
         21   -1    0    0  501  502 -0.00000000000E+00 -0.00000000000E+00 -0.24758962397E+03  0.24758962397E+03  0.00000000000E+00 0.  1.
         25    1    1    2    0    0  0.16366831384E+03 -0.91162479716E+02 -0.17779535391E+02  0.22591818550E+03  0.12500000000E+03 0.  0.
         25    1    1    2    0    0 -0.11319230148E+03  0.13379003862E+03  0.10103471848E+03  0.23779252698E+03  0.12500000000E+03 0.  0.
         25    1    1    2    0    0 -0.50476012351E+02 -0.42627558903E+02  0.29760214750E+02  0.14448393330E+03  0.12500000000E+03 0.  0.
</event>
<event>
 5    0  0.7329793E-005  0.5651713E+03  0.7546771E-02  0.9980421E-01
         21   -1    0    0  502  501  0.00000000000E+00  0.00000000000E+00  0.11435864491E+04  0.11435864491E+04  0.00000000000E+00 0.  1.
         21   -1    0    0  501  502 -0.00000000000E+00 -0.00000000000E+00 -0.27931300158E+03  0.27931300158E+03  0.00000000000E+00 0.  1.
         25    1    1    2    0    0  0.37882168171E+03 -0.76485516667E+01  0.19198770357E+03  0.44277380817E+03  0.12500000000E+03 0.  0.
         25    1    1    2    0    0 -0.18839558075E+03 -0.12457531947E+03  0.66861605265E+03  0.71671774844E+03  0.12500000000E+03 0.  0.
         25    1    1    2    0    0 -0.19042610097E+03  0.13222387114E+03  0.36696913138E+01  0.26340789408E+03  0.12500000000E+03 0.  0.
</event>
<event>
 5    0  0.5641283E-005  0.1968545E+03  0.7546771E-02  0.1152420E+00
         21   -1    0    0  502  501  0.00000000000E+00  0.00000000000E+00  0.38540977900E+03  0.38540977900E+03  0.00000000000E+00 0. -1.
         21   -1    0    0  501  502 -0.00000000000E+00 -0.00000000000E+00 -0.10054670038E+03  0.10054670038E+03  0.00000000000E+00 0. -1.
         25    1    1    2    0    0  0.98415201451E+01 -0.18123403096E+02  0.91198431449E+02  0.15610082369E+03  0.12500000000E+03 0.  0.
         25    1    1    2    0    0  0.39133314071E+02 -0.19924817366E+01  0.10252665999E+03  0.16634933803E+03  0.12500000000E+03 0.  0.
         25    1    1    2    0    0 -0.48974834216E+02  0.20115884833E+02  0.91137987178E+02  0.16350631766E+03  0.12500000000E+03 0.  0.
</event>
<event>
 5    0  0.5641283E-005  0.3233090E+03  0.7546771E-02  0.1074136E+00
         21   -1    0    0  502  501  0.00000000000E+00  0.00000000000E+00  0.13266946523E+03  0.13266946523E+03  0.00000000000E+00 0. -1.
         21   -1    0    0  501  502 -0.00000000000E+00 -0.00000000000E+00 -0.78788828066E+03  0.78788828066E+03  0.00000000000E+00 0. -1.
         25    1    1    2    0    0  0.44125542389E+01 -0.88253347092E+02 -0.60118547457E+02  0.16446082712E+03  0.12500000000E+03 0.  0.
         25    1    1    2    0    0  0.11064828298E+03 -0.15138107913E+01 -0.52606725020E+03  0.55192126783E+03  0.12500000000E+03 0.  0.
         25    1    1    2    0    0 -0.11506083722E+03  0.89767157883E+02 -0.69033017776E+02  0.20417565095E+03  0.12500000000E+03 0.  0.
</event>
<event>
 5    0  0.6693845E-005  0.3565741E+03  0.7546771E-02  0.1059949E+00
         21   -1    0    0  502  501  0.00000000000E+00  0.00000000000E+00  0.56047911572E+03  0.56047911572E+03  0.00000000000E+00 0. -1.
         21   -1    0    0  501  502 -0.00000000000E+00 -0.00000000000E+00 -0.22685070393E+03  0.22685070393E+03  0.00000000000E+00 0. -1.
         25    1    1    2    0    0  0.18539751638E+03 -0.52377834977E+02  0.19657304304E+03  0.30229395946E+03  0.12500000000E+03 0.  0.
         25    1    1    2    0    0 -0.34854908867E+02  0.17480035466E+03  0.13112886765E+03  0.25414525098E+03  0.12500000000E+03 0.  0.
         25    1    1    2    0    0 -0.15054260752E+03 -0.12242251969E+03  0.59265011038E+01  0.23089060921E+03  0.12500000000E+03 0.  0.
</event>
<event>
 5    0  0.5641283E-005  0.3480725E+03  0.7546771E-02  0.1063409E+00
         21   -1    0    0  502  501  0.00000000000E+00  0.00000000000E+00  0.26767790193E+03  0.26767790193E+03  0.00000000000E+00 0. -1.
         21   -1    0    0  501  502 -0.00000000000E+00 -0.00000000000E+00 -0.45261298844E+03  0.45261298844E+03  0.00000000000E+00 0. -1.
         25    1    1    2    0    0 -0.50969296834E+02  0.71773517123E+02  0.11790905721E+03  0.19307214390E+03  0.12500000000E+03 0.  0.
         25    1    1    2    0    0  0.25988312241E+02 -0.36515019382E+02 -0.35957138569E+03  0.38330838814E+03  0.12500000000E+03 0.  0.
         25    1    1    2    0    0  0.24980984594E+02 -0.35258497741E+02  0.56727241966E+02  0.14391035833E+03  0.12500000000E+03 0.  0.
</event>
<event>
 5    0  0.5641283E-005  0.4070981E+03  0.7546771E-02  0.1041349E+00
         21   -1    0    0  502  501  0.00000000000E+00  0.00000000000E+00  0.28299924018E+03  0.28299924018E+03  0.00000000000E+00 0. -1.
         21   -1    0    0  501  502 -0.00000000000E+00 -0.00000000000E+00 -0.58561604648E+03  0.58561604648E+03  0.00000000000E+00 0. -1.
         25    1    1    2    0    0 -0.27670310733E+03 -0.10023516279E+03 -0.12719129616E+03  0.34411382315E+03  0.12500000000E+03 0.  0.
         25    1    1    2    0    0  0.14558157593E+03  0.17080205295E+02 -0.24652860251E+03  0.31286911084E+03  0.12500000000E+03 0.  0.
         25    1    1    2    0    0  0.13112153140E+03  0.83154957497E+02  0.71103092368E+02  0.21163235267E+03  0.12500000000E+03 0.  0.
</event>
<event>
 5    0  0.5641283E-005  0.3315645E+03  0.7546771E-02  0.1070447E+00
         21   -1    0    0  502  501  0.00000000000E+00  0.00000000000E+00  0.69305603545E+03  0.69305603545E+03  0.00000000000E+00 0.  1.
         21   -1    0    0  501  502 -0.00000000000E+00 -0.00000000000E+00 -0.15862357691E+03  0.15862357691E+03  0.00000000000E+00 0.  1.
         25    1    1    2    0    0 -0.70973355987E+02  0.38192882957E+02  0.23841251059E+03  0.28100078074E+03  0.12500000000E+03 0.  0.
         25    1    1    2    0    0  0.89765779997E+02 -0.14766049826E+03  0.33671953860E+03  0.39858068904E+03  0.12500000000E+03 0.  0.
         25    1    1    2    0    0 -0.18792424010E+02  0.10946761531E+03 -0.40699590647E+02  0.17209814258E+03  0.12500000000E+03 0.  0.
</event>
<event>
 5    0  0.5641283E-005  0.3378352E+03  0.7546771E-02  0.1067722E+00
         21   -1    0    0  502  501  0.00000000000E+00  0.00000000000E+00  0.46586410730E+03  0.46586410730E+03  0.00000000000E+00 0. -1.
         21   -1    0    0  501  502 -0.00000000000E+00 -0.00000000000E+00 -0.24499124532E+03  0.24499124532E+03  0.00000000000E+00 0. -1.
         25    1    1    2    0    0  0.11362845938E+03 -0.23098865702E+03  0.31132454578E+02  0.28785658961E+03  0.12500000000E+03 0.  0.
         25    1    1    2    0    0 -0.73890833327E+02  0.51723379596E+02  0.57688515760E+02  0.16458471404E+03  0.12500000000E+03 0.  0.
         25    1    1    2    0    0 -0.39737626056E+02  0.17926527742E+03  0.13205189165E+03  0.25841404897E+03  0.12500000000E+03 0.  0.
</event>
<event>
 5    0  0.5641283E-005  0.3913683E+03  0.7546771E-02  0.1046810E+00
         21   -1    0    0  502  501  0.00000000000E+00  0.00000000000E+00  0.92953016274E+02  0.92953016274E+02  0.00000000000E+00 0. -1.
         21   -1    0    0  501  502 -0.00000000000E+00 -0.00000000000E+00 -0.16478122004E+04  0.16478122004E+04  0.00000000000E+00 0. -1.
         25    1    1    2    0    0  0.10524297700E+03  0.11664152133E+03 -0.39487453382E+03  0.44298106750E+03  0.12500000000E+03 0.  0.
         25    1    1    2    0    0  0.10547919187E+03 -0.12894451370E+03 -0.95692966220E+03  0.97933238787E+03  0.12500000000E+03 0.  0.
         25    1    1    2    0    0 -0.21072216886E+03  0.12302992379E+02 -0.20305498806E+03  0.31845176126E+03  0.12500000000E+03 0.  0.
</event>
<event>
 5    0  0.5641283E-005  0.2340804E+03  0.7546771E-02  0.1123800E+00
         21   -1    0    0  502  501  0.00000000000E+00  0.00000000000E+00  0.13804382890E+03  0.13804382890E+03  0.00000000000E+00 0.  1.
         21   -1    0    0  501  502 -0.00000000000E+00 -0.00000000000E+00 -0.39692922545E+03  0.39692922545E+03  0.00000000000E+00 0.  1.
         25    1    1    2    0    0 -0.95341207743E+02  0.26583248098E+02 -0.67098859626E+02  0.17298517837E+03  0.12500000000E+03 0.  0.
         25    1    1    2    0    0 -0.28572515584E+02 -0.24490236830E+02 -0.72103488118E+02  0.14913106097E+03  0.12500000000E+03 0.  0.
         25    1    1    2    0    0  0.12391372333E+03 -0.20930112679E+01 -0.11968304881E+03  0.21285681501E+03  0.12500000000E+03 0.  0.
</event>
<event>
 5    0  0.5641283E-005  0.4087154E+03  0.7546771E-02  0.1040803E+00
         21   -1    0    0  502  501  0.00000000000E+00  0.00000000000E+00  0.16058129864E+03  0.16058129864E+03  0.00000000000E+00 0. -1.
         21   -1    0    0  501  502 -0.00000000000E+00 -0.00000000000E+00 -0.10402724791E+04  0.10402724791E+04  0.00000000000E+00 0. -1.
         25    1    1    2    0    0  0.26933255554E+03  0.12808509739E+03 -0.13924620353E+03  0.35207999495E+03  0.12500000000E+03 0.  0.
         25    1    1    2    0    0 -0.13359961266E+03 -0.11007477620E+02 -0.23435731661E+03  0.29752037395E+03  0.12500000000E+03 0.  0.
         25    1    1    2    0    0 -0.13573294288E+03 -0.11707761977E+03 -0.50608766034E+03  0.55125340886E+03  0.12500000000E+03 0.  0.
</event>
<event>
 5    0  0.5641283E-005  0.3425148E+03  0.7546771E-02  0.1065730E+00
         21   -1    0    0  502  501  0.00000000000E+00  0.00000000000E+00  0.87734860191E+03  0.87734860191E+03  0.00000000000E+00 0. -1.
         21   -1    0    0  501  502 -0.00000000000E+00 -0.00000000000E+00 -0.13371694675E+03  0.13371694675E+03  0.00000000000E+00 0. -1.
         25    1    1    2    0    0  0.14612558066E+03  0.71423637485E+02  0.34699071741E+03  0.40309003868E+03  0.12500000000E+03 0.  0.
         25    1    1    2    0    0 -0.12523699042E+03 -0.11806875370E+03  0.42012102529E+03  0.47090467216E+03  0.12500000000E+03 0.  0.
         25    1    1    2    0    0 -0.20888590238E+02  0.46645116220E+02 -0.23480087540E+02  0.13707083782E+03  0.12500000000E+03 0.  0.
</event>
<event>
 5    0  0.5641283E-005  0.2424086E+03  0.7546771E-02  0.1118199E+00
         21   -1    0    0  502  501  0.00000000000E+00  0.00000000000E+00  0.12723007311E+03  0.12723007311E+03  0.00000000000E+00 0.  1.
         21   -1    0    0  501  502 -0.00000000000E+00 -0.00000000000E+00 -0.46185547801E+03  0.46185547801E+03  0.00000000000E+00 0.  1.
         25    1    1    2    0    0 -0.40058033119E+02  0.14370820225E+02 -0.23306161105E+03  0.26786914910E+03  0.12500000000E+03 0.  0.
         25    1    1    2    0    0  0.65901981456E+01 -0.77234369627E+02 -0.35302894061E+01  0.14712593757E+03  0.12500000000E+03 0.  0.
         25    1    1    2    0    0  0.33467834974E+02  0.62863549403E+02 -0.98033504432E+02  0.17409046445E+03  0.12500000000E+03 0.  0.
</event>
<event>
 5    0  0.5641283E-005  0.3159903E+03  0.7546771E-02  0.1077510E+00
         21   -1    0    0  502  501  0.00000000000E+00  0.00000000000E+00  0.73313265893E+03  0.73313265893E+03  0.00000000000E+00 0. -1.
         21   -1    0    0  501  502 -0.00000000000E+00 -0.00000000000E+00 -0.13619617646E+03  0.13619617646E+03  0.00000000000E+00 0. -1.
         25    1    1    2    0    0 -0.15800294378E+03  0.34308717424E+02  0.33930587877E+03  0.39610036317E+03  0.12500000000E+03 0.  0.
         25    1    1    2    0    0 -0.30405920509E+02  0.24413152211E+02  0.77663657504E+01  0.13117102744E+03  0.12500000000E+03 0.  0.
         25    1    1    2    0    0  0.18840886429E+03 -0.58721869635E+02  0.24986423795E+03  0.34205744477E+03  0.12500000000E+03 0.  0.
</event>
<event>
 5    0  0.5641283E-005  0.3784656E+03  0.7546771E-02  0.1051502E+00
         21   -1    0    0  502  501  0.00000000000E+00  0.00000000000E+00  0.33196398411E+03  0.33196398411E+03  0.00000000000E+00 0. -1.
         21   -1    0    0  501  502 -0.00000000000E+00 -0.00000000000E+00 -0.43148114533E+03  0.43148114533E+03  0.00000000000E+00 0. -1.
         25    1    1    2    0    0  0.23975114646E+03  0.12473910642E+03 -0.25677879736E+02  0.29887256550E+03  0.12500000000E+03 0.  0.
         25    1    1    2    0    0 -0.21887308573E+03  0.21638931926E+02  0.10922091712E+02  0.25321525057E+03  0.12500000000E+03 0.  0.
         25    1    1    2    0    0 -0.20878060729E+02 -0.14637803835E+03 -0.84761373200E+02  0.21135731337E+03  0.12500000000E+03 0.  0.
</event>
<event>
 5    0  0.5641283E-005  0.2082079E+03  0.7546771E-02  0.1142993E+00
         21   -1    0    0  502  501  0.00000000000E+00  0.00000000000E+00  0.81804353522E+02  0.81804353522E+02  0.00000000000E+00 0. -1.
         21   -1    0    0  501  502 -0.00000000000E+00 -0.00000000000E+00 -0.52992944206E+03  0.52992944206E+03  0.00000000000E+00 0. -1.
         25    1    1    2    0    0 -0.46267412579E+02  0.53694024696E+02 -0.19436040633E+03  0.24171199661E+03  0.12500000000E+03 0.  0.
         25    1    1    2    0    0  0.28911042622E+01 -0.52500683092E+02 -0.14705235212E+03  0.20003518309E+03  0.12500000000E+03 0.  0.
         25    1    1    2    0    0  0.43376308317E+02 -0.11933416034E+01 -0.10671233009E+03  0.16998661588E+03  0.12500000000E+03 0.  0.
</event>
<event>
 5    0  0.5641283E-005  0.3137461E+03  0.7546771E-02  0.1078564E+00
         21   -1    0    0  502  501  0.00000000000E+00  0.00000000000E+00  0.16829620632E+03  0.16829620632E+03  0.00000000000E+00 0. -1.
         21   -1    0    0  501  502 -0.00000000000E+00 -0.00000000000E+00 -0.58490107778E+03  0.58490107778E+03  0.00000000000E+00 0. -1.
         25    1    1    2    0    0  0.24419372411E+02 -0.11800957044E+03 -0.11169834991E+03  0.20645601429E+03  0.12500000000E+03 0.  0.
         25    1    1    2    0    0  0.91966919333E+02  0.18525454204E+03 -0.76010916687E+02  0.25333736213E+03  0.12500000000E+03 0.  0.
         25    1    1    2    0    0 -0.11638629174E+03 -0.67244971595E+02 -0.22889560486E+03  0.29340390767E+03  0.12500000000E+03 0.  0.
</event>
<event>
 5    0  0.5641283E-005  0.2543502E+03  0.7546771E-02  0.1110586E+00
         21   -1    0    0  502  501  0.00000000000E+00  0.00000000000E+00  0.61173362270E+03  0.61173362270E+03  0.00000000000E+00 0. -1.
         21   -1    0    0  501  502 -0.00000000000E+00 -0.00000000000E+00 -0.10575518045E+03  0.10575518045E+03  0.00000000000E+00 0. -1.
         25    1    1    2    0    0 -0.13813919904E+02  0.57147596185E+02  0.21772195616E+03  0.25784592750E+03  0.12500000000E+03 0.  0.
         25    1    1    2    0    0 -0.50903404144E+01  0.93159172909E+02  0.87742495362E+02  0.17896448965E+03  0.12500000000E+03 0.  0.
         25    1    1    2    0    0  0.18904260318E+02 -0.15030676909E+03  0.20051399073E+03  0.28067838601E+03  0.12500000000E+03 0.  0.
</event>
<event>
 5    0  0.5641283E-005  0.3129852E+03  0.7546771E-02  0.1078924E+00
         21   -1    0    0  502  501  0.00000000000E+00  0.00000000000E+00  0.68819499268E+03  0.68819499268E+03  0.00000000000E+00 0.  1.
         21   -1    0    0  501  502 -0.00000000000E+00 -0.00000000000E+00 -0.14234299526E+03  0.14234299526E+03  0.00000000000E+00 0. -1.
         25    1    1    2    0    0  0.68520156582E+02  0.46992986743E+02  0.14453751511E+03  0.20837333307E+03  0.12500000000E+03 0.  0.
         25    1    1    2    0    0 -0.19405318911E+03 -0.12447509757E+03  0.31647527754E+03  0.41101373628E+03  0.12500000000E+03 0.  0.
         25    1    1    2    0    0  0.12553303252E+03  0.77482110827E+02  0.84839204777E+02  0.21115091859E+03  0.12500000000E+03 0.  0.
</event>
<event>
 5    0  0.5641283E-005  0.3886327E+03  0.7546771E-02  0.1047788E+00
         21   -1    0    0  502  501  0.00000000000E+00  0.00000000000E+00  0.25992021167E+03  0.25992021167E+03  0.00000000000E+00 0.  1.
         21   -1    0    0  501  502 -0.00000000000E+00 -0.00000000000E+00 -0.58108351388E+03  0.58108351388E+03  0.00000000000E+00 0.  1.
         25    1    1    2    0    0 -0.22308849073E+03  0.18449183683E+03 -0.83339267997E+02  0.32615356221E+03  0.12500000000E+03 0.  0.
         25    1    1    2    0    0  0.20089109072E+03 -0.20897805758E+02 -0.18519250739E+03  0.30118966351E+03  0.12500000000E+03 0.  0.
         25    1    1    2    0    0  0.22197400018E+02 -0.16359403107E+03 -0.52631526821E+02  0.21366049982E+03  0.12500000000E+03 0.  0.
</event>
<event>
 5    0  0.5641283E-005  0.3520575E+03  0.7546771E-02  0.1061774E+00
         21   -1    0    0  502  501  0.00000000000E+00  0.00000000000E+00  0.16220005411E+04  0.16220005411E+04  0.00000000000E+00 0. -1.
         21   -1    0    0  501  502 -0.00000000000E+00 -0.00000000000E+00 -0.76414567241E+02  0.76414567241E+02  0.00000000000E+00 0. -1.
         25    1    1    2    0    0 -0.20620741358E+03  0.21699931189E+02  0.68170272295E+03  0.72341964786E+03  0.12500000000E+03 0.  0.
         25    1    1    2    0    0  0.13246571559E+03  0.14295948379E+03  0.47571400062E+03  0.52906841731E+03  0.12500000000E+03 0.  0.
         25    1    1    2    0    0  0.73741697994E+02 -0.16465941498E+03  0.38816925033E+03  0.44592704321E+03  0.12500000000E+03 0.  0.
</event>
<event>
 5    0  0.5641283E-005  0.4453769E+03  0.7546771E-02  0.1029110E+00
         21   -1    0    0  502  501  0.00000000000E+00  0.00000000000E+00  0.26281660243E+03  0.26281660243E+03  0.00000000000E+00 0.  1.
         21   -1    0    0  501  502 -0.00000000000E+00 -0.00000000000E+00 -0.75474922183E+03  0.75474922183E+03  0.00000000000E+00 0.  1.
         25    1    1    2    0    0 -0.37208776110E+03  0.90220303358E+02 -0.24588215102E+03  0.47188138053E+03  0.12500000000E+03 0.  0.
         25    1    1    2    0    0  0.31234663424E+03 -0.89988543158E+02 -0.16787454398E+03  0.38660732059E+03  0.12500000000E+03 0.  0.
         25    1    1    2    0    0  0.59741126857E+02 -0.23176020043E+00 -0.78175924390E+02  0.15907712314E+03  0.12500000000E+03 0.  0.
</event>
<event>
 5    0  0.5641283E-005  0.6314273E+03  0.7546771E-02  0.9842267E-01
         21   -1    0    0  502  501  0.00000000000E+00  0.00000000000E+00  0.12929021353E+04  0.12929021353E+04  0.00000000000E+00 0. -1.
         21   -1    0    0  501  502 -0.00000000000E+00 -0.00000000000E+00 -0.30837638589E+03  0.30837638589E+03  0.00000000000E+00 0. -1.
         25    1    1    2    0    0  0.29099054875E+03  0.14053520398E+03  0.27145240072E+03  0.44015570981E+03  0.12500000000E+03 0.  0.
         25    1    1    2    0    0 -0.43822937352E+03 -0.25566999146E+03  0.76870575012E+03  0.92948677162E+03  0.12500000000E+03 0.  0.
         25    1    1    2    0    0  0.14723882477E+03  0.11513478748E+03 -0.55632401466E+02  0.23163603973E+03  0.12500000000E+03 0.  0.
</event>
<event>
 5    0  0.5641283E-005  0.2403143E+03  0.7546771E-02  0.1119584E+00
         21   -1    0    0  502  501  0.00000000000E+00  0.00000000000E+00  0.71534343807E+03  0.71534343807E+03  0.00000000000E+00 0.  1.
         21   -1    0    0  501  502 -0.00000000000E+00 -0.00000000000E+00 -0.80731766441E+02  0.80731766441E+02  0.00000000000E+00 0.  1.
         25    1    1    2    0    0 -0.44650420229E+02 -0.24958888512E+02  0.18987009477E+03  0.23300699352E+03  0.12500000000E+03 0.  0.
         25    1    1    2    0    0  0.78149126398E+02 -0.24142325031E+01  0.39522359429E+03  0.42182911701E+03  0.12500000000E+03 0.  0.
         25    1    1    2    0    0 -0.33498706169E+02  0.27373121015E+02  0.49517982567E+02  0.14123909397E+03  0.12500000000E+03 0.  0.
</event>
<event>
 5    0  0.5641283E-005  0.3085884E+03  0.7546771E-02  0.1081024E+00
         21   -1    0    0  502  501  0.00000000000E+00  0.00000000000E+00  0.58150143066E+02  0.58150143066E+02  0.00000000000E+00 0. -1.
         21   -1    0    0  501  502 -0.00000000000E+00 -0.00000000000E+00 -0.16376023095E+04  0.16376023095E+04  0.00000000000E+00 0. -1.
         25    1    1    2    0    0  0.61483286063E+02  0.13851549161E+03 -0.11455302726E+04  0.11622527012E+04  0.12500000000E+03 0.  0.
         25    1    1    2    0    0 -0.80887700380E+02 -0.91756095817E+02 -0.22813896625E+03  0.28746197856E+03  0.12500000000E+03 0.  0.
         25    1    1    2    0    0  0.19404414317E+02 -0.46759395791E+02 -0.20578292755E+03  0.24603777284E+03  0.12500000000E+03 0.  0.
</event>
<event>
 5    0  0.5641283E-005  0.2724625E+03  0.7546771E-02  0.1099878E+00
         21   -1    0    0  502  501  0.00000000000E+00  0.00000000000E+00  0.51541679190E+02  0.51541679190E+02  0.00000000000E+00 0.  1.
         21   -1    0    0  501  502 -0.00000000000E+00 -0.00000000000E+00 -0.14403065665E+04  0.14403065665E+04  0.00000000000E+00 0.  1.
         25    1    1    2    0    0  0.70261743365E+02  0.26492427707E+01 -0.28361269957E+03  0.31781267191E+03  0.12500000000E+03 0.  0.
         25    1    1    2    0    0  0.74836371076E+02  0.44787157667E+02 -0.22315807587E+03  0.27024229638E+03  0.12500000000E+03 0.  0.
         25    1    1    2    0    0 -0.14509811444E+03 -0.47436400438E+02 -0.88199411188E+03  0.90379327741E+03  0.12500000000E+03 0.  0.
</event>
<event>
 5    0  0.5641283E-005  0.3269079E+03  0.7546771E-02  0.1072513E+00
         21   -1    0    0  502  501  0.00000000000E+00  0.00000000000E+00  0.24815575467E+03  0.24815575467E+03  0.00000000000E+00 0.  1.
         21   -1    0    0  501  502 -0.00000000000E+00 -0.00000000000E+00 -0.43065207193E+03  0.43065207193E+03  0.00000000000E+00 0.  1.
         25    1    1    2    0    0 -0.15048972365E+01 -0.11430051724E+03  0.69241627901E+02  0.18299255720E+03  0.12500000000E+03 0.  0.
         25    1    1    2    0    0 -0.63434397665E+02  0.54321373864E+01  0.47092350639E+02  0.14797337738E+03  0.12500000000E+03 0.  0.
         25    1    1    2    0    0  0.64939294902E+02  0.10886837985E+03 -0.29883029580E+03  0.34784189202E+03  0.12500000000E+03 0.  0.
</event>
<event>
 5    0  0.5641283E-005  0.3693564E+03  0.7546771E-02  0.1054939E+00
         21   -1    0    0  502  501  0.00000000000E+00  0.00000000000E+00  0.51935660768E+03  0.51935660768E+03  0.00000000000E+00 0.  1.
         21   -1    0    0  501  502 -0.00000000000E+00 -0.00000000000E+00 -0.26267909556E+03  0.26267909556E+03  0.00000000000E+00 0.  1.
         25    1    1    2    0    0 -0.17271427525E+03 -0.16493520341E+03  0.11117138427E+03  0.29157832375E+03  0.12500000000E+03 0.  0.
         25    1    1    2    0    0  0.22854294292E+03  0.17139286754E+03  0.16373841967E+03  0.35219690782E+03  0.12500000000E+03 0.  0.
         25    1    1    2    0    0 -0.55828667668E+02 -0.64576641280E+01 -0.18232291821E+02  0.13826047166E+03  0.12500000000E+03 0.  0.
</event>
<event>
 5    0  0.5641283E-005  0.2389776E+03  0.7546771E-02  0.1120476E+00
         21   -1    0    0  502  501  0.00000000000E+00  0.00000000000E+00  0.12466238195E+03  0.12466238195E+03  0.00000000000E+00 0. -1.
         21   -1    0    0  501  502 -0.00000000000E+00 -0.00000000000E+00 -0.45811962754E+03  0.45811962754E+03  0.00000000000E+00 0. -1.
         25    1    1    2    0    0 -0.58988686304E+02 -0.65383833691E+01 -0.14367308109E+02  0.13911806177E+03  0.12500000000E+03 0.  0.
         25    1    1    2    0    0  0.43180776967E+02  0.28036106180E+02 -0.27846722014E+03  0.30954740419E+03  0.12500000000E+03 0.  0.
         25    1    1    2    0    0  0.15807909337E+02 -0.21497722811E+02 -0.40622717336E+02  0.13411654353E+03  0.12500000000E+03 0.  0.
</event>
<event>
 5    0  0.5641283E-005  0.3928986E+03  0.7546771E-02  0.1046267E+00
         21   -1    0    0  502  501  0.00000000000E+00  0.00000000000E+00  0.57987804753E+03  0.57987804753E+03  0.00000000000E+00 0. -1.
         21   -1    0    0  501  502 -0.00000000000E+00 -0.00000000000E+00 -0.26620999209E+03  0.26620999209E+03  0.00000000000E+00 0. -1.
         25    1    1    2    0    0 -0.30151867061E+02  0.26093480212E+03  0.33698764990E+03  0.44517612495E+03  0.12500000000E+03 0.  0.
         25    1    1    2    0    0 -0.46135525078E+02 -0.20144730416E+03 -0.25221499320E+02  0.24283868526E+03  0.12500000000E+03 0.  0.
         25    1    1    2    0    0  0.76287392139E+02 -0.59487497954E+02  0.19019048553E+01  0.15807322940E+03  0.12500000000E+03 0.  0.
</event>
<event>
 5    0  0.5641283E-005  0.3373043E+03  0.7546771E-02  0.1067950E+00
         21   -1    0    0  502  501  0.00000000000E+00  0.00000000000E+00  0.21198603421E+04  0.21198603421E+04  0.00000000000E+00 0. -1.
         21   -1    0    0  501  502 -0.00000000000E+00 -0.00000000000E+00 -0.53670602587E+02  0.53670602587E+02  0.00000000000E+00 0. -1.
         25    1    1    2    0    0  0.50215695841E+02 -0.35909472241E+02  0.18373271460E+03  0.23063784755E+03  0.12500000000E+03 0.  0.
         25    1    1    2    0    0 -0.14167211774E+03  0.15189127617E+03  0.14358517133E+04  0.14561720679E+04  0.12500000000E+03 0.  0.
         25    1    1    2    0    0  0.91456421897E+02 -0.11598180393E+03  0.44660531152E+03  0.48672102916E+03  0.12500000000E+03 0.  0.
</event>
<event>
 5    0  0.5641283E-005  0.2615613E+03  0.7546771E-02  0.1106209E+00
         21   -1    0    0  502  501  0.00000000000E+00  0.00000000000E+00  0.10443806215E+03  0.10443806215E+03  0.00000000000E+00 0. -1.
         21   -1    0    0  501  502 -0.00000000000E+00 -0.00000000000E+00 -0.65507051601E+03  0.65507051601E+03  0.00000000000E+00 0. -1.
         25    1    1    2    0    0  0.79727344110E+01  0.60126660512E+02 -0.18744963598E+02  0.14019683826E+03  0.12500000000E+03 0.  0.
         25    1    1    2    0    0  0.13737073363E+02 -0.84573836624E+02 -0.13868953628E+03  0.20542937594E+03  0.12500000000E+03 0.  0.
         25    1    1    2    0    0 -0.21709807774E+02  0.24447176112E+02 -0.39319795398E+03  0.41388236395E+03  0.12500000000E+03 0.  0.
</event>
<event>
 5    0  0.5641283E-005  0.2957773E+03  0.7546771E-02  0.1087371E+00
         21   -1    0    0  502  501  0.00000000000E+00  0.00000000000E+00  0.12874361779E+03  0.12874361779E+03  0.00000000000E+00 0. -1.
         21   -1    0    0  501  502 -0.00000000000E+00 -0.00000000000E+00 -0.67952263371E+03  0.67952263371E+03  0.00000000000E+00 0. -1.
         25    1    1    2    0    0 -0.37402002596E+01  0.24465051475E+02 -0.67903816627E+02  0.14438994478E+03  0.12500000000E+03 0.  0.
         25    1    1    2    0    0 -0.18291561710E+03 -0.52583564561E+02 -0.21529112314E+03  0.31336627442E+03  0.12500000000E+03 0.  0.
         25    1    1    2    0    0  0.18665581736E+03  0.28118513086E+02 -0.26758407616E+03  0.35051003230E+03  0.12500000000E+03 0.  0.
</event>
<event>
 5    0  0.5641283E-005  0.3668429E+03  0.7546771E-02  0.1055907E+00
         21   -1    0    0  502  501  0.00000000000E+00  0.00000000000E+00  0.33351394938E+03  0.33351394938E+03  0.00000000000E+00 0.  1.
         21   -1    0    0  501  502 -0.00000000000E+00 -0.00000000000E+00 -0.40350245694E+03  0.40350245694E+03  0.00000000000E+00 0.  1.
         25    1    1    2    0    0  0.22342112832E+03  0.13708274353E+03  0.63666095866E+02  0.29729959791E+03  0.12500000000E+03 0.  0.
         25    1    1    2    0    0 -0.77336960990E+02 -0.15700583150E+03 -0.11916575883E+03  0.24588069208E+03  0.12500000000E+03 0.  0.
         25    1    1    2    0    0 -0.14608416733E+03  0.19923087967E+02 -0.14488844600E+02  0.19383611634E+03  0.12500000000E+03 0.  0.
</event>
<event>
 5    0  0.6330738E-005  0.2761869E+03  0.7546771E-02  0.1097790E+00
         21   -1    0    0  502  501  0.00000000000E+00  0.00000000000E+00  0.57986611727E+03  0.57986611727E+03  0.00000000000E+00 0.  1.
         21   -1    0    0  501  502 -0.00000000000E+00 -0.00000000000E+00 -0.13154627047E+03  0.13154627047E+03  0.00000000000E+00 0.  1.
         25    1    1    2    0    0  0.67683849470E+02 -0.11824785703E+03  0.33526739139E+03  0.38287450020E+03  0.12500000000E+03 0.  0.
         25    1    1    2    0    0 -0.53245925169E+02  0.58314924873E+01  0.25215378549E+02  0.13831106307E+03  0.12500000000E+03 0.  0.
         25    1    1    2    0    0 -0.14437924302E+02  0.11241636454E+03  0.87837076865E+02  0.19022682447E+03  0.12500000000E+03 0.  0.
</event>
<event>
 5    0  0.5641283E-005  0.4552557E+03  0.7546771E-02  0.1026166E+00
         21   -1    0    0  502  501  0.00000000000E+00  0.00000000000E+00  0.18342320608E+04  0.18342320608E+04  0.00000000000E+00 0.  1.
         21   -1    0    0  501  502 -0.00000000000E+00 -0.00000000000E+00 -0.11299426900E+03  0.11299426900E+03  0.00000000000E+00 0.  1.
         25    1    1    2    0    0 -0.32843953911E+03  0.13210303302E+03  0.75524566041E+03  0.84341256201E+03  0.12500000000E+03 0.  0.
         25    1    1    2    0    0  0.31611031906E+03 -0.79181570197E+02  0.44645129880E+03  0.56669146550E+03  0.12500000000E+03 0.  0.
         25    1    1    2    0    0  0.12329220055E+02 -0.52921462825E+02  0.51954083258E+03  0.53712230229E+03  0.12500000000E+03 0.  0.
</event>
<event>
 5    0  0.5641283E-005  0.3211876E+03  0.7546771E-02  0.1075104E+00
         21   -1    0    0  502  501  0.00000000000E+00  0.00000000000E+00  0.21441443930E+03  0.21441443930E+03  0.00000000000E+00 0. -1.
         21   -1    0    0  501  502 -0.00000000000E+00 -0.00000000000E+00 -0.48113126836E+03  0.48113126836E+03  0.00000000000E+00 0. -1.
         25    1    1    2    0    0 -0.49114243829E+02  0.14546995266E+03 -0.27913356302E+02  0.19994467118E+03  0.12500000000E+03 0.  0.
         25    1    1    2    0    0  0.34903380516E+02  0.96296534380E+02 -0.83090382982E+02  0.18171483222E+03  0.12500000000E+03 0.  0.
         25    1    1    2    0    0  0.14210863313E+02 -0.24176648704E+03 -0.15571308977E+03  0.31388620425E+03  0.12500000000E+03 0.  0.
</event>
<event>
 5    0  0.5641283E-005  0.2363217E+03  0.7546771E-02  0.1122268E+00
         21   -1    0    0  502  501  0.00000000000E+00  0.00000000000E+00  0.36116632333E+02  0.36116632333E+02  0.00000000000E+00 0.  1.
         21   -1    0    0  501  502 -0.00000000000E+00 -0.00000000000E+00 -0.15463226049E+04  0.15463226049E+04  0.00000000000E+00 0.  1.
         25    1    1    2    0    0 -0.54988224328E+02  0.28098190272E+02 -0.49073096857E+03  0.51015203286E+03  0.12500000000E+03 0.  0.
         25    1    1    2    0    0  0.12164672743E+03 -0.50107408942E+02 -0.45411977918E+03  0.48903829356E+03  0.12500000000E+03 0.  0.
         25    1    1    2    0    0 -0.66658503106E+02  0.22009218670E+02 -0.56535522479E+03  0.58324891079E+03  0.12500000000E+03 0.  0.
</event>
<event>
 5    0  0.5641283E-005  0.2977396E+03  0.7546771E-02  0.1086376E+00
         21   -1    0    0  502  501  0.00000000000E+00  0.00000000000E+00  0.93708781179E+03  0.93708781179E+03  0.00000000000E+00 0. -1.
         21   -1    0    0  501  502 -0.00000000000E+00 -0.00000000000E+00 -0.94600401080E+02  0.94600401080E+02  0.00000000000E+00 0. -1.
         25    1    1    2    0    0  0.33492319992E+02  0.11058478169E+02  0.40722446352E+03  0.42743512856E+03  0.12500000000E+03 0.  0.
         25    1    1    2    0    0  0.66935924522E+02  0.12694969039E+03  0.29272935350E+03  0.34915915609E+03  0.12500000000E+03 0.  0.
         25    1    1    2    0    0 -0.10042824451E+03 -0.13800816856E+03  0.14253359370E+03  0.25509392823E+03  0.12500000000E+03 0.  0.
</event>
<event>
 5    0  0.5641283E-005  0.4442645E+03  0.7546771E-02  0.1029446E+00
         21   -1    0    0  502  501  0.00000000000E+00  0.00000000000E+00  0.13684804186E+03  0.13684804186E+03  0.00000000000E+00 0. -1.
         21   -1    0    0  501  502 -0.00000000000E+00 -0.00000000000E+00 -0.14422633775E+04  0.14422633775E+04  0.00000000000E+00 0. -1.
         25    1    1    2    0    0 -0.11071017429E+03  0.84736375157E+02 -0.52635560901E+02  0.19450577944E+03  0.12500000000E+03 0.  0.
         25    1    1    2    0    0 -0.11861384885E+03  0.88029333143E+02 -0.86395189284E+03  0.88535658453E+03  0.12500000000E+03 0.  0.
         25    1    1    2    0    0  0.22932402314E+03 -0.17276570830E+03 -0.38882788189E+03  0.49924905537E+03  0.12500000000E+03 0.  0.
</event>
<event>
 5    0  0.5641283E-005  0.2498123E+03  0.7546771E-02  0.1113424E+00
         21   -1    0    0  502  501  0.00000000000E+00  0.00000000000E+00  0.52340623442E+02  0.52340623442E+02  0.00000000000E+00 0. -1.
         21   -1    0    0  501  502 -0.00000000000E+00 -0.00000000000E+00 -0.11923084905E+04  0.11923084905E+04  0.00000000000E+00 0. -1.
         25    1    1    2    0    0  0.96728797389E+02  0.55450171784E+02 -0.45394082105E+03  0.48385788287E+03  0.12500000000E+03 0.  0.
         25    1    1    2    0    0 -0.58464848397E+02  0.63533068654E+02 -0.30366456249E+03  0.33954639716E+03  0.12500000000E+03 0.  0.
         25    1    1    2    0    0 -0.38263948992E+02 -0.11898324044E+03 -0.38236248347E+03  0.42124483387E+03  0.12500000000E+03 0.  0.
</event>
<event>
 5    0  0.5641283E-005  0.4370474E+03  0.7546771E-02  0.1031657E+00
         21   -1    0    0  502  501  0.00000000000E+00  0.00000000000E+00  0.36758699064E+03  0.36758699064E+03  0.00000000000E+00 0.  1.
         21   -1    0    0  501  502 -0.00000000000E+00 -0.00000000000E+00 -0.51963323152E+03  0.51963323152E+03  0.00000000000E+00 0.  1.
         25    1    1    2    0    0  0.13666374061E+03 -0.33287860386E+03 -0.80478637249E+02  0.38934169306E+03  0.12500000000E+03 0.  0.
         25    1    1    2    0    0 -0.69078290752E+02  0.14920658497E+03 -0.14722246642E+03  0.25364122274E+03  0.12500000000E+03 0.  0.
         25    1    1    2    0    0 -0.67585449856E+02  0.18367201889E+03  0.75654862799E+02  0.24423730636E+03  0.12500000000E+03 0.  0.
</event>
<event>
 5    0  0.5641283E-005  0.2843871E+03  0.7546771E-02  0.1093317E+00
         21   -1    0    0  502  501  0.00000000000E+00  0.00000000000E+00  0.30876318345E+03  0.30876318345E+03  0.00000000000E+00 0. -1.
         21   -1    0    0  501  502 -0.00000000000E+00 -0.00000000000E+00 -0.26193547291E+03  0.26193547291E+03  0.00000000000E+00 0. -1.
         25    1    1    2    0    0  0.12605254974E+02 -0.87185644176E+01 -0.33298199067E+02  0.13026387020E+03  0.12500000000E+03 0.  0.
         25    1    1    2    0    0 -0.16789304632E+03  0.66297064978E+02  0.77754742333E+02  0.23292525794E+03  0.12500000000E+03 0.  0.
         25    1    1    2    0    0  0.15528779135E+03 -0.57578500560E+02  0.23711672668E+01  0.20750952822E+03  0.12500000000E+03 0.  0.
</event>
<event>
 5    0  0.5641283E-005  0.2819866E+03  0.7546771E-02  0.1094609E+00
         21   -1    0    0  502  501  0.00000000000E+00  0.00000000000E+00  0.59336754991E+02  0.59336754991E+02  0.00000000000E+00 0. -1.
         21   -1    0    0  501  502 -0.00000000000E+00 -0.00000000000E+00 -0.13400875341E+04  0.13400875341E+04  0.00000000000E+00 0. -1.
         25    1    1    2    0    0 -0.15388786443E+03 -0.53429875616E+01 -0.47774652435E+03  0.51727822675E+03  0.12500000000E+03 0.  0.
         25    1    1    2    0    0  0.54670108962E+02 -0.38075416978E+02 -0.14125369365E+03  0.20004040632E+03  0.12500000000E+03 0.  0.
         25    1    1    2    0    0  0.99217755465E+02  0.43418404540E+02 -0.66175056110E+03  0.68210565601E+03  0.12500000000E+03 0.  0.
</event>
<event>
 5    0  0.5641283E-005  0.2284017E+03  0.7546771E-02  0.1127770E+00
         21   -1    0    0  502  501  0.00000000000E+00  0.00000000000E+00  0.38015388582E+03  0.38015388582E+03  0.00000000000E+00 0. -1.
         21   -1    0    0  501  502 -0.00000000000E+00 -0.00000000000E+00 -0.13722686083E+03  0.13722686083E+03  0.00000000000E+00 0. -1.
         25    1    1    2    0    0  0.62505413794E+02 -0.99594286887E+02  0.68098135044E+02  0.18463018369E+03  0.12500000000E+03 0.  0.
         25    1    1    2    0    0 -0.89414962097E+00  0.42914932400E+02  0.71794945862E+02  0.15040613411E+03  0.12500000000E+03 0.  0.
         25    1    1    2    0    0 -0.61611264173E+02  0.56679354487E+02  0.10303394408E+03  0.18234442885E+03  0.12500000000E+03 0.  0.
</event>
<event>
 5    0  0.5641283E-005  0.2383561E+03  0.7546771E-02  0.1120893E+00
         21   -1    0    0  502  501  0.00000000000E+00  0.00000000000E+00  0.13435853585E+04  0.13435853585E+04  0.00000000000E+00 0. -1.
         21   -1    0    0  501  502 -0.00000000000E+00 -0.00000000000E+00 -0.42285087190E+02  0.42285087190E+02  0.00000000000E+00 0. -1.
         25    1    1    2    0    0 -0.69097894204E+00  0.82252488524E+02  0.34658915702E+03  0.37751158007E+03  0.12500000000E+03 0.  0.
         25    1    1    2    0    0 -0.18923684898E+02 -0.20127806903E+02  0.74343830662E+03  0.75437971222E+03  0.12500000000E+03 0.  0.
         25    1    1    2    0    0  0.19614663840E+02 -0.62124681620E+02  0.21127280769E+03  0.25397915342E+03  0.12500000000E+03 0.  0.
</event>
<event>
 5    0  0.5641283E-005  0.5227101E+03  0.7546771E-02  0.1008016E+00
         21   -1    0    0  502  501  0.00000000000E+00  0.00000000000E+00  0.69740960037E+03  0.69740960037E+03  0.00000000000E+00 0. -1.
         21   -1    0    0  501  502 -0.00000000000E+00 -0.00000000000E+00 -0.39177237581E+03  0.39177237581E+03  0.00000000000E+00 0. -1.
         25    1    1    2    0    0 -0.97390549912E+02 -0.22580399205E+03  0.23146293942E+02  0.27682686460E+03  0.12500000000E+03 0.  0.
         25    1    1    2    0    0  0.11999018648E+03  0.35180269737E+01 -0.20091754655E+03  0.26533541391E+03  0.12500000000E+03 0.  0.
         25    1    1    2    0    0 -0.22599636567E+02  0.22228596508E+03  0.48340847717E+03  0.54701969767E+03  0.12500000000E+03 0.  0.
</event>
<event>
 5    0  0.5641283E-005  0.2978104E+03  0.7546771E-02  0.1086340E+00
         21   -1    0    0  502  501  0.00000000000E+00  0.00000000000E+00  0.69881478521E+03  0.69881478521E+03  0.00000000000E+00 0. -1.
         21   -1    0    0  501  502 -0.00000000000E+00 -0.00000000000E+00 -0.12691635039E+03  0.12691635039E+03  0.00000000000E+00 0. -1.
         25    1    1    2    0    0  0.21922017759E+02  0.63504692967E+02  0.13171915786E+03  0.19361910402E+03  0.12500000000E+03 0.  0.
         25    1    1    2    0    0  0.16942093333E+03 -0.20348302086E+01  0.26053666276E+03  0.33498051559E+03  0.12500000000E+03 0.  0.
         25    1    1    2    0    0 -0.19134295109E+03 -0.61469862759E+02  0.17964261420E+03  0.29713151599E+03  0.12500000000E+03 0.  0.
</event>
<event>
 5    0  0.5641283E-005  0.2219533E+03  0.7546771E-02  0.1132435E+00
         21   -1    0    0  502  501  0.00000000000E+00  0.00000000000E+00  0.15840902299E+03  0.15840902299E+03  0.00000000000E+00 0. -1.
         21   -1    0    0  501  502 -0.00000000000E+00 -0.00000000000E+00 -0.31098762301E+03  0.31098762301E+03  0.00000000000E+00 0. -1.
         25    1    1    2    0    0 -0.19566311016E+02  0.44093597810E+02 -0.30541486161E+01  0.13402019892E+03  0.12500000000E+03 0.  0.
         25    1    1    2    0    0 -0.59252234951E+02 -0.14119020587E+02 -0.28292072648E+02  0.14190001925E+03  0.12500000000E+03 0.  0.
         25    1    1    2    0    0  0.78818545967E+02 -0.29974577223E+02 -0.12123237876E+03  0.19347642783E+03  0.12500000000E+03 0.  0.
</event>
<event>
 5    0  0.5641283E-005  0.2967943E+03  0.7546771E-02  0.1086854E+00
         21   -1    0    0  502  501  0.00000000000E+00  0.00000000000E+00  0.29374998174E+03  0.29374998174E+03  0.00000000000E+00 0. -1.
         21   -1    0    0  501  502 -0.00000000000E+00 -0.00000000000E+00 -0.29987014269E+03  0.29987014269E+03  0.00000000000E+00 0. -1.
         25    1    1    2    0    0 -0.47986196475E+02 -0.53387481347E+01  0.19866809543E+03  0.23963553456E+03  0.12500000000E+03 0.  0.
         25    1    1    2    0    0  0.57101674292E+02 -0.22509523560E+02 -0.17231917437E+03  0.22155400631E+03  0.12500000000E+03 0.  0.
         25    1    1    2    0    0 -0.91154778170E+01  0.27848271695E+02 -0.32469082007E+02  0.13243058355E+03  0.12500000000E+03 0.  0.
</event>
<event>
 5    0  0.5641283E-005  0.3005849E+03  0.7546771E-02  0.1084949E+00
         21   -1    0    0  502  501  0.00000000000E+00  0.00000000000E+00  0.38882184475E+02  0.38882184475E+02  0.00000000000E+00 0. -1.
         21   -1    0    0  501  502 -0.00000000000E+00 -0.00000000000E+00 -0.23237191544E+04  0.23237191544E+04  0.00000000000E+00 0. -1.
         25    1    1    2    0    0  0.15690225419E+02 -0.19663983963E+03 -0.80327444577E+03  0.83653346910E+03  0.12500000000E+03 0.  0.
         25    1    1    2    0    0  0.58968201355E+02  0.12507375887E+03 -0.10182697399E+04  0.10351903000E+04  0.12500000000E+03 0.  0.
         25    1    1    2    0    0 -0.74658426774E+02  0.71566080761E+02 -0.46329278424E+03  0.49087756980E+03  0.12500000000E+03 0.  0.
</event>
<event>
 5    0  0.5755688E-005  0.3214439E+03  0.7546771E-02  0.1074987E+00
         21   -1    0    0  502  501  0.00000000000E+00  0.00000000000E+00  0.16714691742E+03  0.16714691742E+03  0.00000000000E+00 0.  1.
         21   -1    0    0  501  502 -0.00000000000E+00 -0.00000000000E+00 -0.61817566929E+03  0.61817566929E+03  0.00000000000E+00 0.  1.
         25    1    1    2    0    0  0.16012942756E+03 -0.68397243014E+02 -0.26028494281E+03  0.33718373015E+03  0.12500000000E+03 0.  0.
         25    1    1    2    0    0 -0.46654619169E+02  0.48801549931E+02  0.52451617494E+02  0.15144113359E+03  0.12500000000E+03 0.  0.
         25    1    1    2    0    0 -0.11347480839E+03  0.19595693083E+02 -0.24319542655E+03  0.29669772298E+03  0.12500000000E+03 0.  0.
</event>
<event>
 5    0  0.5641283E-005  0.2456317E+03  0.7546771E-02  0.1116097E+00
         21   -1    0    0  502  501  0.00000000000E+00  0.00000000000E+00  0.37441013312E+03  0.37441013312E+03  0.00000000000E+00 0.  1.
         21   -1    0    0  501  502 -0.00000000000E+00 -0.00000000000E+00 -0.16114664427E+03  0.16114664427E+03  0.00000000000E+00 0.  1.
         25    1    1    2    0    0  0.39207424185E+02 -0.50822725136E+02  0.53187054525E+02  0.15024657823E+03  0.12500000000E+03 0.  0.
         25    1    1    2    0    0 -0.11942445501E+03  0.92650391783E+02  0.92514469115E+02  0.21686452580E+03  0.12500000000E+03 0.  0.
         25    1    1    2    0    0  0.80217030829E+02 -0.41827666648E+02  0.67561965205E+02  0.16844567336E+03  0.12500000000E+03 0.  0.
</event>
<event>
 5    0  0.5641283E-005  0.2690974E+03  0.7546771E-02  0.1101797E+00
         21   -1    0    0  502  501  0.00000000000E+00  0.00000000000E+00  0.17884620601E+03  0.17884620601E+03  0.00000000000E+00 0.  1.
         21   -1    0    0  501  502 -0.00000000000E+00 -0.00000000000E+00 -0.40489215510E+03  0.40489215510E+03  0.00000000000E+00 0.  1.
         25    1    1    2    0    0  0.35555589745E+02  0.11651111750E+02  0.23011073570E+02  0.13249323709E+03  0.12500000000E+03 0.  0.
         25    1    1    2    0    0  0.78234984792E+02 -0.10154030022E+03 -0.15990883170E+03  0.24005620148E+03  0.12500000000E+03 0.  0.
         25    1    1    2    0    0 -0.11379057454E+03  0.89889188465E+02 -0.89148190955E+02  0.21118892255E+03  0.12500000000E+03 0.  0.
</event>
<event>
 5    0  0.5641283E-005  0.2913506E+03  0.7546771E-02  0.1089646E+00
         21   -1    0    0  502  501  0.00000000000E+00  0.00000000000E+00  0.11084012124E+04  0.11084012124E+04  0.00000000000E+00 0.  1.
         21   -1    0    0  501  502 -0.00000000000E+00 -0.00000000000E+00 -0.76583416119E+02  0.76583416119E+02  0.00000000000E+00 0.  1.
         25    1    1    2    0    0  0.52817409917E+02 -0.96055133566E+02  0.74854319162E+03  0.76678430944E+03  0.12500000000E+03 0.  0.
         25    1    1    2    0    0 -0.83292940459E+02  0.15216065220E+02  0.17768451902E+03  0.23316524371E+03  0.12500000000E+03 0.  0.
         25    1    1    2    0    0  0.30475530541E+02  0.80839068346E+02  0.10559008562E+03  0.18503507536E+03  0.12500000000E+03 0.  0.
</event>
<event>
 5    0  0.5675351E-005  0.3436831E+03  0.7546771E-02  0.1065238E+00
         21   -1    0    0  502  501  0.00000000000E+00  0.00000000000E+00  0.52564072531E+03  0.52564072531E+03  0.00000000000E+00 0.  1.
         21   -1    0    0  501  502 -0.00000000000E+00 -0.00000000000E+00 -0.22471257142E+03  0.22471257142E+03  0.00000000000E+00 0.  1.
         25    1    1    2    0    0 -0.73337254271E+02  0.12003205962E+03  0.16786853774E+03  0.25217235011E+03  0.12500000000E+03 0.  0.
         25    1    1    2    0    0  0.50005287073E+02 -0.19786618476E+03  0.22043573793E+03  0.32537435419E+03  0.12500000000E+03 0.  0.
         25    1    1    2    0    0  0.23331967197E+02  0.77834125140E+02 -0.87376121777E+02  0.17280659243E+03  0.12500000000E+03 0.  0.
</event>
<event>
 5    0  0.5641283E-005  0.2606752E+03  0.7546771E-02  0.1106738E+00
         21   -1    0    0  502  501  0.00000000000E+00  0.00000000000E+00  0.27707843613E+03  0.27707843613E+03  0.00000000000E+00 0. -1.
         21   -1    0    0  501  502 -0.00000000000E+00 -0.00000000000E+00 -0.24524306185E+03  0.24524306185E+03  0.00000000000E+00 0. -1.
         25    1    1    2    0    0  0.16089105353E+02  0.73911185699E+02  0.15835824131E+02  0.14696086557E+03  0.12500000000E+03 0.  0.
         25    1    1    2    0    0 -0.71114503952E+01 -0.12295264044E+03 -0.96226587330E+02  0.20013115856E+03  0.12500000000E+03 0.  0.
         25    1    1    2    0    0 -0.89776549579E+01  0.49041454741E+02  0.11222613749E+03  0.17522947385E+03  0.12500000000E+03 0.  0.
</event>
<event>
 5    0  0.5641283E-005  0.2593622E+03  0.7546771E-02  0.1107527E+00
         21   -1    0    0  502  501  0.00000000000E+00  0.00000000000E+00  0.48810899884E+03  0.48810899884E+03  0.00000000000E+00 0.  1.
         21   -1    0    0  501  502 -0.00000000000E+00 -0.00000000000E+00 -0.13781499648E+03  0.13781499648E+03  0.00000000000E+00 0.  1.
         25    1    1    2    0    0 -0.24525525129E+02  0.11852115907E+03  0.12400209198E+03  0.21365927395E+03  0.12500000000E+03 0.  0.
         25    1    1    2    0    0 -0.17067354448E+02 -0.85120554465E+02  0.23059581156E+03  0.27629012232E+03  0.12500000000E+03 0.  0.
         25    1    1    2    0    0  0.41592879577E+02 -0.33400604606E+02 -0.43039011817E+01  0.13597459904E+03  0.12500000000E+03 0.  0.
</event>
<event>
 5    0  0.5641283E-005  0.3029016E+03  0.7546771E-02  0.1083799E+00
         21   -1    0    0  502  501  0.00000000000E+00  0.00000000000E+00  0.39399469954E+03  0.39399469954E+03  0.00000000000E+00 0. -1.
         21   -1    0    0  501  502 -0.00000000000E+00 -0.00000000000E+00 -0.23286955989E+03  0.23286955989E+03  0.00000000000E+00 0. -1.
         25    1    1    2    0    0 -0.16479041171E+02 -0.19317973453E+02 -0.80176928793E+02  0.15065882917E+03  0.12500000000E+03 0.  0.
         25    1    1    2    0    0 -0.19321641419E+02  0.70123151853E+02 -0.50129817578E+02  0.15306397637E+03  0.12500000000E+03 0.  0.
         25    1    1    2    0    0  0.35800682589E+02 -0.50805178400E+02  0.29143188603E+03  0.32314145388E+03  0.12500000000E+03 0.  0.
</event>
<event>
 5    0  0.5641283E-005  0.3540253E+03  0.7546771E-02  0.1060975E+00
         21   -1    0    0  502  501  0.00000000000E+00  0.00000000000E+00  0.38128497339E+03  0.38128497339E+03  0.00000000000E+00 0. -1.
         21   -1    0    0  501  502 -0.00000000000E+00 -0.00000000000E+00 -0.32871448509E+03  0.32871448509E+03  0.00000000000E+00 0. -1.
         25    1    1    2    0    0 -0.12470687136E+03 -0.83586993205E+02  0.29631447993E+02  0.19758950354E+03  0.12500000000E+03 0.  0.
         25    1    1    2    0    0 -0.12047729179E+02 -0.23659937736E+02 -0.17778739080E+03  0.21894815998E+03  0.12500000000E+03 0.  0.
         25    1    1    2    0    0  0.13675460054E+03  0.10724693094E+03  0.20072643110E+03  0.29346179497E+03  0.12500000000E+03 0.  0.
</event>
<event>
 5    0  0.5641283E-005  0.3405557E+03  0.7546771E-02  0.1066560E+00
         21   -1    0    0  502  501  0.00000000000E+00  0.00000000000E+00  0.14877071823E+03  0.14877071823E+03  0.00000000000E+00 0. -1.
         21   -1    0    0  501  502 -0.00000000000E+00 -0.00000000000E+00 -0.77957658045E+03  0.77957658045E+03  0.00000000000E+00 0. -1.
         25    1    1    2    0    0 -0.14525798378E+03  0.11952241643E+03 -0.39470509170E+03  0.45475553795E+03  0.12500000000E+03 0.  0.
         25    1    1    2    0    0 -0.15640905648E+02 -0.62462914756E+02  0.19302697974E+02  0.14192902381E+03  0.12500000000E+03 0.  0.
         25    1    1    2    0    0  0.16089888943E+03 -0.57059501677E+02 -0.25540346849E+03  0.33166273693E+03  0.12500000000E+03 0.  0.
</event>
<event>
 5    0  0.5641283E-005  0.4217197E+03  0.7546771E-02  0.1036508E+00
         21   -1    0    0  502  501  0.00000000000E+00  0.00000000000E+00  0.11779978055E+03  0.11779978055E+03  0.00000000000E+00 0. -1.
         21   -1    0    0  501  502 -0.00000000000E+00 -0.00000000000E+00 -0.15097438234E+04  0.15097438234E+04  0.00000000000E+00 0. -1.
         25    1    1    2    0    0  0.21464476514E+03  0.60497378228E+02 -0.11392417877E+04  0.11675740486E+04  0.12500000000E+03 0.  0.
         25    1    1    2    0    0 -0.19015128972E+03  0.21359522937E+02 -0.18528728515E+03  0.29422800724E+03  0.12500000000E+03 0.  0.
         25    1    1    2    0    0 -0.24493475420E+02 -0.81856901166E+02 -0.67414969979E+02  0.16574154815E+03  0.12500000000E+03 0.  0.
</event>
<event>
 5    0  0.5641283E-005  0.2181387E+03  0.7546771E-02  0.1135278E+00
         21   -1    0    0  502  501  0.00000000000E+00  0.00000000000E+00  0.12035536782E+04  0.12035536782E+04  0.00000000000E+00 0. -1.
         21   -1    0    0  501  502 -0.00000000000E+00 -0.00000000000E+00 -0.39536668259E+02  0.39536668259E+02  0.00000000000E+00 0. -1.
         25    1    1    2    0    0 -0.37381915982E+02  0.37198168723E+02  0.27319427003E+03  0.30502658995E+03  0.12500000000E+03 0.  0.
         25    1    1    2    0    0  0.52842433777E+02 -0.44996500028E+02  0.28056305981E+03  0.31489305860E+03  0.12500000000E+03 0.  0.
         25    1    1    2    0    0 -0.15460517795E+02  0.77983313046E+01  0.61025968013E+03  0.62317069794E+03  0.12500000000E+03 0.  0.
</event>
<event>
 5    0  0.5641283E-005  0.2502211E+03  0.7546771E-02  0.1113165E+00
         21   -1    0    0  502  501  0.00000000000E+00  0.00000000000E+00  0.26137575661E+02  0.26137575661E+02  0.00000000000E+00 0. -1.
         21   -1    0    0  501  502 -0.00000000000E+00 -0.00000000000E+00 -0.23954248386E+04  0.23954248386E+04  0.00000000000E+00 0. -1.
         25    1    1    2    0    0 -0.78288372839E+02  0.60838742493E+02 -0.37222393027E+03  0.40497663658E+03  0.12500000000E+03 0.  0.
         25    1    1    2    0    0  0.67855435896E+02 -0.44692697267E+01 -0.10429420691E+04  0.10526050988E+04  0.12500000000E+03 0.  0.
         25    1    1    2    0    0  0.10432936943E+02 -0.56369472767E+02 -0.95412126354E+03  0.96398067884E+03  0.12500000000E+03 0.  0.
</event>
<event>
 5    0  0.5641283E-005  0.5360034E+03  0.7546771E-02  0.1004787E+00
         21   -1    0    0  502  501  0.00000000000E+00  0.00000000000E+00  0.10062012106E+04  0.10062012106E+04  0.00000000000E+00 0. -1.
         21   -1    0    0  501  502 -0.00000000000E+00 -0.00000000000E+00 -0.28552902457E+03  0.28552902457E+03  0.00000000000E+00 0. -1.
         25    1    1    2    0    0  0.17067821813E+02  0.28782004550E+03  0.45494481923E+03  0.55292990304E+03  0.12500000000E+03 0.  0.
         25    1    1    2    0    0 -0.58772194395E+02  0.51970717736E+02  0.33659429580E+03  0.36752666067E+03  0.12500000000E+03 0.  0.
         25    1    1    2    0    0  0.41704372582E+02 -0.33979076323E+03 -0.70866929022E+02  0.37127367144E+03  0.12500000000E+03 0.  0.
</event>
<event>
 5    0  0.5641283E-005  0.4958252E+03  0.7546771E-02  0.1014874E+00
         21   -1    0    0  502  501  0.00000000000E+00  0.00000000000E+00  0.10439815863E+03  0.10439815863E+03  0.00000000000E+00 0.  1.
         21   -1    0    0  501  502 -0.00000000000E+00 -0.00000000000E+00 -0.23548560219E+04  0.23548560219E+04  0.00000000000E+00 0.  1.
         25    1    1    2    0    0  0.32061009558E+03  0.26183288338E+03 -0.74576593243E+03  0.86205517119E+03  0.12500000000E+03 0.  0.
         25    1    1    2    0    0 -0.17645834933E+03 -0.23426549096E+03 -0.11514934020E+04  0.11948137613E+04  0.12500000000E+03 0.  0.
         25    1    1    2    0    0 -0.14415174625E+03 -0.27567392417E+02 -0.35319852877E+03  0.40238524799E+03  0.12500000000E+03 0.  0.
</event>
<event>
 5    0  0.5641283E-005  0.2566998E+03  0.7546771E-02  0.1109142E+00
         21   -1    0    0  502  501  0.00000000000E+00  0.00000000000E+00  0.23128040930E+04  0.23128040930E+04  0.00000000000E+00 0. -1.
         21   -1    0    0  501  502 -0.00000000000E+00 -0.00000000000E+00 -0.28491305360E+02  0.28491305360E+02  0.00000000000E+00 0.  1.
         25    1    1    2    0    0  0.84751588273E+02  0.26721741850E+02  0.31951371732E+03  0.35441627891E+03  0.12500000000E+03 0.  0.
         25    1    1    2    0    0 -0.92339538055E+02 -0.31257085572E+02  0.81513164510E+03  0.83040242927E+03  0.12500000000E+03 0.  0.
         25    1    1    2    0    0  0.75879497816E+01  0.45353437228E+01  0.11496674252E+04  0.11564766902E+04  0.12500000000E+03 0.  0.
</event>
<event>
 5    0  0.5641283E-005  0.3581534E+03  0.7546771E-02  0.1059317E+00
         21   -1    0    0  502  501  0.00000000000E+00  0.00000000000E+00  0.41109764816E+03  0.41109764816E+03  0.00000000000E+00 0. -1.
         21   -1    0    0  501  502 -0.00000000000E+00 -0.00000000000E+00 -0.31202779245E+03  0.31202779245E+03  0.00000000000E+00 0. -1.
         25    1    1    2    0    0  0.24892800841E+03  0.60342597420E+02  0.11474127987E+03  0.30724085624E+03  0.12500000000E+03 0.  0.
         25    1    1    2    0    0 -0.76985948638E+01  0.28347167745E+02  0.10808187507E+02  0.12885902064E+03  0.12500000000E+03 0.  0.
         25    1    1    2    0    0 -0.24122941355E+03 -0.88689765164E+02 -0.26479611668E+02  0.28702556374E+03  0.12500000000E+03 0.  0.
</event>
<event>
 5    0  0.5641283E-005  0.4250308E+03  0.7546771E-02  0.1035441E+00
         21   -1    0    0  502  501  0.00000000000E+00  0.00000000000E+00  0.12508178141E+03  0.12508178141E+03  0.00000000000E+00 0. -1.
         21   -1    0    0  501  502 -0.00000000000E+00 -0.00000000000E+00 -0.14442645526E+04  0.14442645526E+04  0.00000000000E+00 0. -1.
         25    1    1    2    0    0  0.22681643814E+02 -0.15741973804E+03 -0.51323537293E+03  0.55166201511E+03  0.12500000000E+03 0.  0.
         25    1    1    2    0    0  0.24991340432E+03  0.63412318427E+01 -0.43763745642E+03  0.51927686656E+03  0.12500000000E+03 0.  0.
         25    1    1    2    0    0 -0.27259504814E+03  0.15107850620E+03 -0.36830994188E+03  0.49840745238E+03  0.12500000000E+03 0.  0.
</event>
<event>
 5    0  0.5641283E-005  0.3087093E+03  0.7546771E-02  0.1080966E+00
         21   -1    0    0  502  501  0.00000000000E+00  0.00000000000E+00  0.90991923448E+02  0.90991923448E+02  0.00000000000E+00 0.  1.
         21   -1    0    0  501  502 -0.00000000000E+00 -0.00000000000E+00 -0.10473615434E+04  0.10473615434E+04  0.00000000000E+00 0.  1.
         25    1    1    2    0    0  0.17997697440E+02 -0.14376242040E+03 -0.77114656097E+02  0.20630855731E+03  0.12500000000E+03 0.  0.
         25    1    1    2    0    0 -0.19766194070E+02  0.10040707715E+03 -0.62351490466E+03  0.64410256939E+03  0.12500000000E+03 0.  0.
         25    1    1    2    0    0  0.17684966299E+01  0.43355343251E+02 -0.25574005918E+03  0.28794234013E+03  0.12500000000E+03 0.  0.
</event>
<event>
 5    0  0.5641283E-005  0.2669634E+03  0.7546771E-02  0.1103030E+00
         21   -1    0    0  502  501  0.00000000000E+00  0.00000000000E+00  0.11284905408E+03  0.11284905408E+03  0.00000000000E+00 0.  1.
         21   -1    0    0  501  502 -0.00000000000E+00 -0.00000000000E+00 -0.63154672977E+03  0.63154672977E+03  0.00000000000E+00 0.  1.
         25    1    1    2    0    0 -0.53657685334E+02  0.99269927757E+02 -0.31312657578E+03  0.35553750605E+03  0.12500000000E+03 0.  0.
         25    1    1    2    0    0  0.57681863284E+02 -0.12502046823E+03 -0.60409482944E+02  0.19552907829E+03  0.12500000000E+03 0.  0.
         25    1    1    2    0    0 -0.40241779496E+01  0.25750540475E+02 -0.14516161697E+03  0.19332919951E+03  0.12500000000E+03 0.  0.
</event>
<event>
 5    0  0.5641283E-005  0.3679070E+03  0.7546771E-02  0.1055496E+00
         21   -1    0    0  502  501  0.00000000000E+00  0.00000000000E+00  0.13161498032E+03  0.13161498032E+03  0.00000000000E+00 0.  1.
         21   -1    0    0  501  502 -0.00000000000E+00 -0.00000000000E+00 -0.10284204734E+04  0.10284204734E+04  0.00000000000E+00 0.  1.
         25    1    1    2    0    0  0.14149992150E+02 -0.74025156769E+02 -0.48544084869E+03  0.50691001538E+03  0.12500000000E+03 0.  0.
         25    1    1    2    0    0 -0.48415308385E+01  0.15165933261E+03 -0.45806131287E+03  0.49846680926E+03  0.12500000000E+03 0.  0.
         25    1    1    2    0    0 -0.93084613116E+01 -0.77634175845E+02  0.46696668462E+02  0.15465862911E+03  0.12500000000E+03 0.  0.
</event>
<event>
 5    0  0.5641283E-005  0.2514634E+03  0.7546771E-02  0.1112383E+00
         21   -1    0    0  502  501  0.00000000000E+00  0.00000000000E+00  0.45138759008E+02  0.45138759008E+02  0.00000000000E+00 0.  1.
         21   -1    0    0  501  502 -0.00000000000E+00 -0.00000000000E+00 -0.14008770883E+04  0.14008770883E+04  0.00000000000E+00 0.  1.
         25    1    1    2    0    0  0.42718153104E+02  0.83985481165E+01 -0.15623713160E+03  0.20476918105E+03  0.12500000000E+03 0.  0.
         25    1    1    2    0    0 -0.70894375722E+02 -0.69292658658E+02 -0.42708991231E+03  0.45591477082E+03  0.12500000000E+03 0.  0.
         25    1    1    2    0    0  0.28176222618E+02  0.60894110542E+02 -0.77241128540E+03  0.78533189547E+03  0.12500000000E+03 0.  0.
</event>
<event>
 5    0  0.5943831E-005  0.3569268E+03  0.7546771E-02  0.1059807E+00
         21   -1    0    0  502  501  0.00000000000E+00  0.00000000000E+00  0.31334734569E+03  0.31334734569E+03  0.00000000000E+00 0. -1.
         21   -1    0    0  501  502 -0.00000000000E+00 -0.00000000000E+00 -0.40656705939E+03  0.40656705939E+03  0.00000000000E+00 0. -1.
         25    1    1    2    0    0  0.14956661288E+03 -0.21291230702E+03  0.60976384101E+02  0.29503379736E+03  0.12500000000E+03 0.  0.
         25    1    1    2    0    0 -0.36519539401E+02  0.10707472997E+03 -0.15024897838E+03  0.22582831988E+03  0.12500000000E+03 0.  0.
         25    1    1    2    0    0 -0.11304707348E+03  0.10583757705E+03 -0.39471194099E+01  0.19905228783E+03  0.12500000000E+03 0.  0.
</event>
<event>
 5    0  0.5641283E-005  0.2518072E+03  0.7546771E-02  0.1112168E+00
         21   -1    0    0  502  501  0.00000000000E+00  0.00000000000E+00  0.20324401249E+03  0.20324401249E+03  0.00000000000E+00 0.  1.
         21   -1    0    0  501  502 -0.00000000000E+00 -0.00000000000E+00 -0.31197417033E+03  0.31197417033E+03  0.00000000000E+00 0.  1.
         25    1    1    2    0    0  0.10539206832E+02 -0.13789363452E+03 -0.36258834269E+02  0.18990901081E+03  0.12500000000E+03 0.  0.
         25    1    1    2    0    0 -0.27231667039E+02  0.14081624902E+03 -0.32677984622E+02  0.19303789876E+03  0.12500000000E+03 0.  0.
         25    1    1    2    0    0  0.16692460207E+02 -0.29226144990E+01 -0.39793338955E+02  0.13227127325E+03  0.12500000000E+03 0.  0.
</event>
<event>
 5    0  0.5641283E-005  0.2824776E+03  0.7546771E-02  0.1094343E+00
         21   -1    0    0  502  501  0.00000000000E+00  0.00000000000E+00  0.32710654077E+02  0.32710654077E+02  0.00000000000E+00 0.  1.
         21   -1    0    0  501  502 -0.00000000000E+00 -0.00000000000E+00 -0.24393760496E+04  0.24393760496E+04  0.00000000000E+00 0.  1.
         25    1    1    2    0    0  0.10375867128E+03  0.10676630961E+03 -0.13454776810E+04  0.13594484532E+04  0.12500000000E+03 0.  0.
         25    1    1    2    0    0  0.24575379499E+02 -0.79040446127E+02 -0.55808598685E+03  0.57787222646E+03  0.12500000000E+03 0.  0.
         25    1    1    2    0    0 -0.12833405078E+03 -0.27725863482E+02 -0.50310172773E+03  0.53476602411E+03  0.12500000000E+03 0.  0.
</event>
<event>
 5    0  0.5641283E-005  0.2327579E+03  0.7546771E-02  0.1124714E+00
         21   -1    0    0  502  501  0.00000000000E+00  0.00000000000E+00  0.23004538311E+03  0.23004538311E+03  0.00000000000E+00 0.  1.
         21   -1    0    0  501  502 -0.00000000000E+00 -0.00000000000E+00 -0.23550238084E+03  0.23550238084E+03  0.00000000000E+00 0.  1.
         25    1    1    2    0    0  0.59218738295E+02 -0.50261685340E+02  0.46586196444E+02  0.15436440547E+03  0.12500000000E+03 0.  0.
         25    1    1    2    0    0  0.23432120090E+02 -0.18792892545E+01 -0.79737324454E+02  0.15011874264E+03  0.12500000000E+03 0.  0.
         25    1    1    2    0    0 -0.82650858384E+02  0.52140974594E+02  0.27694130278E+02  0.16106461584E+03  0.12500000000E+03 0.  0.
</event>
<event>
 5    0  0.5641283E-005  0.2756782E+03  0.7546771E-02  0.1098073E+00
         21   -1    0    0  502  501  0.00000000000E+00  0.00000000000E+00  0.10269882675E+03  0.10269882675E+03  0.00000000000E+00 0. -1.
         21   -1    0    0  501  502 -0.00000000000E+00 -0.00000000000E+00 -0.74001299336E+03  0.74001299336E+03  0.00000000000E+00 0. -1.
         25    1    1    2    0    0 -0.52962704998E+02  0.82753957457E+02 -0.29985585552E+03  0.33939917455E+03  0.12500000000E+03 0.  0.
         25    1    1    2    0    0  0.11995395597E+03 -0.62472082770E+02 -0.64663384845E+02  0.19518725885E+03  0.12500000000E+03 0.  0.
         25    1    1    2    0    0 -0.66991250968E+02 -0.20281874687E+02 -0.27279492624E+03  0.30812538670E+03  0.12500000000E+03 0.  0.
</event>
<event>
 5    0  0.5641283E-005  0.4983501E+03  0.7546771E-02  0.1014210E+00
         21   -1    0    0  502  501  0.00000000000E+00  0.00000000000E+00  0.64945129979E+03  0.64945129979E+03  0.00000000000E+00 0.  1.
         21   -1    0    0  501  502 -0.00000000000E+00 -0.00000000000E+00 -0.38240414377E+03  0.38240414377E+03  0.00000000000E+00 0.  1.
         25    1    1    2    0    0  0.32546953801E+02 -0.46315334809E+02 -0.18674897438E+03  0.23174251632E+03  0.12500000000E+03 0.  0.
         25    1    1    2    0    0 -0.96245878770E+02  0.11892826311E+01 -0.12598431218E+03  0.20189534539E+03  0.12500000000E+03 0.  0.
         25    1    1    2    0    0  0.63698924969E+02  0.45126052178E+02  0.57978044258E+03  0.59821758185E+03  0.12500000000E+03 0.  0.
</event>
<event>
 5    0  0.5641283E-005  0.3691676E+03  0.7546771E-02  0.1055012E+00
         21   -1    0    0  502  501  0.00000000000E+00  0.00000000000E+00  0.18356033894E+04  0.18356033894E+04  0.00000000000E+00 0. -1.
         21   -1    0    0  501  502 -0.00000000000E+00 -0.00000000000E+00 -0.74245199737E+02  0.74245199737E+02  0.00000000000E+00 0. -1.
         25    1    1    2    0    0  0.74053631538E+01  0.11909262321E+02  0.11122872803E+03  0.16790920127E+03  0.12500000000E+03 0.  0.
         25    1    1    2    0    0  0.23650138308E+02 -0.24652448524E+03  0.10260151182E+04  0.10628573157E+04  0.12500000000E+03 0.  0.
         25    1    1    2    0    0 -0.31055501462E+02  0.23461522291E+03  0.62411434347E+03  0.67908207216E+03  0.12500000000E+03 0.  0.
</event>
<event>
 5    0  0.5641283E-005  0.2369171E+03  0.7546771E-02  0.1121864E+00
         21   -1    0    0  502  501  0.00000000000E+00  0.00000000000E+00  0.37732472513E+03  0.37732472513E+03  0.00000000000E+00 0. -1.
         21   -1    0    0  501  502 -0.00000000000E+00 -0.00000000000E+00 -0.14875701496E+03  0.14875701496E+03  0.00000000000E+00 0. -1.
         25    1    1    2    0    0  0.55151896277E+02 -0.47654313973E+02  0.17938185145E+01  0.14470965098E+03  0.12500000000E+03 0.  0.
         25    1    1    2    0    0 -0.22651994949E+02  0.24582660784E+02  0.12332794719E+02  0.12997891334E+03  0.12500000000E+03 0.  0.
         25    1    1    2    0    0 -0.32499901328E+02  0.23071653189E+02  0.21444109694E+03  0.25139317577E+03  0.12500000000E+03 0.  0.
</event>
<event>
 5    0  0.5641283E-005  0.4017712E+03  0.7546771E-02  0.1043168E+00
         21   -1    0    0  502  501  0.00000000000E+00  0.00000000000E+00  0.89713420829E+03  0.89713420829E+03  0.00000000000E+00 0. -1.
         21   -1    0    0  501  502 -0.00000000000E+00 -0.00000000000E+00 -0.17992858025E+03  0.17992858025E+03  0.00000000000E+00 0. -1.
         25    1    1    2    0    0  0.11413749501E+02  0.50073310692E+02  0.12630325735E+03  0.18497330331E+03  0.12500000000E+03 0.  0.
         25    1    1    2    0    0 -0.16367161052E+03  0.94546838206E+02  0.60625794899E+03  0.64722577314E+03  0.12500000000E+03 0.  0.
         25    1    1    2    0    0  0.15225786102E+03 -0.14462014890E+03 -0.15355578306E+02  0.24486371208E+03  0.12500000000E+03 0.  0.
</event>
<event>
 5    0  0.5641283E-005  0.3422126E+03  0.7546771E-02  0.1065857E+00
         21   -1    0    0  502  501  0.00000000000E+00  0.00000000000E+00  0.13667413988E+04  0.13667413988E+04  0.00000000000E+00 0. -1.
         21   -1    0    0  501  502 -0.00000000000E+00 -0.00000000000E+00 -0.85685178572E+02  0.85685178572E+02  0.00000000000E+00 0. -1.
         25    1    1    2    0    0  0.20447315841E+03 -0.65810667496E+02  0.73814254551E+03  0.77885796777E+03  0.12500000000E+03 0.  0.
         25    1    1    2    0    0 -0.99633534882E+02 -0.80674797799E+02  0.22987675524E+03  0.29138220068E+03  0.12500000000E+03 0.  0.
         25    1    1    2    0    0 -0.10483962353E+03  0.14648546529E+03  0.31303691946E+03  0.38218640890E+03  0.12500000000E+03 0.  0.
</event>
<event>
 5    0  0.5641283E-005  0.2557193E+03  0.7546771E-02  0.1109743E+00
         21   -1    0    0  502  501  0.00000000000E+00  0.00000000000E+00  0.22063117894E+04  0.22063117894E+04  0.00000000000E+00 0. -1.
         21   -1    0    0  501  502 -0.00000000000E+00 -0.00000000000E+00 -0.29638757313E+02  0.29638757313E+02  0.00000000000E+00 0. -1.
         25    1    1    2    0    0  0.53086017802E+02  0.78666815435E+02  0.37455974756E+03  0.40611155811E+03  0.12500000000E+03 0.  0.
         25    1    1    2    0    0 -0.61597194173E+02 -0.11302004306E+03  0.83654216475E+03  0.85556737774E+03  0.12500000000E+03 0.  0.
         25    1    1    2    0    0  0.85111763711E+01  0.34353227629E+02  0.96557111982E+03  0.97427161090E+03  0.12500000000E+03 0.  0.
</event>
<event>
 5    0  0.5641283E-005  0.2325320E+03  0.7546771E-02  0.1124870E+00
         21   -1    0    0  502  501  0.00000000000E+00  0.00000000000E+00  0.12895998788E+03  0.12895998788E+03  0.00000000000E+00 0. -1.
         21   -1    0    0  501  502 -0.00000000000E+00 -0.00000000000E+00 -0.41928618789E+03  0.41928618789E+03  0.00000000000E+00 0. -1.
         25    1    1    2    0    0  0.75904355874E+01 -0.80069961831E+02 -0.27982167251E+02  0.15125083532E+03  0.12500000000E+03 0.  0.
         25    1    1    2    0    0 -0.40923919437E+02  0.78905620915E+02 -0.20360058456E+03  0.25490991002E+03  0.12500000000E+03 0.  0.
         25    1    1    2    0    0  0.33333483850E+02  0.11643409157E+01 -0.58743448191E+02  0.14208543043E+03  0.12500000000E+03 0.  0.
</event>
<event>
 5    0  0.5641283E-005  0.3977402E+03  0.7546771E-02  0.1044565E+00
         21   -1    0    0  502  501  0.00000000000E+00  0.00000000000E+00  0.13139350452E+03  0.13139350452E+03  0.00000000000E+00 0. -1.
         21   -1    0    0  501  502 -0.00000000000E+00 -0.00000000000E+00 -0.12039958520E+04  0.12039958520E+04  0.00000000000E+00 0. -1.
         25    1    1    2    0    0  0.30556138300E+03 -0.10955794201E+02 -0.49931917640E+03  0.59869226496E+03  0.12500000000E+03 0.  0.
         25    1    1    2    0    0 -0.11409341439E+03 -0.10869692429E+03 -0.20699473408E+03  0.28862458054E+03  0.12500000000E+03 0.  0.
         25    1    1    2    0    0 -0.19146796861E+03  0.11965271849E+03 -0.36628843703E+03  0.44807251104E+03  0.12500000000E+03 0.  0.
</event>
<event>
 5    0  0.5641283E-005  0.3274900E+03  0.7546771E-02  0.1072253E+00
         21   -1    0    0  502  501  0.00000000000E+00  0.00000000000E+00  0.10225682184E+03  0.10225682184E+03  0.00000000000E+00 0.  1.
         21   -1    0    0  501  502 -0.00000000000E+00 -0.00000000000E+00 -0.10488271209E+04  0.10488271209E+04  0.00000000000E+00 0.  1.
         25    1    1    2    0    0 -0.22311983288E+03  0.52008282579E+02 -0.21090406136E+03  0.33554857231E+03  0.12500000000E+03 0.  0.
         25    1    1    2    0    0  0.12870742478E+03 -0.69629231596E+02 -0.36199159925E+03  0.40997164416E+03  0.12500000000E+03 0.  0.
         25    1    1    2    0    0  0.94412408101E+02  0.17620949017E+02 -0.37367463850E+03  0.40556372632E+03  0.12500000000E+03 0.  0.
</event>
<event>
 5    0  0.5641283E-005  0.3331404E+03  0.7546771E-02  0.1069756E+00
         21   -1    0    0  502  501  0.00000000000E+00  0.00000000000E+00  0.43340600034E+03  0.43340600034E+03  0.00000000000E+00 0. -1.
         21   -1    0    0  501  502 -0.00000000000E+00 -0.00000000000E+00 -0.25607051763E+03  0.25607051763E+03  0.00000000000E+00 0. -1.
         25    1    1    2    0    0 -0.92826395338E+02 -0.39843646229E+01  0.34380585530E+02  0.15949808618E+03  0.12500000000E+03 0.  0.
         25    1    1    2    0    0  0.89130219576E+02  0.19147412780E+03  0.17626630651E+03  0.30216112998E+03  0.12500000000E+03 0.  0.
         25    1    1    2    0    0  0.36961757623E+01 -0.18748976318E+03 -0.33311409332E+02  0.22781730181E+03  0.12500000000E+03 0.  0.
</event>
<event>
 5    0  0.5641283E-005  0.2601901E+03  0.7546771E-02  0.1107029E+00
         21   -1    0    0  502  501  0.00000000000E+00  0.00000000000E+00  0.11416706653E+03  0.11416706653E+03  0.00000000000E+00 0.  1.
         21   -1    0    0  501  502 -0.00000000000E+00 -0.00000000000E+00 -0.59298098512E+03  0.59298098512E+03  0.00000000000E+00 0.  1.
         25    1    1    2    0    0  0.98221876768E+02  0.42007035964E+02 -0.83269790808E+02  0.18431219766E+03  0.12500000000E+03 0.  0.
         25    1    1    2    0    0  0.41202862304E+02 -0.69248992805E+02 -0.13521080551E+03  0.20099766365E+03  0.12500000000E+03 0.  0.
         25    1    1    2    0    0 -0.13942473907E+03  0.27241956841E+02 -0.26033332226E+03  0.32183819033E+03  0.12500000000E+03 0.  0.
</event>
<event>
 5    0  0.5641283E-005  0.3698987E+03  0.7546771E-02  0.1054732E+00
         21   -1    0    0  502  501  0.00000000000E+00  0.00000000000E+00  0.23193153133E+03  0.23193153133E+03  0.00000000000E+00 0.  1.
         21   -1    0    0  501  502 -0.00000000000E+00 -0.00000000000E+00 -0.58993737848E+03  0.58993737848E+03  0.00000000000E+00 0.  1.
         25    1    1    2    0    0  0.35492364344E+02  0.11310484280E+03  0.12954716381E+03  0.21554554285E+03  0.12500000000E+03 0.  0.
         25    1    1    2    0    0  0.84790493993E+02 -0.96796033728E+02 -0.30583563170E+03  0.35456922263E+03  0.12500000000E+03 0.  0.
         25    1    1    2    0    0 -0.12028285834E+03 -0.16308809067E+02 -0.18171737926E+03  0.25175414433E+03  0.12500000000E+03 0.  0.
</event>
<event>
 5    0  0.6114530E-005  0.2930329E+03  0.7546771E-02  0.1088776E+00
         21   -1    0    0  502  501  0.00000000000E+00  0.00000000000E+00  0.51976876093E+02  0.51976876093E+02  0.00000000000E+00 0. -1.
         21   -1    0    0  501  502 -0.00000000000E+00 -0.00000000000E+00 -0.16520481483E+04  0.16520481483E+04  0.00000000000E+00 0. -1.
         25    1    1    2    0    0  0.72596943479E+02  0.32267729245E+02 -0.17880987747E+03  0.23218418300E+03  0.12500000000E+03 0.  0.
         25    1    1    2    0    0  0.12692017726E+02  0.95962793110E+02 -0.37533219265E+03  0.40727042590E+03  0.12500000000E+03 0.  0.
         25    1    1    2    0    0 -0.85288961205E+02 -0.12823052235E+03 -0.10459292020E+04  0.10645704154E+04  0.12500000000E+03 0.  0.
</event>
<event>
 5    0  0.5641283E-005  0.4177773E+03  0.7546771E-02  0.1037792E+00
         21   -1    0    0  502  501  0.00000000000E+00  0.00000000000E+00  0.15594659309E+03  0.15594659309E+03  0.00000000000E+00 0.  1.
         21   -1    0    0  501  502 -0.00000000000E+00 -0.00000000000E+00 -0.11192157282E+04  0.11192157282E+04  0.00000000000E+00 0.  1.
         25    1    1    2    0    0  0.92099081800E+02  0.48513950518E+02 -0.47005696363E+02  0.16932329950E+03  0.12500000000E+03 0.  0.
         25    1    1    2    0    0 -0.25265830930E+03  0.11242489621E+03 -0.71742000193E+03  0.77896857300E+03  0.12500000000E+03 0.  0.
         25    1    1    2    0    0  0.16055922750E+03 -0.16093884673E+03 -0.19884343680E+03  0.32687044877E+03  0.12500000000E+03 0.  0.
</event>
<event>
 5    0  0.5641283E-005  0.2384207E+03  0.7546771E-02  0.1120849E+00
         21   -1    0    0  502  501  0.00000000000E+00  0.00000000000E+00  0.16939612204E+04  0.16939612204E+04  0.00000000000E+00 0. -1.
         21   -1    0    0  501  502 -0.00000000000E+00 -0.00000000000E+00 -0.33557109604E+02  0.33557109604E+02  0.00000000000E+00 0. -1.
         25    1    1    2    0    0 -0.60100815565E+02  0.38803775031E+02  0.10522898549E+04  0.10621001740E+04  0.12500000000E+03 0.  0.
         25    1    1    2    0    0  0.25223613722E+02 -0.16975987690E+02  0.21160187974E+03  0.24763838628E+03  0.12500000000E+03 0.  0.
         25    1    1    2    0    0  0.34877201844E+02 -0.21827787340E+02  0.39651237614E+03  0.41777976966E+03  0.12500000000E+03 0.  0.
</event>
<event>
 5    0  0.5641283E-005  0.5648610E+03  0.7546771E-02  0.9981115E-01
         21   -1    0    0  502  501  0.00000000000E+00  0.00000000000E+00  0.90699319209E+03  0.90699319209E+03  0.00000000000E+00 0. -1.
         21   -1    0    0  501  502 -0.00000000000E+00 -0.00000000000E+00 -0.35178650932E+03  0.35178650932E+03  0.00000000000E+00 0. -1.
         25    1    1    2    0    0 -0.95704756520E+02  0.11103834398E+03  0.39955241578E+02  0.19674942334E+03  0.12500000000E+03 0.  0.
         25    1    1    2    0    0 -0.11861734405E+03 -0.42769167459E+03  0.46798870156E+03  0.65698452616E+03  0.12500000000E+03 0.  0.
         25    1    1    2    0    0  0.21432210057E+03  0.31665333062E+03  0.47262739628E+02  0.40504575191E+03  0.12500000000E+03 0.  0.
</event>
<event>
 5    0  0.5641283E-005  0.4418328E+03  0.7546771E-02  0.1030186E+00
         21   -1    0    0  502  501  0.00000000000E+00  0.00000000000E+00  0.16567053296E+03  0.16567053296E+03  0.00000000000E+00 0.  1.
         21   -1    0    0  501  502 -0.00000000000E+00 -0.00000000000E+00 -0.11783400549E+04  0.11783400549E+04  0.00000000000E+00 0.  1.
         25    1    1    2    0    0 -0.15611845098E+03  0.65602011059E+02 -0.15952988046E+03  0.26410486052E+03  0.12500000000E+03 0.  0.
         25    1    1    2    0    0 -0.39377406291E+02  0.24021920228E+03 -0.41832233130E+03  0.49987440236E+03  0.12500000000E+03 0.  0.
         25    1    1    2    0    0  0.19549585727E+03 -0.30582121334E+03 -0.43481731019E+03  0.58003132500E+03  0.12500000000E+03 0.  0.
</event>
<event>
 5    0  0.5641283E-005  0.3988626E+03  0.7546771E-02  0.1044174E+00
         21   -1    0    0  502  501  0.00000000000E+00  0.00000000000E+00  0.25570307432E+03  0.25570307432E+03  0.00000000000E+00 0.  1.
         21   -1    0    0  501  502 -0.00000000000E+00 -0.00000000000E+00 -0.62217236699E+03  0.62217236699E+03  0.00000000000E+00 0.  1.
         25    1    1    2    0    0 -0.54481220308E+02  0.16050055933E+03 -0.12467243833E+03  0.24473832922E+03  0.12500000000E+03 0.  0.
         25    1    1    2    0    0 -0.25645586346E+02 -0.30175685594E+03 -0.27221174916E+03  0.42595672619E+03  0.12500000000E+03 0.  0.
         25    1    1    2    0    0  0.80126806653E+02  0.14125629661E+03  0.30414894815E+02  0.20718038590E+03  0.12500000000E+03 0.  0.
</event>
<event>
 5    0  0.5641283E-005  0.2625301E+03  0.7546771E-02  0.1105633E+00
         21   -1    0    0  502  501  0.00000000000E+00  0.00000000000E+00  0.78665318919E+02  0.78665318919E+02  0.00000000000E+00 0. -1.
         21   -1    0    0  501  502 -0.00000000000E+00 -0.00000000000E+00 -0.87614255675E+03  0.87614255675E+03  0.00000000000E+00 0. -1.
         25    1    1    2    0    0 -0.11402871215E+03  0.43633631612E+02 -0.39487927460E+03  0.43181139692E+03  0.12500000000E+03 0.  0.
         25    1    1    2    0    0  0.13081105521E+03 -0.85548595786E+02 -0.22419303004E+03  0.30052888235E+03  0.12500000000E+03 0.  0.
         25    1    1    2    0    0 -0.16782343060E+02  0.41914964174E+02 -0.17840493319E+03  0.22246759640E+03  0.12500000000E+03 0.  0.
</event>
<event>
 5    0  0.5641283E-005  0.2446359E+03  0.7546771E-02  0.1116743E+00
         21   -1    0    0  502  501  0.00000000000E+00  0.00000000000E+00  0.11942483755E+04  0.11942483755E+04  0.00000000000E+00 0.  1.
         21   -1    0    0  501  502 -0.00000000000E+00 -0.00000000000E+00 -0.50112457166E+02  0.50112457166E+02  0.00000000000E+00 0.  1.
         25    1    1    2    0    0  0.59707042074E+02 -0.10277689087E+02  0.76045558538E+03  0.77303832964E+03  0.12500000000E+03 0.  0.
         25    1    1    2    0    0  0.93485312667E+01  0.30468861070E+02  0.19562254280E+03  0.23432653666E+03  0.12500000000E+03 0.  0.
         25    1    1    2    0    0 -0.69055573340E+02 -0.20191171983E+02  0.18805779018E+03  0.23699596639E+03  0.12500000000E+03 0.  0.
</event>
<event>
 5    0  0.5641283E-005  0.3839919E+03  0.7546771E-02  0.1049468E+00
         21   -1    0    0  502  501  0.00000000000E+00  0.00000000000E+00  0.13527447126E+04  0.13527447126E+04  0.00000000000E+00 0. -1.
         21   -1    0    0  501  502 -0.00000000000E+00 -0.00000000000E+00 -0.10900043508E+03  0.10900043508E+03  0.00000000000E+00 0. -1.
         25    1    1    2    0    0  0.28178983385E+02 -0.17731134835E+03  0.37870927734E+03  0.43735464568E+03  0.12500000000E+03 0.  0.
         25    1    1    2    0    0 -0.19375961660E+03 -0.36324877855E+02  0.51081883807E+03  0.56162547227E+03  0.12500000000E+03 0.  0.
         25    1    1    2    0    0  0.16558063322E+03  0.21363622621E+03  0.35421616212E+03  0.46276502974E+03  0.12500000000E+03 0.  0.
</event>
<event>
 5    0  0.5641283E-005  0.2937816E+03  0.7546771E-02  0.1088391E+00
         21   -1    0    0  502  501  0.00000000000E+00  0.00000000000E+00  0.11599146770E+03  0.11599146770E+03  0.00000000000E+00 0. -1.
         21   -1    0    0  501  502 -0.00000000000E+00 -0.00000000000E+00 -0.74408617788E+03  0.74408617788E+03  0.00000000000E+00 0. -1.
         25    1    1    2    0    0 -0.31102892610E+02  0.11916820715E+02 -0.24496703703E+02  0.13166050675E+03  0.12500000000E+03 0.  0.
         25    1    1    2    0    0 -0.62782005147E+02  0.76697220822E+02 -0.49121412490E+03  0.51646912817E+03  0.12500000000E+03 0.  0.
         25    1    1    2    0    0  0.93884897757E+02 -0.88614041537E+02 -0.11238388157E+03  0.21194801066E+03  0.12500000000E+03 0.  0.
</event>
<event>
 5    0  0.5641283E-005  0.4232300E+03  0.7546771E-02  0.1036020E+00
         21   -1    0    0  502  501  0.00000000000E+00  0.00000000000E+00  0.23864322659E+03  0.23864322659E+03  0.00000000000E+00 0. -1.
         21   -1    0    0  501  502 -0.00000000000E+00 -0.00000000000E+00 -0.75059162171E+03  0.75059162171E+03  0.00000000000E+00 0. -1.
         25    1    1    2    0    0 -0.87795619842E+02  0.15521175894E+03 -0.27959749395E+03  0.35439881433E+03  0.12500000000E+03 0.  0.
         25    1    1    2    0    0  0.15365888995E+03  0.11223624641E+03 -0.24192924281E+03  0.33220895231E+03  0.12500000000E+03 0.  0.
         25    1    1    2    0    0 -0.65863270106E+02 -0.26744800535E+03  0.95783416456E+01  0.30262708164E+03  0.12500000000E+03 0.  0.
</event>
<event>
 5    0  0.5641283E-005  0.4028724E+03  0.7546771E-02  0.1042790E+00
         21   -1    0    0  502  501  0.00000000000E+00  0.00000000000E+00  0.10738298135E+04  0.10738298135E+04  0.00000000000E+00 0. -1.
         21   -1    0    0  501  502 -0.00000000000E+00 -0.00000000000E+00 -0.15114701855E+03  0.15114701855E+03  0.00000000000E+00 0. -1.
         25    1    1    2    0    0  0.20016844586E+03 -0.20422278477E+03  0.45677586982E+03  0.55321202787E+03  0.12500000000E+03 0.  0.
         25    1    1    2    0    0 -0.21515537386E+03  0.24710306484E+03  0.32779533785E+03  0.48002764824E+03  0.12500000000E+03 0.  0.
         25    1    1    2    0    0  0.14986928009E+02 -0.42880280075E+02  0.13811158733E+03  0.19173715598E+03  0.12500000000E+03 0.  0.
</event>
<event>
 5    0  0.5641283E-005  0.2299190E+03  0.7546771E-02  0.1126697E+00
         21   -1    0    0  502  501  0.00000000000E+00  0.00000000000E+00  0.45992158471E+03  0.45992158471E+03  0.00000000000E+00 0.  1.
         21   -1    0    0  501  502 -0.00000000000E+00 -0.00000000000E+00 -0.11493862709E+03  0.11493862709E+03  0.00000000000E+00 0.  1.
         25    1    1    2    0    0 -0.43200022948E+02 -0.22111733409E+02  0.19355638361E+03  0.23546601532E+03  0.12500000000E+03 0.  0.
         25    1    1    2    0    0  0.33475398148E+02  0.71706513322E+02  0.14065323346E+03  0.20413416768E+03  0.12500000000E+03 0.  0.
         25    1    1    2    0    0  0.97246248000E+01 -0.49594779913E+02  0.10773340551E+02  0.13526002879E+03  0.12500000000E+03 0.  0.
</event>
<event>
 5    0  0.5641283E-005  0.2975472E+03  0.7546771E-02  0.1086473E+00
         21   -1    0    0  502  501  0.00000000000E+00  0.00000000000E+00  0.13718462639E+03  0.13718462639E+03  0.00000000000E+00 0. -1.
         21   -1    0    0  501  502 -0.00000000000E+00 -0.00000000000E+00 -0.64536618618E+03  0.64536618618E+03  0.00000000000E+00 0. -1.
         25    1    1    2    0    0 -0.11719243204E+03 -0.35223662555E+02 -0.37247400694E+03  0.41150535644E+03  0.12500000000E+03 0.  0.
         25    1    1    2    0    0 -0.96644810115E+01 -0.52090397012E+02 -0.98127452234E+01  0.13611796951E+03  0.12500000000E+03 0.  0.
         25    1    1    2    0    0  0.12685691305E+03  0.87314059568E+02 -0.12589480763E+03  0.23492748663E+03  0.12500000000E+03 0.  0.
</event>
<event>
 5    0  0.5641283E-005  0.3587262E+03  0.7546771E-02  0.1059089E+00
         21   -1    0    0  502  501  0.00000000000E+00  0.00000000000E+00  0.11418489017E+04  0.11418489017E+04  0.00000000000E+00 0.  1.
         21   -1    0    0  501  502 -0.00000000000E+00 -0.00000000000E+00 -0.11269837609E+03  0.11269837609E+03  0.00000000000E+00 0.  1.
         25    1    1    2    0    0  0.59362098087E+01 -0.13767924987E+03  0.56386210232E+03  0.59376450287E+03  0.12500000000E+03 0.  0.
         25    1    1    2    0    0 -0.46591044710E+01  0.26351441164E+03  0.28199158678E+03  0.40571641255E+03  0.12500000000E+03 0.  0.
         25    1    1    2    0    0 -0.12771053377E+01 -0.12583516177E+03  0.18329683647E+03  0.25506636234E+03  0.12500000000E+03 0.  0.
</event>
<event>
 5    0  0.5641283E-005  0.4008826E+03  0.7546771E-02  0.1043475E+00
         21   -1    0    0  502  501  0.00000000000E+00  0.00000000000E+00  0.63818553885E+03  0.63818553885E+03  0.00000000000E+00 0. -1.
         21   -1    0    0  501  502 -0.00000000000E+00 -0.00000000000E+00 -0.25181835529E+03  0.25181835529E+03  0.00000000000E+00 0. -1.
         25    1    1    2    0    0 -0.24826870386E+03 -0.12577414986E+03  0.68219173009E+02  0.31262652104E+03  0.12500000000E+03 0.  0.
         25    1    1    2    0    0  0.26572743614E+03  0.14451725828E+03  0.13472487412E+03  0.35393798887E+03  0.12500000000E+03 0.  0.
         25    1    1    2    0    0 -0.17458732278E+02 -0.18743108424E+02  0.18342313643E+03  0.22343938423E+03  0.12500000000E+03 0.  0.
</event>
<event>
 5    0  0.5641283E-005  0.2348373E+03  0.7546771E-02  0.1123281E+00
         21   -1    0    0  502  501  0.00000000000E+00  0.00000000000E+00  0.46323949962E+02  0.46323949962E+02  0.00000000000E+00 0.  1.
         21   -1    0    0  501  502 -0.00000000000E+00 -0.00000000000E+00 -0.11904975159E+04  0.11904975159E+04  0.00000000000E+00 0.  1.
         25    1    1    2    0    0 -0.53527501741E+02  0.50781956234E+02 -0.24492895027E+03  0.28470895877E+03  0.12500000000E+03 0.  0.
         25    1    1    2    0    0 -0.18594843643E+02 -0.46352937220E+02 -0.22178188763E+03  0.25943509531E+03  0.12500000000E+03 0.  0.
         25    1    1    2    0    0  0.72122345384E+02 -0.44290190145E+01 -0.67746272801E+03  0.69267741175E+03  0.12500000000E+03 0.  0.
</event>
<event>
 5    0  0.5641283E-005  0.3878942E+03  0.7546771E-02  0.1048054E+00
         21   -1    0    0  502  501  0.00000000000E+00  0.00000000000E+00  0.37109949996E+03  0.37109949996E+03  0.00000000000E+00 0. -1.
         21   -1    0    0  501  502 -0.00000000000E+00 -0.00000000000E+00 -0.40544899685E+03  0.40544899685E+03  0.00000000000E+00 0. -1.
         25    1    1    2    0    0 -0.14122909013E+03  0.75403733019E+02  0.89586225557E+02  0.22199565460E+03  0.12500000000E+03 0.  0.
         25    1    1    2    0    0  0.18826103949E+03 -0.83199552930E+01  0.12930940625E+03  0.26049445904E+03  0.12500000000E+03 0.  0.
         25    1    1    2    0    0 -0.47031949363E+02 -0.67083777726E+02 -0.25324512871E+03  0.29405838316E+03  0.12500000000E+03 0.  0.
</event>
<event>
 5    0  0.5641283E-005  0.5428217E+03  0.7546771E-02  0.1003169E+00
         21   -1    0    0  502  501  0.00000000000E+00  0.00000000000E+00  0.40386460693E+04  0.40386460693E+04  0.00000000000E+00 0.  1.
         21   -1    0    0  501  502 -0.00000000000E+00 -0.00000000000E+00 -0.72958957864E+02  0.72958957864E+02  0.00000000000E+00 0.  1.
         25    1    1    2    0    0 -0.13072793051E+03  0.16991617413E+03  0.23334421800E+04  0.23466015225E+04  0.12500000000E+03 0.  0.
         25    1    1    2    0    0 -0.22553643578E+03 -0.65800628985E+02  0.84158049269E+03  0.88265459400E+03  0.12500000000E+03 0.  0.
         25    1    1    2    0    0  0.35626436629E+03 -0.10411554514E+03  0.79066443875E+03  0.88234891066E+03  0.12500000000E+03 0.  0.
</event>
<event>
 5    0  0.5641283E-005  0.3317354E+03  0.7546771E-02  0.1070372E+00
         21   -1    0    0  502  501  0.00000000000E+00  0.00000000000E+00  0.41102902687E+02  0.41102902687E+02  0.00000000000E+00 0.  1.
         21   -1    0    0  501  502 -0.00000000000E+00 -0.00000000000E+00 -0.26773869505E+04  0.26773869505E+04  0.00000000000E+00 0.  1.
         25    1    1    2    0    0 -0.22541379572E+03  0.17905636212E+01 -0.15442675612E+04  0.15656314656E+04  0.12500000000E+03 0.  0.
         25    1    1    2    0    0  0.52503666466E+02 -0.32881382569E+02 -0.28179182890E+03  0.31443513663E+03  0.12500000000E+03 0.  0.
         25    1    1    2    0    0  0.17291012926E+03  0.31090818948E+02 -0.81022465765E+03  0.83842325092E+03  0.12500000000E+03 0.  0.
</event>
<event>
 5    0  0.5641283E-005  0.2846520E+03  0.7546771E-02  0.1093175E+00
         21   -1    0    0  502  501  0.00000000000E+00  0.00000000000E+00  0.31943535986E+03  0.31943535986E+03  0.00000000000E+00 0.  1.
         21   -1    0    0  501  502 -0.00000000000E+00 -0.00000000000E+00 -0.25365620277E+03  0.25365620277E+03  0.00000000000E+00 0.  1.
         25    1    1    2    0    0 -0.53584664250E+02  0.77152221750E+02  0.29606535284E+02  0.15913933673E+03  0.12500000000E+03 0.  0.
         25    1    1    2    0    0  0.13490147035E+03 -0.15302994698E+03  0.55258510112E+02  0.24555055348E+03  0.12500000000E+03 0.  0.
         25    1    1    2    0    0 -0.81316806097E+02  0.75877725234E+02 -0.19085888298E+02  0.16840167242E+03  0.12500000000E+03 0.  0.
</event>
<event>
 5    0  0.5641283E-005  0.5393052E+03  0.7546771E-02  0.1004000E+00
         21   -1    0    0  502  501  0.00000000000E+00  0.00000000000E+00  0.15351241510E+04  0.15351241510E+04  0.00000000000E+00 0. -1.
         21   -1    0    0  501  502 -0.00000000000E+00 -0.00000000000E+00 -0.18946353457E+03  0.18946353457E+03  0.00000000000E+00 0. -1.
         25    1    1    2    0    0 -0.36797375586E+03  0.60662425453E+01  0.10439206339E+04  0.11139285319E+04  0.12500000000E+03 0.  0.
         25    1    1    2    0    0  0.28273798234E+03  0.53051390386E+02  0.31892493883E+03  0.44731793311E+03  0.12500000000E+03 0.  0.
         25    1    1    2    0    0  0.85235773527E+02 -0.59117632932E+02 -0.17184956292E+02  0.16334122056E+03  0.12500000000E+03 0.  0.
</event>
<event>
 5    0  0.5641283E-005  0.4546524E+03  0.7546771E-02  0.1026344E+00
         21   -1    0    0  502  501  0.00000000000E+00  0.00000000000E+00  0.78803763600E+03  0.78803763600E+03  0.00000000000E+00 0. -1.
         21   -1    0    0  501  502 -0.00000000000E+00 -0.00000000000E+00 -0.26230831308E+03  0.26230831308E+03  0.00000000000E+00 0. -1.
         25    1    1    2    0    0  0.12544997868E+03  0.13201475897E+03 -0.74789585829E+02  0.23320393625E+03  0.12500000000E+03 0.  0.
         25    1    1    2    0    0  0.66232670211E+02  0.51200768169E+02  0.17383328322E+01  0.15045367083E+03  0.12500000000E+03 0.  0.
         25    1    1    2    0    0 -0.19168264889E+03 -0.18321552714E+03  0.59878057591E+03  0.66668834200E+03  0.12500000000E+03 0.  0.
</event>
<event>
 5    0  0.5641283E-005  0.2458675E+03  0.7546771E-02  0.1115945E+00
         21   -1    0    0  502  501  0.00000000000E+00  0.00000000000E+00  0.84311919343E+03  0.84311919343E+03  0.00000000000E+00 0.  1.
         21   -1    0    0  501  502 -0.00000000000E+00 -0.00000000000E+00 -0.71699048848E+02  0.71699048848E+02  0.00000000000E+00 0.  1.
         25    1    1    2    0    0  0.41507325673E+01 -0.11909817406E+03  0.38897227917E+03  0.42558904780E+03  0.12500000000E+03 0.  0.
         25    1    1    2    0    0 -0.37914953381E+02  0.70696129835E+02  0.11382767870E+03  0.18712890451E+03  0.12500000000E+03 0.  0.
         25    1    1    2    0    0  0.33764220813E+02  0.48402044223E+02  0.26862018671E+03  0.30210028997E+03  0.12500000000E+03 0.  0.
</event>
<event>
 5    0  0.5641283E-005  0.3024867E+03  0.7546771E-02  0.1084004E+00
         21   -1    0    0  502  501  0.00000000000E+00  0.00000000000E+00  0.27338516746E+03  0.27338516746E+03  0.00000000000E+00 0.  1.
         21   -1    0    0  501  502 -0.00000000000E+00 -0.00000000000E+00 -0.33468595036E+03  0.33468595036E+03  0.00000000000E+00 0.  1.
         25    1    1    2    0    0  0.30402840522E+01  0.14267294595E+02 -0.88159146916E+02  0.15365491924E+03  0.12500000000E+03 0.  0.
         25    1    1    2    0    0 -0.51559934294E+02 -0.14971123894E+03  0.12773768959E+03  0.23877562529E+03  0.12500000000E+03 0.  0.
         25    1    1    2    0    0  0.48519650242E+02  0.13544394435E+03 -0.10087932557E+03  0.21564057329E+03  0.12500000000E+03 0.  0.
</event>
<event>
 5    0  0.5641283E-005  0.4870189E+03  0.7546771E-02  0.1017224E+00
         21   -1    0    0  502  501  0.00000000000E+00  0.00000000000E+00  0.80042989373E+03  0.80042989373E+03  0.00000000000E+00 0.  1.
         21   -1    0    0  501  502 -0.00000000000E+00 -0.00000000000E+00 -0.29632508417E+03  0.29632508417E+03  0.00000000000E+00 0.  1.
         25    1    1    2    0    0 -0.12138603163E+03  0.98962436548E+02 -0.79443533536E+01  0.20053988450E+03  0.12500000000E+03 0.  0.
         25    1    1    2    0    0 -0.25995227914E+03  0.67968333500E+02  0.25706398649E+03  0.39230316713E+03  0.12500000000E+03 0.  0.
         25    1    1    2    0    0  0.38133831077E+03 -0.16693077005E+03  0.25498517642E+03  0.50391192628E+03  0.12500000000E+03 0.  0.
</event>
<event>
 5    0  0.5641283E-005  0.3033090E+03  0.7546771E-02  0.1083598E+00
         21   -1    0    0  502  501  0.00000000000E+00  0.00000000000E+00  0.29226531611E+03  0.29226531611E+03  0.00000000000E+00 0.  1.
         21   -1    0    0  501  502 -0.00000000000E+00 -0.00000000000E+00 -0.31476992427E+03  0.31476992427E+03  0.00000000000E+00 0.  1.
         25    1    1    2    0    0  0.76706964414E+02  0.16616109132E+03  0.11541168425E+03  0.24987661659E+03  0.12500000000E+03 0.  0.
         25    1    1    2    0    0 -0.60742563705E+02 -0.31060352274E+02 -0.39259603984E+02  0.14771838421E+03  0.12500000000E+03 0.  0.
         25    1    1    2    0    0 -0.15964400709E+02 -0.13510073904E+03 -0.98656688430E+02  0.20944023957E+03  0.12500000000E+03 0.  0.
</event>
<event>
 5    0  0.5641283E-005  0.3738328E+03  0.7546771E-02  0.1053237E+00
         21   -1    0    0  502  501  0.00000000000E+00  0.00000000000E+00  0.10186328262E+03  0.10186328262E+03  0.00000000000E+00 0. -1.
         21   -1    0    0  501  502 -0.00000000000E+00 -0.00000000000E+00 -0.13719465573E+04  0.13719465573E+04  0.00000000000E+00 0. -1.
         25    1    1    2    0    0 -0.22010354486E+02  0.62205606553E+02 -0.24857487683E+03  0.28595185361E+03  0.12500000000E+03 0.  0.
         25    1    1    2    0    0 -0.14987861927E+03 -0.13611631447E+03 -0.13570315560E+03  0.27391896250E+03  0.12500000000E+03 0.  0.
         25    1    1    2    0    0  0.17188897376E+03  0.73910707922E+02 -0.88580524223E+03  0.91393902379E+03  0.12500000000E+03 0.  0.
</event>
<event>
 5    0  0.5641283E-005  0.2936778E+03  0.7546771E-02  0.1088444E+00
         21   -1    0    0  502  501  0.00000000000E+00  0.00000000000E+00  0.10844171185E+04  0.10844171185E+04  0.00000000000E+00 0. -1.
         21   -1    0    0  501  502 -0.00000000000E+00 -0.00000000000E+00 -0.79532700411E+02  0.79532700411E+02  0.00000000000E+00 0. -1.
         25    1    1    2    0    0  0.10857828698E+02 -0.85868347779E+01  0.36795736823E+02  0.13103645456E+03  0.12500000000E+03 0.  0.
         25    1    1    2    0    0 -0.41080521221E+02  0.41764065663E+02  0.14897347601E+03  0.20310081969E+03  0.12500000000E+03 0.  0.
         25    1    1    2    0    0  0.30222692523E+02 -0.33177230885E+02  0.81911520530E+03  0.82981254470E+03  0.12500000000E+03 0.  0.
</event>
<event>
 5    0  0.5641283E-005  0.2534532E+03  0.7546771E-02  0.1111142E+00
         21   -1    0    0  502  501  0.00000000000E+00  0.00000000000E+00  0.14153864864E+03  0.14153864864E+03  0.00000000000E+00 0.  1.
         21   -1    0    0  501  502 -0.00000000000E+00 -0.00000000000E+00 -0.45385871862E+03  0.45385871862E+03  0.00000000000E+00 0.  1.
         25    1    1    2    0    0  0.46855054301E+02  0.10531737548E+03 -0.14641499868E+03  0.22438693708E+03  0.12500000000E+03 0.  0.
         25    1    1    2    0    0 -0.58900362382E+02 -0.12895732776E+03 -0.43267468399E+02  0.19389770214E+03  0.12500000000E+03 0.  0.
         25    1    1    2    0    0  0.12045308081E+02  0.23639952277E+02 -0.12263760291E+03  0.17711272805E+03  0.12500000000E+03 0.  0.
</event>
<event>
 5    0  0.5641283E-005  0.2465081E+03  0.7546771E-02  0.1115532E+00
         21   -1    0    0  502  501  0.00000000000E+00  0.00000000000E+00  0.34813022478E+03  0.34813022478E+03  0.00000000000E+00 0. -1.
         21   -1    0    0  501  502 -0.00000000000E+00 -0.00000000000E+00 -0.17455027800E+03  0.17455027800E+03  0.00000000000E+00 0. -1.
         25    1    1    2    0    0  0.44495658419E+02 -0.82373290331E+02  0.78792753284E+02  0.17492432806E+03  0.12500000000E+03 0.  0.
         25    1    1    2    0    0 -0.31173090502E+02  0.38399540805E+02  0.15190618855E+03  0.20284668207E+03  0.12500000000E+03 0.  0.
         25    1    1    2    0    0 -0.13322567917E+02  0.43973749526E+02 -0.57118995061E+02  0.14490949265E+03  0.12500000000E+03 0.  0.
</event>
<event>
 5    0  0.6330140E-005  0.2860586E+03  0.7546771E-02  0.1092425E+00
         21   -1    0    0  502  501  0.00000000000E+00  0.00000000000E+00  0.71921033142E+03  0.71921033142E+03  0.00000000000E+00 0. -1.
         21   -1    0    0  501  502 -0.00000000000E+00 -0.00000000000E+00 -0.11377694000E+03  0.11377694000E+03  0.00000000000E+00 0. -1.
         25    1    1    2    0    0 -0.53878869181E+01 -0.11041111098E+03  0.33163280733E+03  0.37124784397E+03  0.12500000000E+03 0.  0.
         25    1    1    2    0    0  0.85636921137E+02  0.34842300381E+02  0.18106555281E+02  0.15652640513E+03  0.12500000000E+03 0.  0.
         25    1    1    2    0    0 -0.80249034219E+02  0.75568810601E+02  0.25569402881E+03  0.30521302233E+03  0.12500000000E+03 0.  0.
</event>
<event>
 5    0  0.5641283E-005  0.3239520E+03  0.7546771E-02  0.1073845E+00
         21   -1    0    0  502  501  0.00000000000E+00  0.00000000000E+00  0.16325319116E+03  0.16325319116E+03  0.00000000000E+00 0. -1.
         21   -1    0    0  501  502 -0.00000000000E+00 -0.00000000000E+00 -0.64283508409E+03  0.64283508409E+03  0.00000000000E+00 0. -1.
         25    1    1    2    0    0  0.10508608607E+03 -0.13178854448E+02 -0.30498571569E+03  0.34620522016E+03  0.12500000000E+03 0.  0.
         25    1    1    2    0    0 -0.56475394330E+02  0.16529392484E+03 -0.45739546438E+02  0.21961024079E+03  0.12500000000E+03 0.  0.
         25    1    1    2    0    0 -0.48610691736E+02 -0.15211507039E+03 -0.12885663080E+03  0.24027281430E+03  0.12500000000E+03 0.  0.
</event>
<event>
 5    0  0.5641283E-005  0.2310480E+03  0.7546771E-02  0.1125904E+00
         21   -1    0    0  502  501  0.00000000000E+00  0.00000000000E+00  0.57630748240E+03  0.57630748240E+03  0.00000000000E+00 0.  1.
         21   -1    0    0  501  502 -0.00000000000E+00 -0.00000000000E+00 -0.92629681602E+02  0.92629681602E+02  0.00000000000E+00 0.  1.
         25    1    1    2    0    0  0.34440041344E+02  0.14171070049E+02  0.17049140937E+03  0.21466079368E+03  0.12500000000E+03 0.  0.
         25    1    1    2    0    0  0.78883007161E+02  0.36095642437E+02  0.16159778459E+03  0.22195555458E+03  0.12500000000E+03 0.  0.
         25    1    1    2    0    0 -0.11332304851E+03 -0.50266712486E+02  0.15158860684E+03  0.23232081575E+03  0.12500000000E+03 0.  0.
</event>
<event>
 5    0  0.6334552E-005  0.4829219E+03  0.7546771E-02  0.1018335E+00
         21   -1    0    0  502  501  0.00000000000E+00  0.00000000000E+00  0.46090528062E+03  0.46090528062E+03  0.00000000000E+00 0.  1.
         21   -1    0    0  501  502 -0.00000000000E+00 -0.00000000000E+00 -0.50599020523E+03  0.50599020523E+03  0.00000000000E+00 0.  1.
         25    1    1    2    0    0 -0.20148897328E+02  0.25010480030E+03  0.77611911078E+02  0.29087282090E+03  0.12500000000E+03 0.  0.
         25    1    1    2    0    0  0.12391518820E+03 -0.16003993291E+03  0.19527189538E+03  0.30777242748E+03  0.12500000000E+03 0.  0.
         25    1    1    2    0    0 -0.10376629087E+03 -0.90064867388E+02 -0.31796873107E+03  0.36825023747E+03  0.12500000000E+03 0.  0.
</event>
<event>
 5    0  0.5641283E-005  0.3239727E+03  0.7546771E-02  0.1073835E+00
         21   -1    0    0  502  501  0.00000000000E+00  0.00000000000E+00  0.26443846742E+03  0.26443846742E+03  0.00000000000E+00 0.  1.
         21   -1    0    0  501  502 -0.00000000000E+00 -0.00000000000E+00 -0.39691026485E+03  0.39691026485E+03  0.00000000000E+00 0.  1.
         25    1    1    2    0    0 -0.10705901202E+03 -0.40554943767E+02  0.42848753469E+02  0.17483521153E+03  0.12500000000E+03 0.  0.
         25    1    1    2    0    0  0.14629109718E+02 -0.15195295796E+03 -0.12629072483E+03  0.23426066563E+03  0.12500000000E+03 0.  0.
         25    1    1    2    0    0  0.92429902300E+02  0.19250790173E+03 -0.49029826069E+02  0.25225285511E+03  0.12500000000E+03 0.  0.
</event>
<event>
 5    0  0.5641283E-005  0.3818484E+03  0.7546771E-02  0.1050253E+00
         21   -1    0    0  502  501  0.00000000000E+00  0.00000000000E+00  0.12778938662E+04  0.12778938662E+04  0.00000000000E+00 0.  1.
         21   -1    0    0  501  502 -0.00000000000E+00 -0.00000000000E+00 -0.11410039922E+03  0.11410039922E+03  0.00000000000E+00 0.  1.
         25    1    1    2    0    0 -0.44577830601E+02  0.10445653450E+03  0.79888686404E+02  0.18683027805E+03  0.12500000000E+03 0.  0.
         25    1    1    2    0    0  0.93928475370E+02  0.16313852896E+03  0.42255244878E+03  0.47917878718E+03  0.12500000000E+03 0.  0.
         25    1    1    2    0    0 -0.49350644769E+02 -0.26759506346E+03  0.66135233180E+03  0.72598520020E+03  0.12500000000E+03 0.  0.
</event>
<event>
 5    0  0.5641283E-005  0.2368920E+03  0.7546771E-02  0.1121881E+00
         21   -1    0    0  502  501  0.00000000000E+00  0.00000000000E+00  0.84984342668E+02  0.84984342668E+02  0.00000000000E+00 0. -1.
         21   -1    0    0  501  502 -0.00000000000E+00 -0.00000000000E+00 -0.66033124741E+03  0.66033124741E+03  0.00000000000E+00 0. -1.
         25    1    1    2    0    0  0.20158669051E+02 -0.28293057539E+02 -0.18941205356E+03  0.22958396084E+03  0.12500000000E+03 0.  0.
         25    1    1    2    0    0 -0.25702793967E+02  0.90645548451E+01 -0.21236690378E+02  0.12968730389E+03  0.12500000000E+03 0.  0.
         25    1    1    2    0    0  0.55441249153E+01  0.19228502694E+02 -0.36469816080E+03  0.38604432534E+03  0.12500000000E+03 0.  0.
</event>
<event>
 5    0  0.5641283E-005  0.4318992E+03  0.7546771E-02  0.1033262E+00
         21   -1    0    0  502  501  0.00000000000E+00  0.00000000000E+00  0.15967739494E+03  0.15967739494E+03  0.00000000000E+00 0.  1.
         21   -1    0    0  501  502 -0.00000000000E+00 -0.00000000000E+00 -0.11682113330E+04  0.11682113330E+04  0.00000000000E+00 0.  1.
         25    1    1    2    0    0  0.99781229056E+00  0.81244670056E+02 -0.76463083061E+02  0.16755087321E+03  0.12500000000E+03 0.  0.
         25    1    1    2    0    0 -0.34638381401E+02  0.11595435160E+03  0.23968856764E+02  0.17562669277E+03  0.12500000000E+03 0.  0.
         25    1    1    2    0    0  0.33640569110E+02 -0.19719902165E+03 -0.95603971176E+03  0.98471116196E+03  0.12500000000E+03 0.  0.
</event>
<event>
 5    0  0.5641283E-005  0.3806475E+03  0.7546771E-02  0.1050695E+00
         21   -1    0    0  502  501  0.00000000000E+00  0.00000000000E+00  0.57221570628E+03  0.57221570628E+03  0.00000000000E+00 0. -1.
         21   -1    0    0  501  502 -0.00000000000E+00 -0.00000000000E+00 -0.25321314667E+03  0.25321314667E+03  0.00000000000E+00 0. -1.
         25    1    1    2    0    0  0.59663489164E+02  0.15909466621E+03  0.50427517677E+02  0.21688425322E+03  0.12500000000E+03 0.  0.
         25    1    1    2    0    0  0.17067279415E+03 -0.15491529596E+03  0.49271126330E+02  0.26679691803E+03  0.12500000000E+03 0.  0.
         25    1    1    2    0    0 -0.23033628331E+03 -0.41793702557E+01  0.21930391560E+03  0.34174768170E+03  0.12500000000E+03 0.  0.
</event>
<event>
 5    0  0.5641283E-005  0.4459880E+03  0.7546771E-02  0.1028925E+00
         21   -1    0    0  502  501  0.00000000000E+00  0.00000000000E+00  0.46125181650E+03  0.46125181650E+03  0.00000000000E+00 0. -1.
         21   -1    0    0  501  502 -0.00000000000E+00 -0.00000000000E+00 -0.43122933575E+03  0.43122933575E+03  0.00000000000E+00 0. -1.
         25    1    1    2    0    0 -0.32924641026E+02  0.19579021398E+03  0.13382794152E+03  0.27009768198E+03  0.12500000000E+03 0.  0.
         25    1    1    2    0    0  0.77619970369E+00 -0.35270255711E+03 -0.16676541557E+03  0.40967719012E+03  0.12500000000E+03 0.  0.
         25    1    1    2    0    0  0.32148441322E+02  0.15691234312E+03  0.62959954808E+02  0.21270628015E+03  0.12500000000E+03 0.  0.
</event>
<event>
 5    0  0.5641283E-005  0.6589217E+03  0.7546771E-02  0.9790181E-01
         21   -1    0    0  502  501  0.00000000000E+00  0.00000000000E+00  0.13063329395E+04  0.13063329395E+04  0.00000000000E+00 0. -1.
         21   -1    0    0  501  502 -0.00000000000E+00 -0.00000000000E+00 -0.33236379144E+03  0.33236379144E+03  0.00000000000E+00 0. -1.
         25    1    1    2    0    0  0.12973804355E+03  0.27747585153E+02  0.10068490512E+04  0.10232164485E+04  0.12500000000E+03 0.  0.
         25    1    1    2    0    0 -0.18623278922E+03  0.14537696131E+03 -0.20385848231E+03  0.33615531154E+03  0.12500000000E+03 0.  0.
         25    1    1    2    0    0  0.56494745675E+02 -0.17312454646E+03  0.17097857917E+03  0.27932497098E+03  0.12500000000E+03 0.  0.
</event>
<event>
 5    0  0.5641283E-005  0.3909929E+03  0.7546771E-02  0.1046944E+00
         21   -1    0    0  502  501  0.00000000000E+00  0.00000000000E+00  0.26287926236E+03  0.26287926236E+03  0.00000000000E+00 0.  1.
         21   -1    0    0  501  502 -0.00000000000E+00 -0.00000000000E+00 -0.58154245978E+03  0.58154245978E+03  0.00000000000E+00 0.  1.
         25    1    1    2    0    0  0.28866316025E+03 -0.30631075149E+02 -0.20652070830E+02  0.31672731312E+03  0.12500000000E+03 0.  0.
         25    1    1    2    0    0 -0.27880334540E+03  0.20656967565E+02 -0.18002877672E+03  0.35523707036E+03  0.12500000000E+03 0.  0.
         25    1    1    2    0    0 -0.98598148492E+01  0.99741075838E+01 -0.11798234987E+03  0.17245733865E+03  0.12500000000E+03 0.  0.
</event>
<event>
 5    0  0.5641283E-005  0.2248147E+03  0.7546771E-02  0.1130344E+00
         21   -1    0    0  502  501  0.00000000000E+00  0.00000000000E+00  0.97047341914E+03  0.97047341914E+03  0.00000000000E+00 0.  1.
         21   -1    0    0  501  502 -0.00000000000E+00 -0.00000000000E+00 -0.52079379696E+02  0.52079379696E+02  0.00000000000E+00 0.  1.
         25    1    1    2    0    0 -0.14642014033E+01  0.33211427840E+02  0.24863428407E+03  0.28026621281E+03  0.12500000000E+03 0.  0.
         25    1    1    2    0    0  0.83970951759E+02 -0.57087792317E+01  0.21380117062E+03  0.26157150352E+03  0.12500000000E+03 0.  0.
         25    1    1    2    0    0 -0.82506750355E+02 -0.27502648608E+02  0.45595858476E+03  0.48071508250E+03  0.12500000000E+03 0.  0.
</event>
<event>
 5    0  0.6228304E-005  0.2672001E+03  0.7546771E-02  0.1102893E+00
         21   -1    0    0  502  501  0.00000000000E+00  0.00000000000E+00  0.42352105901E+03  0.42352105901E+03  0.00000000000E+00 0.  1.
         21   -1    0    0  501  502 -0.00000000000E+00 -0.00000000000E+00 -0.16857693032E+03  0.16857693032E+03  0.00000000000E+00 0.  1.
         25    1    1    2    0    0 -0.33897180005E+02 -0.10744798316E+02 -0.34701496764E+02  0.13451268855E+03  0.12500000000E+03 0.  0.
         25    1    1    2    0    0  0.58776832567E+02 -0.71023006773E+02  0.31766642287E+02  0.15853423321E+03  0.12500000000E+03 0.  0.
         25    1    1    2    0    0 -0.24879652562E+02  0.81767805089E+02  0.25787898316E+03  0.29905106757E+03  0.12500000000E+03 0.  0.
</event>
<event>
 5    0  0.5641283E-005  0.4356420E+03  0.7546771E-02  0.1032092E+00
         21   -1    0    0  502  501  0.00000000000E+00  0.00000000000E+00  0.37645105389E+03  0.37645105389E+03  0.00000000000E+00 0. -1.
         21   -1    0    0  501  502 -0.00000000000E+00 -0.00000000000E+00 -0.50413986159E+03  0.50413986159E+03  0.00000000000E+00 0.  1.
         25    1    1    2    0    0  0.28126152312E+03 -0.22552672395E+03  0.86193080690E+02  0.39118358192E+03  0.12500000000E+03 0.  0.
         25    1    1    2    0    0 -0.15983537731E+03  0.13146509027E+03 -0.12780108916E+03  0.27347492790E+03  0.12500000000E+03 0.  0.
         25    1    1    2    0    0 -0.12142614582E+03  0.94061633682E+02 -0.86080799226E+02  0.21593240566E+03  0.12500000000E+03 0.  0.
</event>
<event>
 5    0  0.5641283E-005  0.3374373E+03  0.7546771E-02  0.1067893E+00
         21   -1    0    0  502  501  0.00000000000E+00  0.00000000000E+00  0.17093541746E+03  0.17093541746E+03  0.00000000000E+00 0.  1.
         21   -1    0    0  501  502 -0.00000000000E+00 -0.00000000000E+00 -0.66612233816E+03  0.66612233816E+03  0.00000000000E+00 0.  1.
         25    1    1    2    0    0 -0.84164257071E+01 -0.17590949276E+03 -0.31570108975E+02  0.21825823615E+03  0.12500000000E+03 0.  0.
         25    1    1    2    0    0  0.11610355461E+02  0.88683506917E+02 -0.26645215643E+02  0.15599529567E+03  0.12500000000E+03 0.  0.
         25    1    1    2    0    0 -0.31939297542E+01  0.87225985846E+02 -0.43697159608E+03  0.46280422381E+03  0.12500000000E+03 0.  0.
</event>
<event>
 5    0  0.5641283E-005  0.2659263E+03  0.7546771E-02  0.1103634E+00
         21   -1    0    0  502  501  0.00000000000E+00  0.00000000000E+00  0.74653753780E+02  0.74653753780E+02  0.00000000000E+00 0.  1.
         21   -1    0    0  501  502 -0.00000000000E+00 -0.00000000000E+00 -0.94726390790E+03  0.94726390790E+03  0.00000000000E+00 0.  1.
         25    1    1    2    0    0 -0.33601814264E+02 -0.11101010825E+03 -0.11172426645E+03  0.20386181047E+03  0.12500000000E+03 0.  0.
         25    1    1    2    0    0  0.44049011389E+02  0.11346170597E+03 -0.41867715021E+03  0.45357406257E+03  0.12500000000E+03 0.  0.
         25    1    1    2    0    0 -0.10447197126E+02 -0.24515977231E+01 -0.34220873745E+03  0.36448178864E+03  0.12500000000E+03 0.  0.
</event>
<event>
 5    0  0.5641283E-005  0.2947419E+03  0.7546771E-02  0.1087899E+00
         21   -1    0    0  502  501  0.00000000000E+00  0.00000000000E+00  0.12880383858E+03  0.12880383858E+03  0.00000000000E+00 0.  1.
         21   -1    0    0  501  502 -0.00000000000E+00 -0.00000000000E+00 -0.67445823506E+03  0.67445823506E+03  0.00000000000E+00 0.  1.
         25    1    1    2    0    0  0.74824515834E+02  0.10939956814E+03 -0.30110366117E+03  0.35193094273E+03  0.12500000000E+03 0.  0.
         25    1    1    2    0    0  0.40155425857E+02 -0.14086202762E+03 -0.18918594613E+03  0.26994608955E+03  0.12500000000E+03 0.  0.
         25    1    1    2    0    0 -0.11497994169E+03  0.31462459484E+02 -0.55364789182E+02  0.18138504136E+03  0.12500000000E+03 0.  0.
</event>
<event>
 5    0  0.5641283E-005  0.2917891E+03  0.7546771E-02  0.1089419E+00
         21   -1    0    0  502  501  0.00000000000E+00  0.00000000000E+00  0.55759363272E+03  0.55759363272E+03  0.00000000000E+00 0. -1.
         21   -1    0    0  501  502 -0.00000000000E+00 -0.00000000000E+00 -0.15269346138E+03  0.15269346138E+03  0.00000000000E+00 0. -1.
         25    1    1    2    0    0 -0.15717917668E+03  0.12011034499E+03  0.18205772913E+03  0.29648238614E+03  0.12500000000E+03 0.  0.
         25    1    1    2    0    0  0.13213201232E+03 -0.15999075373E+02  0.98066603448E+02  0.20726045885E+03  0.12500000000E+03 0.  0.
         25    1    1    2    0    0  0.25047164364E+02 -0.10411126961E+03  0.12477583876E+03  0.20654424911E+03  0.12500000000E+03 0.  0.
</event>
<event>
 5    0  0.5641283E-005  0.3872778E+03  0.7546771E-02  0.1048276E+00
         21   -1    0    0  502  501  0.00000000000E+00  0.00000000000E+00  0.83158097756E+03  0.83158097756E+03  0.00000000000E+00 0.  1.
         21   -1    0    0  501  502 -0.00000000000E+00 -0.00000000000E+00 -0.18036022429E+03  0.18036022429E+03  0.00000000000E+00 0.  1.
         25    1    1    2    0    0  0.56922552249E+02  0.26727159361E+03  0.23297799659E+03  0.38023417600E+03  0.12500000000E+03 0.  0.
         25    1    1    2    0    0  0.64467395354E+02 -0.52464414179E+02  0.26924959806E+02  0.15250742041E+03  0.12500000000E+03 0.  0.
         25    1    1    2    0    0 -0.12138994760E+03 -0.21480717943E+03  0.39131779687E+03  0.47919960545E+03  0.12500000000E+03 0.  0.
</event>
<event>
 5    0  0.5641283E-005  0.2489789E+03  0.7546771E-02  0.1113952E+00
         21   -1    0    0  502  501  0.00000000000E+00  0.00000000000E+00  0.54651229254E+03  0.54651229254E+03  0.00000000000E+00 0.  1.
         21   -1    0    0  501  502 -0.00000000000E+00 -0.00000000000E+00 -0.11342923816E+03  0.11342923816E+03  0.00000000000E+00 0.  1.
         25    1    1    2    0    0 -0.11585851846E+03 -0.28832614996E+02  0.12399786480E+03  0.21273219423E+03  0.12500000000E+03 0.  0.
         25    1    1    2    0    0  0.46253325250E+02 -0.68303556098E+02  0.13096549926E+03  0.19895152140E+03  0.12500000000E+03 0.  0.
         25    1    1    2    0    0  0.69605193213E+02  0.97136171093E+02  0.17811969032E+03  0.24825781506E+03  0.12500000000E+03 0.  0.
</event>
<event>
 5    0  0.5641283E-005  0.2642182E+03  0.7546771E-02  0.1104635E+00
         21   -1    0    0  502  501  0.00000000000E+00  0.00000000000E+00  0.47708464043E+02  0.47708464043E+02  0.00000000000E+00 0. -1.
         21   -1    0    0  501  502 -0.00000000000E+00 -0.00000000000E+00 -0.14632888248E+04  0.14632888248E+04  0.00000000000E+00 0. -1.
         25    1    1    2    0    0 -0.56984130985E+02  0.55075634162E+01 -0.14968501119E+03  0.20324400855E+03  0.12500000000E+03 0.  0.
         25    1    1    2    0    0  0.58312169409E+02 -0.69161387668E+02 -0.36912506202E+03  0.40007739009E+03  0.12500000000E+03 0.  0.
         25    1    1    2    0    0 -0.13280384244E+01  0.63653824252E+02 -0.89677028750E+03  0.90767589015E+03  0.12500000000E+03 0.  0.
</event>
<event>
 5    0  0.5641283E-005  0.2930067E+03  0.7546771E-02  0.1088790E+00
         21   -1    0    0  502  501  0.00000000000E+00  0.00000000000E+00  0.83260418030E+03  0.83260418030E+03  0.00000000000E+00 0.  1.
         21   -1    0    0  501  502 -0.00000000000E+00 -0.00000000000E+00 -0.10311370346E+03  0.10311370346E+03  0.00000000000E+00 0.  1.
         25    1    1    2    0    0 -0.50093016813E+02  0.10079845903E+03  0.13951715791E+03  0.21853987514E+03  0.12500000000E+03 0.  0.
         25    1    1    2    0    0  0.10353076733E+03 -0.16687537794E+03  0.46893302207E+03  0.52353528127E+03  0.12500000000E+03 0.  0.
         25    1    1    2    0    0 -0.53437750519E+02  0.66076918916E+02  0.12104029686E+03  0.19364272736E+03  0.12500000000E+03 0.  0.
</event>
<event>
 5    0  0.5641283E-005  0.2293688E+03  0.7546771E-02  0.1127085E+00
         21   -1    0    0  502  501  0.00000000000E+00  0.00000000000E+00  0.57642496099E+03  0.57642496099E+03  0.00000000000E+00 0.  1.
         21   -1    0    0  501  502 -0.00000000000E+00 -0.00000000000E+00 -0.91269565366E+02  0.91269565366E+02  0.00000000000E+00 0.  1.
         25    1    1    2    0    0  0.31509817628E+02 -0.15204024136E+02  0.21025141210E+03  0.24709246700E+03  0.12500000000E+03 0.  0.
         25    1    1    2    0    0  0.69009552830E+02 -0.48406567536E+01  0.68522605088E+02  0.15844903833E+03  0.12500000000E+03 0.  0.
         25    1    1    2    0    0 -0.10051937046E+03  0.20044680889E+02  0.20638137843E+03  0.26215302103E+03  0.12500000000E+03 0.  0.
</event>
<event>
 5    0  0.5641283E-005  0.3082616E+03  0.7546771E-02  0.1081182E+00
         21   -1    0    0  502  501  0.00000000000E+00  0.00000000000E+00  0.49353072527E+03  0.49353072527E+03  0.00000000000E+00 0. -1.
         21   -1    0    0  501  502 -0.00000000000E+00 -0.00000000000E+00 -0.19254163228E+03  0.19254163228E+03  0.00000000000E+00 0. -1.
         25    1    1    2    0    0 -0.19333463181E+03 -0.41732497150E+02  0.50277274524E+01  0.23403025279E+03  0.12500000000E+03 0.  0.
         25    1    1    2    0    0  0.67654747000E+02  0.24660020456E+02  0.59550683565E+02  0.15606590055E+03  0.12500000000E+03 0.  0.
         25    1    1    2    0    0  0.12567988481E+03  0.17072476694E+02  0.23641068198E+03  0.29597620421E+03  0.12500000000E+03 0.  0.
</event>
<event>
 5    0  0.5660548E-005  0.3386103E+03  0.7546771E-02  0.1067389E+00
         21   -1    0    0  502  501  0.00000000000E+00  0.00000000000E+00  0.64837400870E+03  0.64837400870E+03  0.00000000000E+00 0.  1.
         21   -1    0    0  501  502 -0.00000000000E+00 -0.00000000000E+00 -0.17683767547E+03  0.17683767547E+03  0.00000000000E+00 0.  1.
         25    1    1    2    0    0  0.10199206239E+02 -0.40873192151E+02  0.24058190492E+03  0.27437072479E+03  0.12500000000E+03 0.  0.
         25    1    1    2    0    0 -0.30013766505E+02 -0.19127114193E+03  0.14734367992E+03  0.27353361023E+03  0.12500000000E+03 0.  0.
         25    1    1    2    0    0  0.19814560266E+02  0.23214433408E+03  0.83610748388E+02  0.27730734915E+03  0.12500000000E+03 0.  0.
</event>
<event>
 5    0  0.5641283E-005  0.2791813E+03  0.7546771E-02  0.1096137E+00
         21   -1    0    0  502  501  0.00000000000E+00  0.00000000000E+00  0.37407863763E+03  0.37407863763E+03  0.00000000000E+00 0. -1.
         21   -1    0    0  501  502 -0.00000000000E+00 -0.00000000000E+00 -0.20835773487E+03  0.20835773487E+03  0.00000000000E+00 0. -1.
         25    1    1    2    0    0 -0.16769016266E+03 -0.70021834017E+02  0.89645354561E+02  0.23808472753E+03  0.12500000000E+03 0.  0.
         25    1    1    2    0    0  0.15812035427E+03  0.55244234852E+02  0.57481231049E+02  0.21675577003E+03  0.12500000000E+03 0.  0.
         25    1    1    2    0    0  0.95698083823E+01  0.14777599164E+02  0.18594317148E+02  0.12759587493E+03  0.12500000000E+03 0.  0.
</event>
<event>
 5    0  0.5641283E-005  0.3908424E+03  0.7546771E-02  0.1046998E+00
         21   -1    0    0  502  501  0.00000000000E+00  0.00000000000E+00  0.92275459887E+03  0.92275459887E+03  0.00000000000E+00 0.  1.
         21   -1    0    0  501  502 -0.00000000000E+00 -0.00000000000E+00 -0.16554544465E+03  0.16554544465E+03  0.00000000000E+00 0.  1.
         25    1    1    2    0    0  0.16331869477E+03 -0.40533058364E+02  0.21511309087E+03  0.30035739835E+03  0.12500000000E+03 0.  0.
         25    1    1    2    0    0  0.16539703658E+03  0.52566769161E+02  0.15080851877E+03  0.26170146019E+03  0.12500000000E+03 0.  0.
         25    1    1    2    0    0 -0.32871573135E+03 -0.12033710797E+02  0.39128754457E+03  0.52624118498E+03  0.12500000000E+03 0.  0.
</event>
<event>
 5    0  0.5641283E-005  0.3693234E+03  0.7546771E-02  0.1054952E+00
         21   -1    0    0  502  501  0.00000000000E+00  0.00000000000E+00  0.59020388795E+03  0.59020388795E+03  0.00000000000E+00 0. -1.
         21   -1    0    0  501  502 -0.00000000000E+00 -0.00000000000E+00 -0.23110614410E+03  0.23110614410E+03  0.00000000000E+00 0. -1.
         25    1    1    2    0    0  0.67227818459E+02  0.12295953848E+03  0.50879023064E+02  0.19455668240E+03  0.12500000000E+03 0.  0.
         25    1    1    2    0    0 -0.11142361282E+03  0.17406285872E+02 -0.85068257058E+02  0.18862610806E+03  0.12500000000E+03 0.  0.
         25    1    1    2    0    0  0.44195794365E+02 -0.14036582435E+03  0.39328697784E+03  0.43812724159E+03  0.12500000000E+03 0.  0.
</event>
<event>
 5    0  0.5641283E-005  0.5911537E+03  0.7546771E-02  0.9923931E-01
         21   -1    0    0  502  501  0.00000000000E+00  0.00000000000E+00  0.30660092715E+03  0.30660092715E+03  0.00000000000E+00 0. -1.
         21   -1    0    0  501  502 -0.00000000000E+00 -0.00000000000E+00 -0.11397967349E+04  0.11397967349E+04  0.00000000000E+00 0. -1.
         25    1    1    2    0    0 -0.17795013071E+03 -0.34156395972E+03 -0.66377067223E+03  0.77752729399E+03  0.12500000000E+03 0.  0.
         25    1    1    2    0    0  0.19767375558E+03  0.23629610187E+03  0.10517919456E+03  0.34870965627E+03  0.12500000000E+03 0.  0.
         25    1    1    2    0    0 -0.19723624875E+02  0.10526785785E+03 -0.27460433005E+03  0.32016071176E+03  0.12500000000E+03 0.  0.
</event>
<event>
 5    0  0.5641283E-005  0.3060449E+03  0.7546771E-02  0.1082257E+00
         21   -1    0    0  502  501  0.00000000000E+00  0.00000000000E+00  0.13131357886E+04  0.13131357886E+04  0.00000000000E+00 0.  1.
         21   -1    0    0  501  502 -0.00000000000E+00 -0.00000000000E+00 -0.71328112653E+02  0.71328112653E+02  0.00000000000E+00 0. -1.
         25    1    1    2    0    0 -0.14887122601E+03 -0.11312054203E+03  0.59207231498E+03  0.63335102836E+03  0.12500000000E+03 0.  0.
         25    1    1    2    0    0 -0.21162170767E+02  0.34123691326E+02  0.36566868798E+03  0.38852394154E+03  0.12500000000E+03 0.  0.
         25    1    1    2    0    0  0.17003339678E+03  0.78996850708E+02  0.28406667304E+03  0.36258893140E+03  0.12500000000E+03 0.  0.
</event>
<event>
 5    0  0.5641283E-005  0.3531651E+03  0.7546771E-02  0.1061323E+00
         21   -1    0    0  502  501  0.00000000000E+00  0.00000000000E+00  0.39289471052E+03  0.39289471052E+03  0.00000000000E+00 0.  1.
         21   -1    0    0  501  502 -0.00000000000E+00 -0.00000000000E+00 -0.31745292920E+03  0.31745292920E+03  0.00000000000E+00 0.  1.
         25    1    1    2    0    0 -0.24645856895E+03 -0.82753081759E+02  0.26725603315E+01  0.28848230678E+03  0.12500000000E+03 0.  0.
         25    1    1    2    0    0  0.21119160559E+03  0.10792724848E+03  0.10117854678E+03  0.28655240980E+03  0.12500000000E+03 0.  0.
         25    1    1    2    0    0  0.35266963356E+02 -0.25174166720E+02 -0.28409325794E+02  0.13531292313E+03  0.12500000000E+03 0.  0.
</event>
<event>
 5    0  0.5641283E-005  0.3500646E+03  0.7546771E-02  0.1062589E+00
         21   -1    0    0  502  501  0.00000000000E+00  0.00000000000E+00  0.31250507075E+03  0.31250507075E+03  0.00000000000E+00 0. -1.
         21   -1    0    0  501  502 -0.00000000000E+00 -0.00000000000E+00 -0.39213834560E+03  0.39213834560E+03  0.00000000000E+00 0. -1.
         25    1    1    2    0    0  0.16521667216E+03 -0.49946850814E+02 -0.20200244086E+02  0.21406607981E+03  0.12500000000E+03 0.  0.
         25    1    1    2    0    0  0.75768366632E+02 -0.38905226600E+02 -0.12647633864E+03  0.19716928329E+03  0.12500000000E+03 0.  0.
         25    1    1    2    0    0 -0.24098503879E+03  0.88852077415E+02  0.67043307870E+02  0.29340805325E+03  0.12500000000E+03 0.  0.
</event>
<event>
 5    0  0.5641283E-005  0.2707301E+03  0.7546771E-02  0.1100862E+00
         21   -1    0    0  502  501  0.00000000000E+00  0.00000000000E+00  0.17324867205E+04  0.17324867205E+04  0.00000000000E+00 0.  1.
         21   -1    0    0  501  502 -0.00000000000E+00 -0.00000000000E+00 -0.42306124574E+02  0.42306124574E+02  0.00000000000E+00 0.  1.
         25    1    1    2    0    0  0.56992217284E+02 -0.76221869704E+02  0.49755147624E+03  0.52176657402E+03  0.12500000000E+03 0.  0.
         25    1    1    2    0    0 -0.15468035355E+03  0.89795706410E+02  0.56939841353E+03  0.60977769227E+03  0.12500000000E+03 0.  0.
         25    1    1    2    0    0  0.97688136269E+02 -0.13573836706E+02  0.62323070619E+03  0.64324857882E+03  0.12500000000E+03 0.  0.
</event>
<event>
 5    0  0.5641283E-005  0.8180725E+03  0.7546771E-02  0.9534220E-01
         21   -1    0    0  502  501  0.00000000000E+00  0.00000000000E+00  0.53674630582E+03  0.53674630582E+03  0.00000000000E+00 0.  1.
         21   -1    0    0  501  502 -0.00000000000E+00 -0.00000000000E+00 -0.12468510409E+04  0.12468510409E+04  0.00000000000E+00 0. -1.
         25    1    1    2    0    0  0.91511338382E+02 -0.50202708485E+03  0.23023446062E+03  0.57361871120E+03  0.12500000000E+03 0.  0.
         25    1    1    2    0    0 -0.86635603480E+02 -0.11211832593E+01 -0.52223688384E+03  0.54393321988E+03  0.12500000000E+03 0.  0.
         25    1    1    2    0    0 -0.48757349024E+01  0.50314826811E+03 -0.41810231184E+03  0.66604541561E+03  0.12500000000E+03 0.  0.
</event>
<event>
 5    0  0.5641283E-005  0.3080997E+03  0.7546771E-02  0.1081260E+00
         21   -1    0    0  502  501  0.00000000000E+00  0.00000000000E+00  0.12636161925E+03  0.12636161925E+03  0.00000000000E+00 0. -1.
         21   -1    0    0  501  502 -0.00000000000E+00 -0.00000000000E+00 -0.75122020157E+03  0.75122020157E+03  0.00000000000E+00 0. -1.
         25    1    1    2    0    0  0.64238461116E+02  0.26938985937E+02 -0.12828282230E+03  0.19218161033E+03  0.12500000000E+03 0.  0.
         25    1    1    2    0    0 -0.47826724983E+02 -0.29143761218E+02  0.33105522685E+02  0.14091745837E+03  0.12500000000E+03 0.  0.
         25    1    1    2    0    0 -0.16411736133E+02  0.22047752815E+01 -0.52968128270E+03  0.54448275212E+03  0.12500000000E+03 0.  0.
</event>
<event>
 5    0  0.5641283E-005  0.3734055E+03  0.7546771E-02  0.1053398E+00
         21   -1    0    0  502  501  0.00000000000E+00  0.00000000000E+00  0.14543303495E+03  0.14543303495E+03  0.00000000000E+00 0.  1.
         21   -1    0    0  501  502 -0.00000000000E+00 -0.00000000000E+00 -0.95873456601E+03  0.95873456601E+03  0.00000000000E+00 0.  1.
         25    1    1    2    0    0  0.16066942813E+02 -0.23844751783E+03 -0.14088453108E+03  0.30428410492E+03  0.12500000000E+03 0.  0.
         25    1    1    2    0    0 -0.22296237181E+02 -0.23526379014E+02 -0.30781919194E+03  0.33380872911E+03  0.12500000000E+03 0.  0.
         25    1    1    2    0    0  0.62292943675E+01  0.26197389684E+03 -0.36459780805E+03  0.46607476693E+03  0.12500000000E+03 0.  0.
</event>
<event>
 5    0  0.5641283E-005  0.4549684E+03  0.7546771E-02  0.1026251E+00
         21   -1    0    0  502  501  0.00000000000E+00  0.00000000000E+00  0.14595346114E+03  0.14595346114E+03  0.00000000000E+00 0. -1.
         21   -1    0    0  501  502 -0.00000000000E+00 -0.00000000000E+00 -0.14182348498E+04  0.14182348498E+04  0.00000000000E+00 0. -1.
         25    1    1    2    0    0 -0.18893070729E+03 -0.72074438276E+02 -0.12079190932E+04  0.12310901968E+04  0.12500000000E+03 0.  0.
         25    1    1    2    0    0  0.76319425779E+02  0.49311728732E+02 -0.51260677277E+02  0.16281571907E+03  0.12500000000E+03 0.  0.
         25    1    1    2    0    0  0.11261128151E+03  0.22762709544E+02 -0.13101618122E+02  0.17028239506E+03  0.12500000000E+03 0.  0.
</event>
<event>
 5    0  0.5641283E-005  0.4413314E+03  0.7546771E-02  0.1030339E+00
         21   -1    0    0  502  501  0.00000000000E+00  0.00000000000E+00  0.28005366096E+03  0.28005366096E+03  0.00000000000E+00 0.  1.
         21   -1    0    0  501  502 -0.00000000000E+00 -0.00000000000E+00 -0.69548591908E+03  0.69548591908E+03  0.00000000000E+00 0.  1.
         25    1    1    2    0    0 -0.29377051248E+02 -0.19361463103E+03  0.10941212472E+03  0.25679885032E+03  0.12500000000E+03 0.  0.
         25    1    1    2    0    0  0.14897566546E+03  0.13983947651E+03 -0.47318234503E+03  0.53035399474E+03  0.12500000000E+03 0.  0.
         25    1    1    2    0    0 -0.11959861421E+03  0.53775154520E+02 -0.51662037803E+02  0.18838673498E+03  0.12500000000E+03 0.  0.
</event>
<event>
 5    0  0.5641283E-005  0.2697341E+03  0.7546771E-02  0.1101432E+00
         21   -1    0    0  502  501  0.00000000000E+00  0.00000000000E+00  0.14220277780E+03  0.14220277780E+03  0.00000000000E+00 0.  1.
         21   -1    0    0  501  502 -0.00000000000E+00 -0.00000000000E+00 -0.51163889997E+03  0.51163889997E+03  0.00000000000E+00 0.  1.
         25    1    1    2    0    0 -0.11832678922E+03  0.82167194245E+01 -0.12831067823E+03  0.21484267191E+03  0.12500000000E+03 0.  0.
         25    1    1    2    0    0  0.22217398885E+02  0.79158924216E+02 -0.20719277865E+03  0.25556524728E+03  0.12500000000E+03 0.  0.
         25    1    1    2    0    0  0.96109390336E+02 -0.87375643640E+02 -0.33932665291E+02  0.18343375858E+03  0.12500000000E+03 0.  0.
</event>
<event>
 5    0  0.5641283E-005  0.2622512E+03  0.7546771E-02  0.1105798E+00
         21   -1    0    0  502  501  0.00000000000E+00  0.00000000000E+00  0.56783608126E+02  0.56783608126E+02  0.00000000000E+00 0.  1.
         21   -1    0    0  501  502 -0.00000000000E+00 -0.00000000000E+00 -0.12111889947E+04  0.12111889947E+04  0.00000000000E+00 0.  1.
         25    1    1    2    0    0 -0.37328370730E+02 -0.99413109653E+02 -0.74723924748E+03  0.76502801688E+03  0.12500000000E+03 0.  0.
         25    1    1    2    0    0  0.16079914751E+02  0.94367674844E+02 -0.15651806656E+03  0.22200614152E+03  0.12500000000E+03 0.  0.
         25    1    1    2    0    0  0.21248455979E+02  0.50454348088E+01 -0.25064807256E+03  0.28093844446E+03  0.12500000000E+03 0.  0.
</event>
<event>
 5    0  0.5641283E-005  0.4553845E+03  0.7546771E-02  0.1026128E+00
         21   -1    0    0  502  501  0.00000000000E+00  0.00000000000E+00  0.15261163481E+03  0.15261163481E+03  0.00000000000E+00 0.  1.
         21   -1    0    0  501  502 -0.00000000000E+00 -0.00000000000E+00 -0.13588415459E+04  0.13588415459E+04  0.00000000000E+00 0.  1.
         25    1    1    2    0    0 -0.19863559258E+02  0.39196562807E+02 -0.14850444653E+03  0.19902136107E+03  0.12500000000E+03 0.  0.
         25    1    1    2    0    0 -0.81045765651E+02 -0.27508687134E+03 -0.96171561625E+03  0.10113175216E+04  0.12500000000E+03 0.  0.
         25    1    1    2    0    0  0.10090932491E+03  0.23589030854E+03 -0.96009848281E+02  0.30111429804E+03  0.12500000000E+03 0.  0.
</event>
<event>
 5    0  0.5641283E-005  0.4385774E+03  0.7546771E-02  0.1031184E+00
         21   -1    0    0  502  501  0.00000000000E+00  0.00000000000E+00  0.30602235955E+03  0.30602235955E+03  0.00000000000E+00 0. -1.
         21   -1    0    0  501  502 -0.00000000000E+00 -0.00000000000E+00 -0.62854919653E+03  0.62854919653E+03  0.00000000000E+00 0. -1.
         25    1    1    2    0    0 -0.26403267120E+03  0.19642022332E+03  0.38018194889E+02  0.35406855089E+03  0.12500000000E+03 0.  0.
         25    1    1    2    0    0  0.18900202954E+03 -0.17838579777E+03 -0.31415295356E+03  0.42645086264E+03  0.12500000000E+03 0.  0.
         25    1    1    2    0    0  0.75030641661E+02 -0.18034425547E+02 -0.46392078310E+02  0.15405214255E+03  0.12500000000E+03 0.  0.
</event>
<event>
 5    0  0.5641283E-005  0.2679871E+03  0.7546771E-02  0.1102437E+00
         21   -1    0    0  502  501  0.00000000000E+00  0.00000000000E+00  0.47751411318E+03  0.47751411318E+03  0.00000000000E+00 0. -1.
         21   -1    0    0  501  502 -0.00000000000E+00 -0.00000000000E+00 -0.15039787224E+03  0.15039787224E+03  0.00000000000E+00 0. -1.
         25    1    1    2    0    0  0.60727484778E+02 -0.92141476911E+02  0.11755413541E+03  0.20401434736E+03  0.12500000000E+03 0.  0.
         25    1    1    2    0    0 -0.15027750892E+03  0.86279068863E+02  0.13659756460E+03  0.25359673118E+03  0.12500000000E+03 0.  0.
         25    1    1    2    0    0  0.89550024141E+02  0.58624080472E+01  0.72964540924E+02  0.17030090688E+03  0.12500000000E+03 0.  0.
</event>
<event>
 5    0  0.5641283E-005  0.2907202E+03  0.7546771E-02  0.1089974E+00
         21   -1    0    0  502  501  0.00000000000E+00  0.00000000000E+00  0.61362512547E+03  0.61362512547E+03  0.00000000000E+00 0.  1.
         21   -1    0    0  501  502 -0.00000000000E+00 -0.00000000000E+00 -0.13773596253E+03  0.13773596253E+03  0.00000000000E+00 0.  1.
         25    1    1    2    0    0 -0.46777294835E+02  0.75167820087E+02  0.36174248927E+03  0.39283704641E+03  0.12500000000E+03 0.  0.
         25    1    1    2    0    0  0.12365188943E+03 -0.60007228724E+02  0.28557345254E+02  0.18796589911E+03  0.12500000000E+03 0.  0.
         25    1    1    2    0    0 -0.76874594599E+02 -0.15160591363E+02  0.85589328418E+02  0.17055814247E+03  0.12500000000E+03 0.  0.
</event>
<event>
 5    0  0.5641283E-005  0.3629985E+03  0.7546771E-02  0.1057403E+00
         21   -1    0    0  502  501  0.00000000000E+00  0.00000000000E+00  0.21148436234E+03  0.21148436234E+03  0.00000000000E+00 0. -1.
         21   -1    0    0  501  502 -0.00000000000E+00 -0.00000000000E+00 -0.62306231888E+03  0.62306231888E+03  0.00000000000E+00 0. -1.
         25    1    1    2    0    0 -0.64943248746E+02  0.16200736567E+03 -0.35292095257E+03  0.41308862348E+03  0.12500000000E+03 0.  0.
         25    1    1    2    0    0  0.64481701499E+02 -0.83199854436E+02  0.11017821131E+03  0.19708968480E+03  0.12500000000E+03 0.  0.
         25    1    1    2    0    0  0.46154724784E+00 -0.78807511231E+02 -0.16883521529E+03  0.22436837293E+03  0.12500000000E+03 0.  0.
</event>
<event>
 5    0  0.5641283E-005  0.4851979E+03  0.7546771E-02  0.1017716E+00
         21   -1    0    0  502  501  0.00000000000E+00  0.00000000000E+00  0.45670481104E+03  0.45670481104E+03  0.00000000000E+00 0. -1.
         21   -1    0    0  501  502 -0.00000000000E+00 -0.00000000000E+00 -0.51546858806E+03  0.51546858806E+03  0.00000000000E+00 0. -1.
         25    1    1    2    0    0  0.90924315597E+02  0.22583191621E+03  0.46577498744E+01  0.27370418371E+03  0.12500000000E+03 0.  0.
         25    1    1    2    0    0 -0.26140913501E+03  0.87431008709E+02 -0.10007112575E+03  0.31877601441E+03  0.12500000000E+03 0.  0.
         25    1    1    2    0    0  0.17048481941E+03 -0.31326292492E+03  0.36649598858E+02  0.37969320099E+03  0.12500000000E+03 0.  0.
</event>
<event>
 5    0  0.5641283E-005  0.2587860E+03  0.7546771E-02  0.1107875E+00
         21   -1    0    0  502  501  0.00000000000E+00  0.00000000000E+00  0.34886765075E+03  0.34886765075E+03  0.00000000000E+00 0. -1.
         21   -1    0    0  501  502 -0.00000000000E+00 -0.00000000000E+00 -0.19196444815E+03  0.19196444815E+03  0.00000000000E+00 0. -1.
         25    1    1    2    0    0 -0.30228591766E+02 -0.19063956383E+02  0.57414073790E+02  0.14212170159E+03  0.12500000000E+03 0.  0.
         25    1    1    2    0    0 -0.10992999277E+03 -0.28816888636E+02 -0.21402144479E+02  0.17028819152E+03  0.12500000000E+03 0.  0.
         25    1    1    2    0    0  0.14015858454E+03  0.47880845019E+02  0.12089127329E+03  0.22842220579E+03  0.12500000000E+03 0.  0.
</event>
<event>
 5    0  0.5641283E-005  0.3710984E+03  0.7546771E-02  0.1054274E+00
         21   -1    0    0  502  501  0.00000000000E+00  0.00000000000E+00  0.23809196652E+04  0.23809196652E+04  0.00000000000E+00 0.  1.
         21   -1    0    0  501  502 -0.00000000000E+00 -0.00000000000E+00 -0.57840674860E+02  0.57840674860E+02  0.00000000000E+00 0.  1.
         25    1    1    2    0    0 -0.15194660411E+03 -0.77658232451E+01  0.78996763764E+03  0.81413877627E+03  0.12500000000E+03 0.  0.
         25    1    1    2    0    0  0.13246453376E+03 -0.17866650471E+03  0.44075724283E+03  0.50927450330E+03  0.12500000000E+03 0.  0.
         25    1    1    2    0    0  0.19482070352E+02  0.18643232796E+03  0.10923541099E+04  0.11153470605E+04  0.12500000000E+03 0.  0.
</event>
<event>
 5    0  0.5641283E-005  0.3637540E+03  0.7546771E-02  0.1057107E+00
         21   -1    0    0  502  501  0.00000000000E+00  0.00000000000E+00  0.64545886096E+03  0.64545886096E+03  0.00000000000E+00 0. -1.
         21   -1    0    0  501  502 -0.00000000000E+00 -0.00000000000E+00 -0.20499678410E+03  0.20499678410E+03  0.00000000000E+00 0. -1.
         25    1    1    2    0    0  0.77199477450E+02  0.21047563149E+03  0.14268664156E+03  0.29367367681E+03  0.12500000000E+03 0.  0.
         25    1    1    2    0    0 -0.72049833268E+02 -0.13848031262E+03 -0.26597141286E+02  0.20174336020E+03  0.12500000000E+03 0.  0.
         25    1    1    2    0    0 -0.51496441821E+01 -0.71995318865E+02  0.32437257659E+03  0.35503860806E+03  0.12500000000E+03 0.  0.
</event>
<event>
 5    0  0.5641283E-005  0.2177450E+03  0.7546771E-02  0.1135575E+00
         21   -1    0    0  502  501  0.00000000000E+00  0.00000000000E+00  0.10637345160E+04  0.10637345160E+04  0.00000000000E+00 0. -1.
         21   -1    0    0  501  502 -0.00000000000E+00 -0.00000000000E+00 -0.44572106594E+02  0.44572106594E+02  0.00000000000E+00 0. -1.
         25    1    1    2    0    0  0.83690186900E+01  0.32346834364E+02  0.34529529821E+03  0.36874137431E+03  0.12500000000E+03 0.  0.
         25    1    1    2    0    0  0.24205468966E+02  0.53796323849E+02  0.21941364372E+03  0.25932083649E+03  0.12500000000E+03 0.  0.
         25    1    1    2    0    0 -0.32574487656E+02 -0.86143158213E+02  0.45445346749E+03  0.48024441180E+03  0.12500000000E+03 0.  0.
</event>
<event>
 5    0  0.5641283E-005  0.2554570E+03  0.7546771E-02  0.1109904E+00
         21   -1    0    0  502  501  0.00000000000E+00  0.00000000000E+00  0.85213838102E+02  0.85213838102E+02  0.00000000000E+00 0. -1.
         21   -1    0    0  501  502 -0.00000000000E+00 -0.00000000000E+00 -0.76581783564E+03  0.76581783564E+03  0.00000000000E+00 0. -1.
         25    1    1    2    0    0 -0.16231683965E+02 -0.22532144035E+02 -0.20412341021E+03  0.24096168093E+03  0.12500000000E+03 0.  0.
         25    1    1    2    0    0  0.46409376660E+02 -0.89911799044E+02 -0.82705244290E+02  0.18084003783E+03  0.12500000000E+03 0.  0.
         25    1    1    2    0    0 -0.30177692694E+02  0.11244394308E+03 -0.39377534304E+03  0.42922995499E+03  0.12500000000E+03 0.  0.
</event>
<event>
 5    0  0.5641283E-005  0.2608153E+03  0.7546771E-02  0.1106654E+00
         21   -1    0    0  502  501  0.00000000000E+00  0.00000000000E+00  0.38780804619E+02  0.38780804619E+02  0.00000000000E+00 0.  1.
         21   -1    0    0  501  502 -0.00000000000E+00 -0.00000000000E+00 -0.17540793491E+04  0.17540793491E+04  0.00000000000E+00 0.  1.
         25    1    1    2    0    0  0.49766701297E+02  0.40192649907E+02 -0.18699375804E+03  0.23384575945E+03  0.12500000000E+03 0.  0.
         25    1    1    2    0    0  0.24506795101E+02 -0.76633677565E+02 -0.57042961140E+03  0.58948133568E+03  0.12500000000E+03 0.  0.
         25    1    1    2    0    0 -0.74273496399E+02  0.36441027658E+02 -0.95787517508E+03  0.96953305864E+03  0.12500000000E+03 0.  0.
</event>
<event>
 5    0  0.5641283E-005  0.2539380E+03  0.7546771E-02  0.1110841E+00
         21   -1    0    0  502  501  0.00000000000E+00  0.00000000000E+00  0.31612714049E+03  0.31612714049E+03  0.00000000000E+00 0. -1.
         21   -1    0    0  501  502 -0.00000000000E+00 -0.00000000000E+00 -0.20398277627E+03  0.20398277627E+03  0.00000000000E+00 0. -1.
         25    1    1    2    0    0  0.11589517501E+03  0.65382889308E+02 -0.23740332067E+02  0.18410653756E+03  0.12500000000E+03 0.  0.
         25    1    1    2    0    0 -0.62232949497E+01 -0.77052604933E+01  0.24654865382E+02  0.12779265560E+03  0.12500000000E+03 0.  0.
         25    1    1    2    0    0 -0.10967188006E+03 -0.57677628815E+02  0.11122983090E+03  0.20821072360E+03  0.12500000000E+03 0.  0.
</event>
<event>
 5    0  0.5641283E-005  0.2834397E+03  0.7546771E-02  0.1093825E+00
         21   -1    0    0  502  501  0.00000000000E+00  0.00000000000E+00  0.14427749602E+04  0.14427749602E+04  0.00000000000E+00 0.  1.
         21   -1    0    0  501  502 -0.00000000000E+00 -0.00000000000E+00 -0.55683027286E+02  0.55683027286E+02  0.00000000000E+00 0.  1.
         25    1    1    2    0    0 -0.64028751911E+02  0.49813522733E+01  0.67491536988E+03  0.68939121799E+03  0.12500000000E+03 0.  0.
         25    1    1    2    0    0 -0.10807841216E+02  0.78350781162E+02  0.57068966595E+03  0.58954842817E+03  0.12500000000E+03 0.  0.
         25    1    1    2    0    0  0.74836593127E+02 -0.83332133436E+02  0.14148689711E+03  0.21951834135E+03  0.12500000000E+03 0.  0.
</event>
<event>
 5    0  0.5641283E-005  0.2387799E+03  0.7546771E-02  0.1120608E+00
         21   -1    0    0  502  501  0.00000000000E+00  0.00000000000E+00  0.10359640083E+03  0.10359640083E+03  0.00000000000E+00 0. -1.
         21   -1    0    0  501  502 -0.00000000000E+00 -0.00000000000E+00 -0.55036520996E+03  0.55036520996E+03  0.00000000000E+00 0. -1.
         25    1    1    2    0    0 -0.52604933232E+02 -0.45946825567E+00 -0.23248784891E+02  0.13759722421E+03  0.12500000000E+03 0.  0.
         25    1    1    2    0    0  0.45645053690E+02 -0.66018115927E+02 -0.26432965677E+03  0.30321119703E+03  0.12500000000E+03 0.  0.
         25    1    1    2    0    0  0.69598795418E+01  0.66477584183E+02 -0.15919036747E+03  0.21315318956E+03  0.12500000000E+03 0.  0.
</event>
<event>
 5    0  0.5674747E-005  0.3047664E+03  0.7546771E-02  0.1082882E+00
         21   -1    0    0  502  501  0.00000000000E+00  0.00000000000E+00  0.12677048061E+03  0.12677048061E+03  0.00000000000E+00 0. -1.
         21   -1    0    0  501  502 -0.00000000000E+00 -0.00000000000E+00 -0.73268307368E+03  0.73268307368E+03  0.00000000000E+00 0. -1.
         25    1    1    2    0    0  0.35071964505E+02 -0.12771287136E+03 -0.19191509306E+03  0.26456950533E+03  0.12500000000E+03 0.  0.
         25    1    1    2    0    0 -0.15505478850E+03  0.15198815868E+03 -0.21738077879E+03  0.33169532828E+03  0.12500000000E+03 0.  0.
         25    1    1    2    0    0  0.11998282400E+03 -0.24275287312E+02 -0.19661672123E+03  0.26318872068E+03  0.12500000000E+03 0.  0.
</event>
<event>
 5    0  0.5641283E-005  0.3448736E+03  0.7546771E-02  0.1064739E+00
         21   -1    0    0  502  501  0.00000000000E+00  0.00000000000E+00  0.16372155139E+03  0.16372155139E+03  0.00000000000E+00 0.  1.
         21   -1    0    0  501  502 -0.00000000000E+00 -0.00000000000E+00 -0.72646380200E+03  0.72646380200E+03  0.00000000000E+00 0.  1.
         25    1    1    2    0    0 -0.17679523530E+03  0.45698377415E+02 -0.18552686071E+03  0.28877346307E+03  0.12500000000E+03 0.  0.
         25    1    1    2    0    0  0.15422142110E+03  0.11393843127E+03 -0.31255469193E+03  0.38740372778E+03  0.12500000000E+03 0.  0.
         25    1    1    2    0    0  0.22573814206E+02 -0.15963680869E+03 -0.64660697966E+02  0.21400816255E+03  0.12500000000E+03 0.  0.
</event>
<event>
 5    0  0.5641283E-005  0.2322178E+03  0.7546771E-02  0.1125088E+00
         21   -1    0    0  502  501  0.00000000000E+00  0.00000000000E+00  0.42421518605E+03  0.42421518605E+03  0.00000000000E+00 0.  1.
         21   -1    0    0  501  502 -0.00000000000E+00 -0.00000000000E+00 -0.12711732282E+03  0.12711732282E+03  0.00000000000E+00 0.  1.
         25    1    1    2    0    0  0.27115356012E+02 -0.63097745872E+02  0.59775062520E+02  0.15464354550E+03  0.12500000000E+03 0.  0.
         25    1    1    2    0    0 -0.75705017478E+02  0.37534064989E+02  0.20814653752E+03  0.25707982571E+03  0.12500000000E+03 0.  0.
         25    1    1    2    0    0  0.48589661466E+02  0.25563680883E+02  0.29176263184E+02  0.13960913765E+03  0.12500000000E+03 0.  0.
</event>
<event>
 5    0  0.5641283E-005  0.3797336E+03  0.7546771E-02  0.1051032E+00
         21   -1    0    0  502  501  0.00000000000E+00  0.00000000000E+00  0.19115794025E+04  0.19115794025E+04  0.00000000000E+00 0.  1.
         21   -1    0    0  501  502 -0.00000000000E+00 -0.00000000000E+00 -0.75433735553E+02  0.75433735553E+02  0.00000000000E+00 0.  1.
         25    1    1    2    0    0  0.43352303075E+02 -0.87094279143E+02  0.50119617055E+02  0.16613792961E+03  0.12500000000E+03 0.  0.
         25    1    1    2    0    0 -0.52775044910E+02 -0.21007310739E+01  0.33098194024E+03  0.35772009058E+03  0.12500000000E+03 0.  0.
         25    1    1    2    0    0  0.94227418349E+01  0.89195010217E+02  0.14550441097E+04  0.14631551179E+04  0.12500000000E+03 0.  0.
</event>
<event>
 5    0  0.5641283E-005  0.4158238E+03  0.7546771E-02  0.1038434E+00
         21   -1    0    0  502  501  0.00000000000E+00  0.00000000000E+00  0.52541159992E+03  0.52541159992E+03  0.00000000000E+00 0. -1.
         21   -1    0    0  501  502 -0.00000000000E+00 -0.00000000000E+00 -0.32909326140E+03  0.32909326140E+03  0.00000000000E+00 0. -1.
         25    1    1    2    0    0 -0.12306107974E+03 -0.24117867095E+00  0.41272929352E+03  0.44845797713E+03  0.12500000000E+03 0.  0.
         25    1    1    2    0    0  0.62707128562E+01  0.49703144289E+02 -0.12379987833E+02  0.13523308948E+03  0.12500000000E+03 0.  0.
         25    1    1    2    0    0  0.11679036689E+03 -0.49461965618E+02 -0.20403096718E+03  0.27081379472E+03  0.12500000000E+03 0.  0.
</event>
<event>
 5    0  0.5641283E-005  0.2302498E+03  0.7546771E-02  0.1126464E+00
         21   -1    0    0  502  501  0.00000000000E+00  0.00000000000E+00  0.29299163593E+03  0.29299163593E+03  0.00000000000E+00 0.  1.
         21   -1    0    0  501  502 -0.00000000000E+00 -0.00000000000E+00 -0.18094358871E+03  0.18094358871E+03  0.00000000000E+00 0.  1.
         25    1    1    2    0    0 -0.10379180827E+01 -0.49106966221E+02  0.19344755849E+01  0.13431795711E+03  0.12500000000E+03 0.  0.
         25    1    1    2    0    0 -0.14765702331E+01  0.67453972191E+02  0.15050781599E+03  0.20695366945E+03  0.12500000000E+03 0.  0.
         25    1    1    2    0    0  0.25144883159E+01 -0.18347005969E+02 -0.40394244359E+02  0.13266359809E+03  0.12500000000E+03 0.  0.
</event>
<event>
 5    0  0.5641283E-005  0.2738396E+03  0.7546771E-02  0.1099102E+00
         21   -1    0    0  502  501  0.00000000000E+00  0.00000000000E+00  0.24692384822E+03  0.24692384822E+03  0.00000000000E+00 0.  1.
         21   -1    0    0  501  502 -0.00000000000E+00 -0.00000000000E+00 -0.30368931019E+03  0.30368931019E+03  0.00000000000E+00 0.  1.
         25    1    1    2    0    0  0.14949106084E+03 -0.56321943121E+02 -0.90878509820E+01  0.20304513681E+03  0.12500000000E+03 0.  0.
         25    1    1    2    0    0 -0.12071412040E+03  0.99805314760E+02 -0.65800741516E+02  0.21092116371E+03  0.12500000000E+03 0.  0.
         25    1    1    2    0    0 -0.28776940442E+02 -0.43483371639E+02  0.18123130534E+02  0.13664685789E+03  0.12500000000E+03 0.  0.
</event>
<event>
 5    0  0.5641283E-005  0.3561063E+03  0.7546771E-02  0.1060136E+00
         21   -1    0    0  502  501  0.00000000000E+00  0.00000000000E+00  0.93141779920E+03  0.93141779920E+03  0.00000000000E+00 0.  1.
         21   -1    0    0  501  502 -0.00000000000E+00 -0.00000000000E+00 -0.13614910399E+03  0.13614910399E+03  0.00000000000E+00 0.  1.
         25    1    1    2    0    0  0.54535223195E+02 -0.22107706373E+03  0.36032208956E+03  0.44419158805E+03  0.12500000000E+03 0.  0.
         25    1    1    2    0    0  0.32429389375E+02  0.19505653917E+03  0.40246852679E+03  0.46551544961E+03  0.12500000000E+03 0.  0.
         25    1    1    2    0    0 -0.86964612570E+02  0.26020524563E+02  0.32478078870E+02  0.15785986553E+03  0.12500000000E+03 0.  0.
</event>
<event>
 5    0  0.5641283E-005  0.3330398E+03  0.7546771E-02  0.1069800E+00
         21   -1    0    0  502  501  0.00000000000E+00  0.00000000000E+00  0.94221035744E+02  0.94221035744E+02  0.00000000000E+00 0.  1.
         21   -1    0    0  501  502 -0.00000000000E+00 -0.00000000000E+00 -0.11771844100E+04  0.11771844100E+04  0.00000000000E+00 0.  1.
         25    1    1    2    0    0 -0.14336161102E+03  0.12225245212E+03 -0.21539356186E+03  0.31227808129E+03  0.12500000000E+03 0.  0.
         25    1    1    2    0    0  0.93313683223E+02 -0.13164805422E+03 -0.23036947674E+03  0.30778848171E+03  0.12500000000E+03 0.  0.
         25    1    1    2    0    0  0.50047927798E+02  0.93956020995E+01 -0.63720033563E+03  0.65133888272E+03  0.12500000000E+03 0.  0.
</event>
<event>
 5    0  0.5641283E-005  0.2867537E+03  0.7546771E-02  0.1092056E+00
         21   -1    0    0  502  501  0.00000000000E+00  0.00000000000E+00  0.21018304862E+03  0.21018304862E+03  0.00000000000E+00 0. -1.
         21   -1    0    0  501  502 -0.00000000000E+00 -0.00000000000E+00 -0.39121934103E+03  0.39121934103E+03  0.00000000000E+00 0. -1.
         25    1    1    2    0    0 -0.10150418122E+03  0.47169053066E+00 -0.64196145411E+02  0.17334781909E+03  0.12500000000E+03 0.  0.
         25    1    1    2    0    0 -0.68944980662E+01  0.13169195666E+03 -0.11733531076E+03  0.21629350592E+03  0.12500000000E+03 0.  0.
         25    1    1    2    0    0  0.10839867928E+03 -0.13216364719E+03  0.49516375874E+00  0.21176106464E+03  0.12500000000E+03 0.  0.
</event>
<event>
 5    0  0.5641283E-005  0.4313616E+03  0.7546771E-02  0.1033431E+00
         21   -1    0    0  502  501  0.00000000000E+00  0.00000000000E+00  0.56417968849E+03  0.56417968849E+03  0.00000000000E+00 0. -1.
         21   -1    0    0  501  502 -0.00000000000E+00 -0.00000000000E+00 -0.32981121407E+03  0.32981121407E+03  0.00000000000E+00 0. -1.
         25    1    1    2    0    0  0.23660061888E+03  0.13254597601E+03  0.94565937111E+02  0.31323474436E+03  0.12500000000E+03 0.  0.
         25    1    1    2    0    0  0.73880976729E+02 -0.32053939765E+02 -0.79069115896E+02  0.16841252586E+03  0.12500000000E+03 0.  0.
         25    1    1    2    0    0 -0.31048159561E+03 -0.10049203625E+03  0.21887165320E+03  0.41234363235E+03  0.12500000000E+03 0.  0.
</event>
<event>
 5    0  0.5641283E-005  0.2415516E+03  0.7546771E-02  0.1118763E+00
         21   -1    0    0  502  501  0.00000000000E+00  0.00000000000E+00  0.43938341194E+02  0.43938341194E+02  0.00000000000E+00 0. -1.
         21   -1    0    0  501  502 -0.00000000000E+00 -0.00000000000E+00 -0.13279330137E+04  0.13279330137E+04  0.00000000000E+00 0. -1.
         25    1    1    2    0    0  0.80563310526E+02 -0.96494214403E+02 -0.38920537151E+03  0.42767674899E+03  0.12500000000E+03 0.  0.
         25    1    1    2    0    0 -0.43306009031E+02  0.10293177520E+03 -0.43353809818E+03  0.46481248191E+03  0.12500000000E+03 0.  0.
         25    1    1    2    0    0 -0.37257301496E+02 -0.64375607992E+01 -0.46125120278E+03  0.47938212396E+03  0.12500000000E+03 0.  0.
</event>
<event>
 5    0  0.5641283E-005  0.2787982E+03  0.7546771E-02  0.1096347E+00
         21   -1    0    0  502  501  0.00000000000E+00  0.00000000000E+00  0.10753021937E+04  0.10753021937E+04  0.00000000000E+00 0. -1.
         21   -1    0    0  501  502 -0.00000000000E+00 -0.00000000000E+00 -0.72285222707E+02  0.72285222707E+02  0.00000000000E+00 0. -1.
         25    1    1    2    0    0  0.55803583928E+00 -0.45725643624E+01  0.38473228101E+03  0.40455549410E+03  0.12500000000E+03 0.  0.
         25    1    1    2    0    0 -0.53478384106E+02 -0.15091110085E+03  0.26527436729E+03  0.33411014332E+03  0.12500000000E+03 0.  0.
         25    1    1    2    0    0  0.52920348267E+02  0.15548366521E+03  0.35301032266E+03  0.40892177897E+03  0.12500000000E+03 0.  0.
</event>
<event>
 5    0  0.5641283E-005  0.2193658E+03  0.7546771E-02  0.1134357E+00
         21   -1    0    0  502  501  0.00000000000E+00  0.00000000000E+00  0.37021893778E+03  0.37021893778E+03  0.00000000000E+00 0. -1.
         21   -1    0    0  501  502 -0.00000000000E+00 -0.00000000000E+00 -0.12998085592E+03  0.12998085592E+03  0.00000000000E+00 0. -1.
         25    1    1    2    0    0 -0.73915188383E+01 -0.34837142431E+02  0.13910108373E+03  0.19037429590E+03  0.12500000000E+03 0.  0.
         25    1    1    2    0    0  0.75913411364E+02  0.27838918024E+02  0.37270359952E+02  0.15346638431E+03  0.12500000000E+03 0.  0.
         25    1    1    2    0    0 -0.68521892525E+02  0.69982244066E+01  0.63866638182E+02  0.15635911349E+03  0.12500000000E+03 0.  0.
</event>
<event>
 5    0  0.5641283E-005  0.3215555E+03  0.7546771E-02  0.1074936E+00
         21   -1    0    0  502  501  0.00000000000E+00  0.00000000000E+00  0.12961986810E+04  0.12961986810E+04  0.00000000000E+00 0.  1.
         21   -1    0    0  501  502 -0.00000000000E+00 -0.00000000000E+00 -0.79770139925E+02  0.79770139925E+02  0.00000000000E+00 0.  1.
         25    1    1    2    0    0  0.18757036368E+03 -0.29024301648E+02  0.21629213947E+03  0.31373928828E+03  0.12500000000E+03 0.  0.
         25    1    1    2    0    0 -0.17711966502E+03 -0.60980965045E+01  0.49228511907E+03  0.53793884501E+03  0.12500000000E+03 0.  0.
         25    1    1    2    0    0 -0.10450698665E+02  0.35122398153E+02  0.50785128257E+03  0.52429068766E+03  0.12500000000E+03 0.  0.
</event>
<event>
 5    0  0.5641283E-005  0.3757964E+03  0.7546771E-02  0.1052498E+00
         21   -1    0    0  502  501  0.00000000000E+00  0.00000000000E+00  0.11089381799E+03  0.11089381799E+03  0.00000000000E+00 0.  1.
         21   -1    0    0  501  502 -0.00000000000E+00 -0.00000000000E+00 -0.12734971727E+04  0.12734971727E+04  0.00000000000E+00 0.  1.
         25    1    1    2    0    0 -0.25554630406E+03 -0.73347483251E+02 -0.52221933593E+03  0.59918428020E+03  0.12500000000E+03 0.  0.
         25    1    1    2    0    0  0.14512982582E+03  0.64270504133E+01 -0.10091710558E+03  0.21659463410E+03  0.12500000000E+03 0.  0.
         25    1    1    2    0    0  0.11041647823E+03  0.66920432838E+02 -0.53946691322E+03  0.56861207643E+03  0.12500000000E+03 0.  0.
</event>
<event>
 5    0  0.5641283E-005  0.2563681E+03  0.7546771E-02  0.1109345E+00
         21   -1    0    0  502  501  0.00000000000E+00  0.00000000000E+00  0.42133498341E+03  0.42133498341E+03  0.00000000000E+00 0. -1.
         21   -1    0    0  501  502 -0.00000000000E+00 -0.00000000000E+00 -0.15599137083E+03  0.15599137083E+03  0.00000000000E+00 0. -1.
         25    1    1    2    0    0  0.74382022006E+02 -0.20703003124E+02  0.64556052283E+02  0.16047985363E+03  0.12500000000E+03 0.  0.
         25    1    1    2    0    0  0.41284535551E+00 -0.14175938572E+02 -0.41093036970E+02  0.13234336161E+03  0.12500000000E+03 0.  0.
         25    1    1    2    0    0 -0.74794867361E+02  0.34878941696E+02  0.24188059727E+03  0.28450313898E+03  0.12500000000E+03 0.  0.
</event>
<event>
 5    0  0.5641283E-005  0.4402450E+03  0.7546771E-02  0.1030672E+00
         21   -1    0    0  502  501  0.00000000000E+00  0.00000000000E+00  0.41581711852E+03  0.41581711852E+03  0.00000000000E+00 0.  1.
         21   -1    0    0  501  502 -0.00000000000E+00 -0.00000000000E+00 -0.46610801495E+03  0.46610801495E+03  0.00000000000E+00 0.  1.
         25    1    1    2    0    0  0.17175541163E+03  0.53709321144E+02  0.15541328516E+03  0.26863153539E+03  0.12500000000E+03 0.  0.
         25    1    1    2    0    0 -0.12646184146E+03 -0.15311164151E+02  0.14903595426E+03  0.23251611720E+03  0.12500000000E+03 0.  0.
         25    1    1    2    0    0 -0.45293570174E+02 -0.38398156992E+02 -0.35474013586E+03  0.38077748088E+03  0.12500000000E+03 0.  0.
</event>
<event>
 5    0  0.5641283E-005  0.2694236E+03  0.7546771E-02  0.1101610E+00
         21   -1    0    0  502  501  0.00000000000E+00  0.00000000000E+00  0.30389576196E+03  0.30389576196E+03  0.00000000000E+00 0.  1.
         21   -1    0    0  501  502 -0.00000000000E+00 -0.00000000000E+00 -0.23886177192E+03  0.23886177192E+03  0.00000000000E+00 0.  1.
         25    1    1    2    0    0 -0.54200440322E+02  0.13162948371E+03  0.12131342140E+02  0.18983197353E+03  0.12500000000E+03 0.  0.
         25    1    1    2    0    0 -0.15082789958E+02  0.15692711128E+01  0.89079307198E+02  0.15424031942E+03  0.12500000000E+03 0.  0.
         25    1    1    2    0    0  0.69283230280E+02 -0.13319875482E+03 -0.36176659290E+02  0.19868524093E+03  0.12500000000E+03 0.  0.
</event>
<event>
 5    0  0.5641283E-005  0.5264813E+03  0.7546771E-02  0.1007089E+00
         21   -1    0    0  502  501  0.00000000000E+00  0.00000000000E+00  0.15675658328E+03  0.15675658328E+03  0.00000000000E+00 0.  1.
         21   -1    0    0  501  502 -0.00000000000E+00 -0.00000000000E+00 -0.17682354800E+04  0.17682354800E+04  0.00000000000E+00 0.  1.
         25    1    1    2    0    0  0.25009517322E+03  0.16332319185E+03 -0.13884648153E+03  0.35231435693E+03  0.12500000000E+03 0.  0.
         25    1    1    2    0    0 -0.56136942780E+02 -0.22489361242E+03 -0.10921577139E+04  0.11234598192E+04  0.12500000000E+03 0.  0.
         25    1    1    2    0    0 -0.19395823044E+03  0.61570420571E+02 -0.38047470135E+03  0.44921788724E+03  0.12500000000E+03 0.  0.
</event>
<event>
 5    0  0.5641283E-005  0.2725498E+03  0.7546771E-02  0.1099829E+00
         21   -1    0    0  502  501  0.00000000000E+00  0.00000000000E+00  0.14415200052E+04  0.14415200052E+04  0.00000000000E+00 0. -1.
         21   -1    0    0  501  502 -0.00000000000E+00 -0.00000000000E+00 -0.51531302152E+02  0.51531302152E+02  0.00000000000E+00 0. -1.
         25    1    1    2    0    0 -0.28120411296E+02 -0.94267329626E+02  0.55583282583E+03  0.57814549833E+03  0.12500000000E+03 0.  0.
         25    1    1    2    0    0  0.13947268299E+03  0.22130376546E+02  0.35010050478E+03  0.39766536977E+03  0.12500000000E+03 0.  0.
         25    1    1    2    0    0 -0.11135227170E+03  0.72136953079E+02  0.48405537241E+03  0.51724043923E+03  0.12500000000E+03 0.  0.
</event>
<event>
 5    0  0.5641283E-005  0.2397066E+03  0.7546771E-02  0.1119988E+00
         21   -1    0    0  502  501  0.00000000000E+00  0.00000000000E+00  0.78389206931E+02  0.78389206931E+02  0.00000000000E+00 0. -1.
         21   -1    0    0  501  502 -0.00000000000E+00 -0.00000000000E+00 -0.73299950051E+03  0.73299950051E+03  0.00000000000E+00 0. -1.
         25    1    1    2    0    0 -0.33858081868E+02  0.40120492016E+02 -0.24688544578E+03  0.28166193730E+03  0.12500000000E+03 0.  0.
         25    1    1    2    0    0 -0.77383214755E+01 -0.79605521330E+02 -0.68031164872E+02  0.16324876734E+03  0.12500000000E+03 0.  0.
         25    1    1    2    0    0  0.41596403343E+02  0.39485029313E+02 -0.33969368293E+03  0.36647800280E+03  0.12500000000E+03 0.  0.
</event>
<event>
 5    0  0.5641283E-005  0.2533969E+03  0.7546771E-02  0.1111177E+00
         21   -1    0    0  502  501  0.00000000000E+00  0.00000000000E+00  0.76302712363E+03  0.76302712363E+03  0.00000000000E+00 0.  1.
         21   -1    0    0  501  502 -0.00000000000E+00 -0.00000000000E+00 -0.84151639829E+02  0.84151639829E+02  0.00000000000E+00 0.  1.
         25    1    1    2    0    0 -0.11296648592E+02  0.38979234201E+02  0.86935604593E+02  0.15757472613E+03  0.12500000000E+03 0.  0.
         25    1    1    2    0    0 -0.17353215469E+02 -0.13919350409E+03  0.27107394414E+03  0.32982123773E+03  0.12500000000E+03 0.  0.
         25    1    1    2    0    0  0.28649864061E+02  0.10021426989E+03  0.32086593507E+03  0.35978279960E+03  0.12500000000E+03 0.  0.
</event>
<event>
 5    0  0.5641283E-005  0.2393996E+03  0.7546771E-02  0.1120193E+00
         21   -1    0    0  502  501  0.00000000000E+00  0.00000000000E+00  0.16779294062E+04  0.16779294062E+04  0.00000000000E+00 0. -1.
         21   -1    0    0  501  502 -0.00000000000E+00 -0.00000000000E+00 -0.34156476724E+02  0.34156476724E+02  0.00000000000E+00 0. -1.
         25    1    1    2    0    0 -0.34684030824E+02  0.10138333112E+03  0.55667865176E+03  0.58051501544E+03  0.12500000000E+03 0.  0.
         25    1    1    2    0    0 -0.35034514317E+02 -0.12304743173E+02  0.65295187529E+03  0.66584530887E+03  0.12500000000E+03 0.  0.
         25    1    1    2    0    0  0.69718545141E+02 -0.89078587944E+02  0.43414240243E+03  0.46572555862E+03  0.12500000000E+03 0.  0.
</event>
<event>
 5    0  0.5641283E-005  0.2207590E+03  0.7546771E-02  0.1133318E+00
         21   -1    0    0  502  501  0.00000000000E+00  0.00000000000E+00  0.26359049315E+02  0.26359049315E+02  0.00000000000E+00 0. -1.
         21   -1    0    0  501  502 -0.00000000000E+00 -0.00000000000E+00 -0.18488734827E+04  0.18488734827E+04  0.00000000000E+00 0. -1.
         25    1    1    2    0    0  0.80604105490E+02 -0.35463199346E+02 -0.51325473504E+03  0.53554652774E+03  0.12500000000E+03 0.  0.
         25    1    1    2    0    0 -0.92890395345E+01  0.51742943276E+02 -0.52937923806E+03  0.54647140467E+03  0.12500000000E+03 0.  0.
         25    1    1    2    0    0 -0.71315065955E+02 -0.16279743930E+02 -0.77988046028E+03  0.79321459961E+03  0.12500000000E+03 0.  0.
</event>
<event>
 5    0  0.5641283E-005  0.3401004E+03  0.7546771E-02  0.1066753E+00
         21   -1    0    0  502  501  0.00000000000E+00  0.00000000000E+00  0.27336677688E+03  0.27336677688E+03  0.00000000000E+00 0.  1.
         21   -1    0    0  501  502 -0.00000000000E+00 -0.00000000000E+00 -0.42312496815E+03  0.42312496815E+03  0.00000000000E+00 0.  1.
         25    1    1    2    0    0  0.94874827992E+02  0.18431643776E+02  0.17500181388E+02  0.15897237127E+03  0.12500000000E+03 0.  0.
         25    1    1    2    0    0 -0.14650707562E+03 -0.14677243597E+03  0.54093580586E+02  0.24810801403E+03  0.12500000000E+03 0.  0.
         25    1    1    2    0    0  0.51632247627E+02  0.12834079219E+03 -0.22135195324E+03  0.28941135972E+03  0.12500000000E+03 0.  0.
</event>
<event>
 5    0  0.5641283E-005  0.3116030E+03  0.7546771E-02  0.1079580E+00
         21   -1    0    0  502  501  0.00000000000E+00  0.00000000000E+00  0.36010948261E+03  0.36010948261E+03  0.00000000000E+00 0.  1.
         21   -1    0    0  501  502 -0.00000000000E+00 -0.00000000000E+00 -0.26963029213E+03  0.26963029213E+03  0.00000000000E+00 0.  1.
         25    1    1    2    0    0 -0.12828849770E+03 -0.30871931430E+02 -0.76674998509E+02  0.19726902998E+03  0.12500000000E+03 0.  0.
         25    1    1    2    0    0  0.13753092322E+03  0.87267234283E+02  0.20476620850E+03  0.28997331803E+03  0.12500000000E+03 0.  0.
         25    1    1    2    0    0 -0.92424255253E+01 -0.56395302854E+02 -0.37612019518E+02  0.14249742673E+03  0.12500000000E+03 0.  0.
</event>
<event>
 5    0  0.5641283E-005  0.2835368E+03  0.7546771E-02  0.1093773E+00
         21   -1    0    0  502  501  0.00000000000E+00  0.00000000000E+00  0.87572561548E+02  0.87572561548E+02  0.00000000000E+00 0.  1.
         21   -1    0    0  501  502 -0.00000000000E+00 -0.00000000000E+00 -0.91801691275E+03  0.91801691275E+03  0.00000000000E+00 0.  1.
         25    1    1    2    0    0  0.80063321351E+02 -0.23045502399E+02 -0.66475602731E+02  0.16427183680E+03  0.12500000000E+03 0.  0.
         25    1    1    2    0    0 -0.78414651901E+02 -0.95063198993E+02 -0.31614058034E+03  0.36160162607E+03  0.12500000000E+03 0.  0.
         25    1    1    2    0    0 -0.16486694506E+01  0.11810870139E+03 -0.44782816813E+03  0.47971601143E+03  0.12500000000E+03 0.  0.
</event>
<event>
 5    0  0.5641283E-005  0.2678334E+03  0.7546771E-02  0.1102526E+00
         21   -1    0    0  502  501  0.00000000000E+00  0.00000000000E+00  0.43909892668E+03  0.43909892668E+03  0.00000000000E+00 0. -1.
         21   -1    0    0  501  502 -0.00000000000E+00 -0.00000000000E+00 -0.16336802484E+03  0.16336802484E+03  0.00000000000E+00 0. -1.
         25    1    1    2    0    0 -0.42440231859E+02  0.31801025649E+02  0.18491729114E+03  0.22941639670E+03  0.12500000000E+03 0.  0.
         25    1    1    2    0    0  0.67848262765E+01 -0.10172107055E+03 -0.50185490465E+02  0.16892836800E+03  0.12500000000E+03 0.  0.
         25    1    1    2    0    0  0.35655405582E+02  0.69920044900E+02  0.14099910115E+03  0.20412218682E+03  0.12500000000E+03 0.  0.
</event>
<event>
 5    0  0.5641283E-005  0.2481187E+03  0.7546771E-02  0.1114500E+00
         21   -1    0    0  502  501  0.00000000000E+00  0.00000000000E+00  0.20111444170E+03  0.20111444170E+03  0.00000000000E+00 0. -1.
         21   -1    0    0  501  502 -0.00000000000E+00 -0.00000000000E+00 -0.30610863756E+03  0.30610863756E+03  0.00000000000E+00 0. -1.
         25    1    1    2    0    0  0.44384430708E+02  0.91420984787E+02 -0.44416090723E+02  0.16710943499E+03  0.12500000000E+03 0.  0.
         25    1    1    2    0    0 -0.58108633593E+01 -0.12912500994E+02  0.65830822483E+02  0.14198308351E+03  0.12500000000E+03 0.  0.
         25    1    1    2    0    0 -0.38573567348E+02 -0.78508483792E+02 -0.12640892761E+03  0.19813056075E+03  0.12500000000E+03 0.  0.
</event>
<event>
 5    0  0.5641283E-005  0.2742083E+03  0.7546771E-02  0.1098895E+00
         21   -1    0    0  502  501  0.00000000000E+00  0.00000000000E+00  0.68341114854E+02  0.68341114854E+02  0.00000000000E+00 0.  1.
         21   -1    0    0  501  502 -0.00000000000E+00 -0.00000000000E+00 -0.11002188205E+04  0.11002188205E+04  0.00000000000E+00 0.  1.
         25    1    1    2    0    0 -0.23678003163E+02 -0.87475253057E+02 -0.24686742717E+03  0.29117193259E+03  0.12500000000E+03 0.  0.
         25    1    1    2    0    0  0.96228749108E+02 -0.37320565561E+02 -0.17661564138E+03  0.23973085231E+03  0.12500000000E+03 0.  0.
         25    1    1    2    0    0 -0.72550745945E+02  0.12479581862E+03 -0.60839463714E+03  0.63765715050E+03  0.12500000000E+03 0.  0.
</event>
<event>
 5    0  0.5641283E-005  0.2627308E+03  0.7546771E-02  0.1105514E+00
         21   -1    0    0  502  501  0.00000000000E+00  0.00000000000E+00  0.99770308575E+03  0.99770308575E+03  0.00000000000E+00 0. -1.
         21   -1    0    0  501  502 -0.00000000000E+00 -0.00000000000E+00 -0.69186406526E+02  0.69186406526E+02  0.00000000000E+00 0. -1.
         25    1    1    2    0    0 -0.65509809494E+02 -0.63244885619E+02  0.18724046457E+03  0.24284859948E+03  0.12500000000E+03 0.  0.
         25    1    1    2    0    0  0.92768085131E+02 -0.32170506801E+02  0.17823718504E+03  0.23881866187E+03  0.12500000000E+03 0.  0.
         25    1    1    2    0    0 -0.27258275638E+02  0.95415392420E+02  0.56303902961E+03  0.58522223092E+03  0.12500000000E+03 0.  0.
</event>
<event>
 5    0  0.5641283E-005  0.3347081E+03  0.7546771E-02  0.1069072E+00
         21   -1    0    0  502  501  0.00000000000E+00  0.00000000000E+00  0.86470685362E+02  0.86470685362E+02  0.00000000000E+00 0. -1.
         21   -1    0    0  501  502 -0.00000000000E+00 -0.00000000000E+00 -0.12955778568E+04  0.12955778568E+04  0.00000000000E+00 0. -1.
         25    1    1    2    0    0  0.17559830821E+03  0.18631258051E+02 -0.67816136400E+03  0.71183546220E+03  0.12500000000E+03 0.  0.
         25    1    1    2    0    0 -0.10857196810E+03 -0.12945217109E+03 -0.38440600210E+03  0.43810810459E+03  0.12500000000E+03 0.  0.
         25    1    1    2    0    0 -0.67026340113E+02  0.11082091304E+03 -0.14653980530E+03  0.23210497533E+03  0.12500000000E+03 0.  0.
</event>
<event>
 5    0  0.5641283E-005  0.2448786E+03  0.7546771E-02  0.1116585E+00
         21   -1    0    0  502  501  0.00000000000E+00  0.00000000000E+00  0.16616831124E+03  0.16616831124E+03  0.00000000000E+00 0. -1.
         21   -1    0    0  501  502 -0.00000000000E+00 -0.00000000000E+00 -0.36087227631E+03  0.36087227631E+03  0.00000000000E+00 0. -1.
         25    1    1    2    0    0 -0.15465665071E+02 -0.24814454821E+02 -0.22123428620E+03  0.25578223815E+03  0.12500000000E+03 0.  0.
         25    1    1    2    0    0  0.34951066581E+01  0.59186538500E+02 -0.21464033627E+00  0.13834850263E+03  0.12500000000E+03 0.  0.
         25    1    1    2    0    0  0.11970558413E+02 -0.34372083679E+02  0.26744961459E+02  0.13290984677E+03  0.12500000000E+03 0.  0.
</event>
<event>
 5    0  0.5641283E-005  0.3037103E+03  0.7546771E-02  0.1083400E+00
         21   -1    0    0  502  501  0.00000000000E+00  0.00000000000E+00  0.16193676414E+03  0.16193676414E+03  0.00000000000E+00 0. -1.
         21   -1    0    0  501  502 -0.00000000000E+00 -0.00000000000E+00 -0.56960486475E+03  0.56960486475E+03  0.00000000000E+00 0. -1.
         25    1    1    2    0    0 -0.71871791137E+02  0.19960935188E+02  0.12144584317E+02  0.14607013460E+03  0.12500000000E+03 0.  0.
         25    1    1    2    0    0  0.16437947205E+03 -0.10254499838E+03 -0.21345985071E+03  0.31420724911E+03  0.12500000000E+03 0.  0.
         25    1    1    2    0    0 -0.92507680914E+02  0.82584063193E+02 -0.20635283422E+03  0.27126424518E+03  0.12500000000E+03 0.  0.
</event>
<event>
 5    0  0.5641283E-005  0.3315286E+03  0.7546771E-02  0.1070463E+00
         21   -1    0    0  502  501  0.00000000000E+00  0.00000000000E+00  0.13428719500E+04  0.13428719500E+04  0.00000000000E+00 0.  1.
         21   -1    0    0  501  502 -0.00000000000E+00 -0.00000000000E+00 -0.81847864462E+02  0.81847864462E+02  0.00000000000E+00 0.  1.
         25    1    1    2    0    0  0.14422803928E+03 -0.67205344401E+02  0.17364074705E+03  0.26663532149E+03  0.12500000000E+03 0.  0.
         25    1    1    2    0    0 -0.16584487691E+02  0.12637762631E+03  0.75787374139E+03  0.77861669489E+03  0.12500000000E+03 0.  0.
         25    1    1    2    0    0 -0.12764355159E+03 -0.59172281912E+02  0.32950959714E+03  0.37946779813E+03  0.12500000000E+03 0.  0.
</event>
<event>
 5    0  0.5641283E-005  0.3086204E+03  0.7546771E-02  0.1081009E+00
         21   -1    0    0  502  501  0.00000000000E+00  0.00000000000E+00  0.21871784977E+03  0.21871784977E+03  0.00000000000E+00 0. -1.
         21   -1    0    0  501  502 -0.00000000000E+00 -0.00000000000E+00 -0.43547685810E+03  0.43547685810E+03  0.00000000000E+00 0. -1.
         25    1    1    2    0    0  0.32924248795E+02  0.78216613407E+02 -0.10831620994E+03  0.18590117296E+03  0.12500000000E+03 0.  0.
         25    1    1    2    0    0  0.99862401313E+02 -0.15776451666E+03 -0.14302277582E+03  0.26635062665E+03  0.12500000000E+03 0.  0.
         25    1    1    2    0    0 -0.13278665011E+03  0.79547903249E+02  0.34579977428E+02  0.20194290826E+03  0.12500000000E+03 0.  0.
</event>
<event>
 5    0  0.5641283E-005  0.2709035E+03  0.7546771E-02  0.1100764E+00
         21   -1    0    0  502  501  0.00000000000E+00  0.00000000000E+00  0.31960998153E+02  0.31960998153E+02  0.00000000000E+00 0.  1.
         21   -1    0    0  501  502 -0.00000000000E+00 -0.00000000000E+00 -0.22961950316E+04  0.22961950316E+04  0.00000000000E+00 0.  1.
         25    1    1    2    0    0  0.77865953309E+01 -0.17892591937E+03 -0.81936666424E+03  0.84797514477E+03  0.12500000000E+03 0.  0.
         25    1    1    2    0    0 -0.42664924577E+02  0.97800573382E+02 -0.63119057748E+03  0.65223599490E+03  0.12500000000E+03 0.  0.
         25    1    1    2    0    0  0.34878329246E+02  0.81125345989E+02 -0.81367679174E+03  0.82794489009E+03  0.12500000000E+03 0.  0.
</event>
<event>
 5    0  0.5641283E-005  0.3120081E+03  0.7546771E-02  0.1079387E+00
         21   -1    0    0  502  501  0.00000000000E+00  0.00000000000E+00  0.97006582076E+02  0.97006582076E+02  0.00000000000E+00 0.  1.
         21   -1    0    0  501  502 -0.00000000000E+00 -0.00000000000E+00 -0.10035303942E+04  0.10035303942E+04  0.00000000000E+00 0.  1.
         25    1    1    2    0    0 -0.64339254549E+01 -0.13077271427E+03 -0.23981151875E+03  0.30046208200E+03  0.12500000000E+03 0.  0.
         25    1    1    2    0    0 -0.16169918183E+03  0.95555001476E+02 -0.28808089723E+03  0.36591390663E+03  0.12500000000E+03 0.  0.
         25    1    1    2    0    0  0.16813310728E+03  0.35217712796E+02 -0.37863139618E+03  0.43416098769E+03  0.12500000000E+03 0.  0.
</event>
<event>
 5    0  0.5641283E-005  0.3867383E+03  0.7546771E-02  0.1048471E+00
         21   -1    0    0  502  501  0.00000000000E+00  0.00000000000E+00  0.17441185750E+04  0.17441185750E+04  0.00000000000E+00 0. -1.
         21   -1    0    0  501  502 -0.00000000000E+00 -0.00000000000E+00 -0.85754803358E+02  0.85754803358E+02  0.00000000000E+00 0. -1.
         25    1    1    2    0    0 -0.22801297131E+03  0.10949422064E+03  0.46763192894E+03  0.54615338541E+03  0.12500000000E+03 0.  0.
         25    1    1    2    0    0 -0.61471025968E+02 -0.68722205903E+02  0.49462452431E+03  0.51843982165E+03  0.12500000000E+03 0.  0.
         25    1    1    2    0    0  0.28948399727E+03 -0.40772014738E+02  0.69610731841E+03  0.76528017132E+03  0.12500000000E+03 0.  0.
</event>
<event>
 5    0  0.5641283E-005  0.3264623E+03  0.7546771E-02  0.1072713E+00
         21   -1    0    0  502  501  0.00000000000E+00  0.00000000000E+00  0.26295207133E+03  0.26295207133E+03  0.00000000000E+00 0. -1.
         21   -1    0    0  501  502 -0.00000000000E+00 -0.00000000000E+00 -0.40531192722E+03  0.40531192722E+03  0.00000000000E+00 0. -1.
         25    1    1    2    0    0 -0.26071431898E+00  0.87234111036E+02  0.12797037325E+03  0.19902581373E+03  0.12500000000E+03 0.  0.
         25    1    1    2    0    0 -0.18512429149E+02 -0.53056364290E+02 -0.30449282228E+03  0.33391401086E+03  0.12500000000E+03 0.  0.
         25    1    1    2    0    0  0.18773143468E+02 -0.34177746746E+02  0.34162593148E+02  0.13532417396E+03  0.12500000000E+03 0.  0.
</event>
<event>
 5    0  0.5641283E-005  0.3229576E+03  0.7546771E-02  0.1074296E+00
         21   -1    0    0  502  501  0.00000000000E+00  0.00000000000E+00  0.11500996899E+03  0.11500996899E+03  0.00000000000E+00 0.  1.
         21   -1    0    0  501  502 -0.00000000000E+00 -0.00000000000E+00 -0.90689194294E+03  0.90689194294E+03  0.00000000000E+00 0.  1.
         25    1    1    2    0    0  0.10994700106E+03 -0.38688425149E+02  0.18873526578E+01  0.17092015499E+03  0.12500000000E+03 0.  0.
         25    1    1    2    0    0 -0.10689132789E+03  0.22764830593E+02 -0.31724890795E+03  0.35807242715E+03  0.12500000000E+03 0.  0.
         25    1    1    2    0    0 -0.30556731725E+01  0.15923594555E+02 -0.47652041865E+03  0.49290932979E+03  0.12500000000E+03 0.  0.
</event>
<event>
 5    0  0.5641283E-005  0.2404671E+03  0.7546771E-02  0.1119482E+00
         21   -1    0    0  502  501  0.00000000000E+00  0.00000000000E+00  0.66371277238E+02  0.66371277238E+02  0.00000000000E+00 0. -1.
         21   -1    0    0  501  502 -0.00000000000E+00 -0.00000000000E+00 -0.87122652050E+03  0.87122652050E+03  0.00000000000E+00 0. -1.
         25    1    1    2    0    0 -0.94846879963E+01 -0.30494605670E+02 -0.22719506913E+03  0.26127089336E+03  0.12500000000E+03 0.  0.
         25    1    1    2    0    0  0.63358628315E+02  0.23480010821E+01 -0.83847913299E+02  0.16332575258E+03  0.12500000000E+03 0.  0.
         25    1    1    2    0    0 -0.53873940319E+02  0.28146604588E+02 -0.49381226083E+03  0.51300115180E+03  0.12500000000E+03 0.  0.
</event>
<event>
 5    0  0.5641283E-005  0.2699536E+03  0.7546771E-02  0.1101306E+00
         21   -1    0    0  502  501  0.00000000000E+00  0.00000000000E+00  0.31638561585E+03  0.31638561585E+03  0.00000000000E+00 0. -1.
         21   -1    0    0  501  502 -0.00000000000E+00 -0.00000000000E+00 -0.23033589825E+03  0.23033589825E+03  0.00000000000E+00 0. -1.
         25    1    1    2    0    0 -0.11100415754E+03 -0.78335786732E+02  0.15955285867E+03  0.24400928913E+03  0.12500000000E+03 0.  0.
         25    1    1    2    0    0  0.21297580470E+02  0.18100849878E+02 -0.24913903046E+02  0.13048728009E+03  0.12500000000E+03 0.  0.
         25    1    1    2    0    0  0.89706577066E+02  0.60234936854E+02 -0.48589238029E+02  0.17222494488E+03  0.12500000000E+03 0.  0.
</event>
<event>
 5    0  0.5641283E-005  0.2389560E+03  0.7546771E-02  0.1120490E+00
         21   -1    0    0  502  501  0.00000000000E+00  0.00000000000E+00  0.14456562096E+03  0.14456562096E+03  0.00000000000E+00 0. -1.
         21   -1    0    0  501  502 -0.00000000000E+00 -0.00000000000E+00 -0.39497625442E+03  0.39497625442E+03  0.00000000000E+00 0. -1.
         25    1    1    2    0    0 -0.11042360624E+03  0.69555058423E+02 -0.14028836039E+03  0.22877303824E+03  0.12500000000E+03 0.  0.
         25    1    1    2    0    0  0.18405939697E+02 -0.24943157381E+02 -0.41667403806E+02  0.13535919716E+03  0.12500000000E+03 0.  0.
         25    1    1    2    0    0  0.92017666546E+02 -0.44611901042E+02 -0.68454869267E+02  0.17540963998E+03  0.12500000000E+03 0.  0.
</event>
<event>
 5    0  0.5641283E-005  0.3440915E+03  0.7546771E-02  0.1065067E+00
         21   -1    0    0  502  501  0.00000000000E+00  0.00000000000E+00  0.26985864278E+04  0.26985864278E+04  0.00000000000E+00 0. -1.
         21   -1    0    0  501  502 -0.00000000000E+00 -0.00000000000E+00 -0.43874443195E+02  0.43874443195E+02  0.00000000000E+00 0. -1.
         25    1    1    2    0    0 -0.70220462459E+02  0.10575963095E+03  0.15492070563E+04  0.15594176849E+04  0.12500000000E+03 0.  0.
         25    1    1    2    0    0 -0.65736553064E+01 -0.19746936776E+03  0.78170852035E+03  0.81592314278E+03  0.12500000000E+03 0.  0.
         25    1    1    2    0    0  0.76794117765E+02  0.91709736803E+02  0.32379640796E+03  0.36712004325E+03  0.12500000000E+03 0.  0.
</event>
<event>
 5    0  0.5641283E-005  0.6461286E+03  0.7546771E-02  0.9814071E-01
         21   -1    0    0  502  501  0.00000000000E+00  0.00000000000E+00  0.11596335232E+04  0.11596335232E+04  0.00000000000E+00 0. -1.
         21   -1    0    0  501  502 -0.00000000000E+00 -0.00000000000E+00 -0.36001219153E+03  0.36001219153E+03  0.00000000000E+00 0. -1.
         25    1    1    2    0    0 -0.17930945254E+03  0.34952597627E+03 -0.91982299132E+02  0.42238138123E+03  0.12500000000E+03 0.  0.
         25    1    1    2    0    0 -0.73633547541E+02  0.19374379430E+02  0.37520958012E+03  0.40274619168E+03  0.12500000000E+03 0.  0.
         25    1    1    2    0    0  0.25294300008E+03 -0.36890035570E+03  0.51639405068E+03  0.69451814182E+03  0.12500000000E+03 0.  0.
</event>
<event>
 5    0  0.5641283E-005  0.2992148E+03  0.7546771E-02  0.1085634E+00
         21   -1    0    0  502  501  0.00000000000E+00  0.00000000000E+00  0.22891993791E+03  0.22891993791E+03  0.00000000000E+00 0. -1.
         21   -1    0    0  501  502 -0.00000000000E+00 -0.00000000000E+00 -0.39109529718E+03  0.39109529718E+03  0.00000000000E+00 0. -1.
         25    1    1    2    0    0 -0.46306558951E+02 -0.18976430209E+01 -0.23648616620E+02  0.13539629064E+03  0.12500000000E+03 0.  0.
         25    1    1    2    0    0  0.16926949908E+03  0.10760212051E+03  0.19067684601E+01  0.23634511931E+03  0.12500000000E+03 0.  0.
         25    1    1    2    0    0 -0.12296294013E+03 -0.10570447749E+03 -0.14043351111E+03  0.24827382514E+03  0.12500000000E+03 0.  0.
</event>
<event>
 5    0  0.5641283E-005  0.2395236E+03  0.7546771E-02  0.1120111E+00
         21   -1    0    0  502  501  0.00000000000E+00  0.00000000000E+00  0.45063360227E+02  0.45063360227E+02  0.00000000000E+00 0.  1.
         21   -1    0    0  501  502 -0.00000000000E+00 -0.00000000000E+00 -0.12731311290E+04  0.12731311290E+04  0.00000000000E+00 0.  1.
         25    1    1    2    0    0  0.72722446767E+02 -0.54594096869E+02 -0.39551048405E+03  0.42464410118E+03  0.12500000000E+03 0.  0.
         25    1    1    2    0    0  0.98136116258E+01 -0.11152216886E+02 -0.57361533719E+03  0.58726504576E+03  0.12500000000E+03 0.  0.
         25    1    1    2    0    0 -0.82536058393E+02  0.65746313755E+02 -0.25894194757E+03  0.30628534232E+03  0.12500000000E+03 0.  0.
</event>
<event>
 5    0  0.5641283E-005  0.2795938E+03  0.7546771E-02  0.1095911E+00
         21   -1    0    0  502  501  0.00000000000E+00  0.00000000000E+00  0.60504476060E+03  0.60504476060E+03  0.00000000000E+00 0. -1.
         21   -1    0    0  501  502 -0.00000000000E+00 -0.00000000000E+00 -0.12920146639E+03  0.12920146639E+03  0.00000000000E+00 0.  1.
         25    1    1    2    0    0 -0.18072755760E+03  0.15890905006E+01  0.16607489115E+03  0.27544662778E+03  0.12500000000E+03 0.  0.
         25    1    1    2    0    0  0.11153261365E+03  0.53957471301E+01  0.74421113785E+02  0.18339067635E+03  0.12500000000E+03 0.  0.
         25    1    1    2    0    0  0.69194943953E+02 -0.69848376308E+01  0.23534728927E+03  0.27540892286E+03  0.12500000000E+03 0.  0.
</event>
<event>
 5    0  0.5641283E-005  0.4227969E+03  0.7546771E-02  0.1036160E+00
         21   -1    0    0  502  501  0.00000000000E+00  0.00000000000E+00  0.11201865516E+04  0.11201865516E+04  0.00000000000E+00 0.  1.
         21   -1    0    0  501  502 -0.00000000000E+00 -0.00000000000E+00 -0.15957807109E+03  0.15957807109E+03  0.00000000000E+00 0.  1.
         25    1    1    2    0    0 -0.21534066049E+01  0.16157558065E+01  0.66309809133E+02  0.14152469259E+03  0.12500000000E+03 0.  0.
         25    1    1    2    0    0  0.15585387634E+03  0.57728959029E+02  0.90748569371E+03  0.93100931669E+03  0.12500000000E+03 0.  0.
         25    1    1    2    0    0 -0.15370046973E+03 -0.59344714835E+02 -0.13187022332E+02  0.20723061341E+03  0.12500000000E+03 0.  0.
</event>
<event>
 5    0  0.5641283E-005  0.4599487E+03  0.7546771E-02  0.1024796E+00
         21   -1    0    0  502  501  0.00000000000E+00  0.00000000000E+00  0.54974002318E+02  0.54974002318E+02  0.00000000000E+00 0.  1.
         21   -1    0    0  501  502 -0.00000000000E+00 -0.00000000000E+00 -0.38482344413E+04  0.38482344413E+04  0.00000000000E+00 0.  1.
         25    1    1    2    0    0 -0.17934864138E+03 -0.21054741937E+03 -0.21029393026E+04  0.21247293619E+04  0.12500000000E+03 0.  0.
         25    1    1    2    0    0  0.18465967761E+02  0.16279115124E+03 -0.25441327262E+03  0.32740351887E+03  0.12500000000E+03 0.  0.
         25    1    1    2    0    0  0.16088267362E+03  0.47756268132E+02 -0.14359078638E+04  0.14510755628E+04  0.12500000000E+03 0.  0.
</event>
<event>
 5    0  0.5641283E-005  0.2534087E+03  0.7546771E-02  0.1111169E+00
         21   -1    0    0  502  501  0.00000000000E+00  0.00000000000E+00  0.28283706060E+03  0.28283706060E+03  0.00000000000E+00 0.  1.
         21   -1    0    0  501  502 -0.00000000000E+00 -0.00000000000E+00 -0.22704226019E+03  0.22704226019E+03  0.00000000000E+00 0.  1.
         25    1    1    2    0    0 -0.42350603792E+02  0.53502326829E+02  0.10115972896E+03  0.17468360936E+03  0.12500000000E+03 0.  0.
         25    1    1    2    0    0 -0.47288897097E+02 -0.10432366185E+03 -0.13366119320E+02  0.17006857251E+03  0.12500000000E+03 0.  0.
         25    1    1    2    0    0  0.89639500890E+02  0.50821335018E+02 -0.31998809225E+02  0.16512713891E+03  0.12500000000E+03 0.  0.
</event>
<event>
 5    0  0.5641283E-005  0.4330848E+03  0.7546771E-02  0.1032890E+00
         21   -1    0    0  502  501  0.00000000000E+00  0.00000000000E+00  0.49254896031E+03  0.49254896031E+03  0.00000000000E+00 0.  1.
         21   -1    0    0  501  502 -0.00000000000E+00 -0.00000000000E+00 -0.38079966045E+03  0.38079966045E+03  0.00000000000E+00 0.  1.
         25    1    1    2    0    0 -0.21214472916E+03 -0.28870758457E+03 -0.67533245370E+02  0.38541301837E+03  0.12500000000E+03 0.  0.
         25    1    1    2    0    0  0.37469900052E+02  0.73604334697E+02  0.59226684621E+02  0.16110366745E+03  0.12500000000E+03 0.  0.
         25    1    1    2    0    0  0.17467482911E+03  0.21510324987E+03  0.12005586060E+03  0.32683193494E+03  0.12500000000E+03 0.  0.
</event>
<event>
 5    0  0.5641283E-005  0.3009943E+03  0.7546771E-02  0.1084745E+00
         21   -1    0    0  502  501  0.00000000000E+00  0.00000000000E+00  0.85351709642E+03  0.85351709642E+03  0.00000000000E+00 0. -1.
         21   -1    0    0  501  502 -0.00000000000E+00 -0.00000000000E+00 -0.10614615636E+03  0.10614615636E+03  0.00000000000E+00 0. -1.
         25    1    1    2    0    0  0.71194527104E+02  0.15793645319E+03  0.45059437493E+03  0.49867110870E+03  0.12500000000E+03 0.  0.
         25    1    1    2    0    0 -0.10616438661E+03 -0.14964161689E+03  0.20082743623E+03  0.29936624665E+03  0.12500000000E+03 0.  0.
         25    1    1    2    0    0  0.34969859507E+02 -0.82948363027E+01  0.95949128913E+02  0.16162589744E+03  0.12500000000E+03 0.  0.
</event>
<event>
 5    0  0.5641283E-005  0.2796473E+03  0.7546771E-02  0.1095882E+00
         21   -1    0    0  502  501  0.00000000000E+00  0.00000000000E+00  0.61557727013E+02  0.61557727013E+02  0.00000000000E+00 0.  1.
         21   -1    0    0  501  502 -0.00000000000E+00 -0.00000000000E+00 -0.12703943569E+04  0.12703943569E+04  0.00000000000E+00 0.  1.
         25    1    1    2    0    0 -0.11202717851E+03 -0.12880613319E+03 -0.35849234385E+03  0.41627259010E+03  0.12500000000E+03 0.  0.
         25    1    1    2    0    0  0.71443563063E+02  0.79069596231E+02 -0.65348653855E+03  0.67381439567E+03  0.12500000000E+03 0.  0.
         25    1    1    2    0    0  0.40583615444E+02  0.49736536963E+02 -0.19685774750E+03  0.24186509815E+03  0.12500000000E+03 0.  0.
</event>
<event>
 5    0  0.5641283E-005  0.3217346E+03  0.7546771E-02  0.1074854E+00
         21   -1    0    0  502  501  0.00000000000E+00  0.00000000000E+00  0.91643160868E+02  0.91643160868E+02  0.00000000000E+00 0.  1.
         21   -1    0    0  501  502 -0.00000000000E+00 -0.00000000000E+00 -0.11295243256E+04  0.11295243256E+04  0.00000000000E+00 0.  1.
         25    1    1    2    0    0  0.20944172436E+03  0.23919235973E+02 -0.48419938828E+03  0.54268961051E+03  0.12500000000E+03 0.  0.
         25    1    1    2    0    0 -0.18909913160E+03 -0.96026527898E+02 -0.35869724552E+03  0.43504975528E+03  0.12500000000E+03 0.  0.
         25    1    1    2    0    0 -0.20342592762E+02  0.72107291925E+02 -0.19498453094E+03  0.24342812068E+03  0.12500000000E+03 0.  0.
</event>
<event>
 5    0  0.5641283E-005  0.2714730E+03  0.7546771E-02  0.1100440E+00
         21   -1    0    0  502  501  0.00000000000E+00  0.00000000000E+00  0.14737883432E+03  0.14737883432E+03  0.00000000000E+00 0. -1.
         21   -1    0    0  501  502 -0.00000000000E+00 -0.00000000000E+00 -0.50005545473E+03  0.50005545473E+03  0.00000000000E+00 0. -1.
         25    1    1    2    0    0 -0.64066450968E+02  0.10876936994E+03 -0.96875923302E+02  0.20234927846E+03  0.12500000000E+03 0.  0.
         25    1    1    2    0    0  0.11455891634E+02 -0.42384422057E+02 -0.26239467758E+03  0.29394496681E+03  0.12500000000E+03 0.  0.
         25    1    1    2    0    0  0.52610559335E+02 -0.66384947881E+02  0.65939804788E+01  0.15114004379E+03  0.12500000000E+03 0.  0.
</event>
<event>
 5    0  0.5641283E-005  0.6354853E+03  0.7546771E-02  0.9834403E-01
         21   -1    0    0  502  501  0.00000000000E+00  0.00000000000E+00  0.35257082315E+04  0.35257082315E+04  0.00000000000E+00 0. -1.
         21   -1    0    0  501  502 -0.00000000000E+00 -0.00000000000E+00 -0.11454195221E+03  0.11454195221E+03  0.00000000000E+00 0. -1.
         25    1    1    2    0    0  0.47138523241E+02  0.17712858583E+03  0.13895021373E+03  0.26177994229E+03  0.12500000000E+03 0.  0.
         25    1    1    2    0    0 -0.34489560159E+03  0.13497103544E+03  0.14570135557E+04  0.15085369263E+04  0.12500000000E+03 0.  0.
         25    1    1    2    0    0  0.29775707835E+03 -0.31209962127E+03  0.18152025099E+04  0.18699333152E+04  0.12500000000E+03 0.  0.
</event>
<event>
 5    0  0.5641283E-005  0.2805715E+03  0.7546771E-02  0.1095377E+00
         21   -1    0    0  502  501  0.00000000000E+00  0.00000000000E+00  0.39098085711E+03  0.39098085711E+03  0.00000000000E+00 0.  1.
         21   -1    0    0  501  502 -0.00000000000E+00 -0.00000000000E+00 -0.20134069725E+03  0.20134069725E+03  0.00000000000E+00 0.  1.
         25    1    1    2    0    0  0.89371802894E+02  0.66677884723E+02  0.95541849967E+02  0.19283802674E+03  0.12500000000E+03 0.  0.
         25    1    1    2    0    0 -0.31050106704E+02  0.10517888701E+03  0.22645852257E+02  0.16782294844E+03  0.12500000000E+03 0.  0.
         25    1    1    2    0    0 -0.58321696190E+02 -0.17185677174E+03  0.71452457632E+02  0.23166057917E+03  0.12500000000E+03 0.  0.
</event>
<event>
 5    0  0.5641283E-005  0.3090537E+03  0.7546771E-02  0.1080800E+00
         21   -1    0    0  502  501  0.00000000000E+00  0.00000000000E+00  0.12660392388E+03  0.12660392388E+03  0.00000000000E+00 0.  1.
         21   -1    0    0  501  502 -0.00000000000E+00 -0.00000000000E+00 -0.75443318149E+03  0.75443318149E+03  0.00000000000E+00 0.  1.
         25    1    1    2    0    0  0.69348840088E+02  0.33610604780E+01 -0.14544647484E+03  0.20396135760E+03  0.12500000000E+03 0.  0.
         25    1    1    2    0    0 -0.73272068066E+02  0.83195331902E+02 -0.49695146228E+03  0.52428619576E+03  0.12500000000E+03 0.  0.
         25    1    1    2    0    0  0.39232279776E+01 -0.86556392380E+02  0.14568679503E+02  0.15278955201E+03  0.12500000000E+03 0.  0.
</event>
<event>
 5    0  0.5641283E-005  0.4680911E+03  0.7546771E-02  0.1022460E+00
         21   -1    0    0  502  501  0.00000000000E+00  0.00000000000E+00  0.23030812901E+03  0.23030812901E+03  0.00000000000E+00 0. -1.
         21   -1    0    0  501  502 -0.00000000000E+00 -0.00000000000E+00 -0.95137434347E+03  0.95137434347E+03  0.00000000000E+00 0. -1.
         25    1    1    2    0    0  0.11899385587E+03 -0.10541028547E+03 -0.40730973111E+03  0.45474947287E+03  0.12500000000E+03 0.  0.
         25    1    1    2    0    0 -0.29043561975E+03  0.21325768776E+03 -0.30570709632E+03  0.48878780605E+03  0.12500000000E+03 0.  0.
         25    1    1    2    0    0  0.17144176388E+03 -0.10784740228E+03 -0.80493870201E+01  0.23814519355E+03  0.12500000000E+03 0.  0.
</event>
<event>
 5    0  0.5641283E-005  0.2467018E+03  0.7546771E-02  0.1115407E+00
         21   -1    0    0  502  501  0.00000000000E+00  0.00000000000E+00  0.11576954237E+03  0.11576954237E+03  0.00000000000E+00 0.  1.
         21   -1    0    0  501  502 -0.00000000000E+00 -0.00000000000E+00 -0.52571493093E+03  0.52571493093E+03  0.00000000000E+00 0.  1.
         25    1    1    2    0    0  0.21672848191E+02 -0.19911837602E+02 -0.14433958824E+03  0.19319707648E+03  0.12500000000E+03 0.  0.
         25    1    1    2    0    0  0.41482208311E+02  0.40303129499E+02  0.10387778208E+02  0.13812321235E+03  0.12500000000E+03 0.  0.
         25    1    1    2    0    0 -0.63155056502E+02 -0.20391291897E+02 -0.27599357852E+03  0.31016418448E+03  0.12500000000E+03 0.  0.
</event>
<event>
 5    0  0.6465102E-005  0.4502593E+03  0.7546771E-02  0.1027645E+00
         21   -1    0    0  502  501  0.00000000000E+00  0.00000000000E+00  0.10946021365E+04  0.10946021365E+04  0.00000000000E+00 0. -1.
         21   -1    0    0  501  502 -0.00000000000E+00 -0.00000000000E+00 -0.18521201777E+03  0.18521201777E+03  0.00000000000E+00 0. -1.
         25    1    1    2    0    0 -0.24577892695E+03 -0.30951063263E+02  0.20286824542E+03  0.34372339788E+03  0.12500000000E+03 0.  0.
         25    1    1    2    0    0  0.18774558610E+03 -0.90766907558E+02  0.42164719743E+02  0.24675878951E+03  0.12500000000E+03 0.  0.
         25    1    1    2    0    0  0.58033340848E+02  0.12171797082E+03  0.66435715360E+03  0.68933196692E+03  0.12500000000E+03 0.  0.
</event>
<event>
 5    0  0.5641283E-005  0.2694171E+03  0.7546771E-02  0.1101614E+00
         21   -1    0    0  502  501  0.00000000000E+00  0.00000000000E+00  0.37531317451E+03  0.37531317451E+03  0.00000000000E+00 0. -1.
         21   -1    0    0  501  502 -0.00000000000E+00 -0.00000000000E+00 -0.19340007030E+03  0.19340007030E+03  0.00000000000E+00 0. -1.
         25    1    1    2    0    0 -0.47513630321E+02 -0.13265556463E+03  0.59642356410E+02  0.19757847700E+03  0.12500000000E+03 0.  0.
         25    1    1    2    0    0  0.75471558541E+02  0.12480657398E+03  0.14517682026E+03  0.24077779424E+03  0.12500000000E+03 0.  0.
         25    1    1    2    0    0 -0.27957928220E+02  0.78489906538E+01 -0.22906072460E+02  0.13035697358E+03  0.12500000000E+03 0.  0.
</event>
<event>
 5    0  0.5641283E-005  0.2537520E+03  0.7546771E-02  0.1110956E+00
         21   -1    0    0  502  501  0.00000000000E+00  0.00000000000E+00  0.23307567064E+04  0.23307567064E+04  0.00000000000E+00 0. -1.
         21   -1    0    0  501  502 -0.00000000000E+00 -0.00000000000E+00 -0.27626259097E+02  0.27626259097E+02  0.00000000000E+00 0. -1.
         25    1    1    2    0    0 -0.13933260070E+02  0.48395639546E+02  0.50107060512E+03  0.51887669535E+03  0.12500000000E+03 0.  0.
         25    1    1    2    0    0  0.63342268783E+02  0.53985111480E+02  0.13235522455E+04  0.13320443618E+04  0.12500000000E+03 0.  0.
         25    1    1    2    0    0 -0.49409008713E+02 -0.10238075103E+03  0.47850759669E+03  0.50746190834E+03  0.12500000000E+03 0.  0.
</event>
<event>
 5    0  0.5641283E-005  0.2778934E+03  0.7546771E-02  0.1096845E+00
         21   -1    0    0  502  501  0.00000000000E+00  0.00000000000E+00  0.11690005273E+03  0.11690005273E+03  0.00000000000E+00 0. -1.
         21   -1    0    0  501  502 -0.00000000000E+00 -0.00000000000E+00 -0.66060505073E+03  0.66060505073E+03  0.00000000000E+00 0. -1.
         25    1    1    2    0    0  0.88540665373E+02  0.11343089146E+03 -0.26091014538E+03  0.32311781214E+03  0.12500000000E+03 0.  0.
         25    1    1    2    0    0 -0.13557956554E+03 -0.21063850376E+02 -0.19724801545E+03  0.27084549836E+03  0.12500000000E+03 0.  0.
         25    1    1    2    0    0  0.47038900168E+02 -0.92367041088E+02 -0.85546837175E+02  0.18354179295E+03  0.12500000000E+03 0.  0.
</event>
<event>
 5    0  0.5641283E-005  0.2347044E+03  0.7546771E-02  0.1123372E+00
         21   -1    0    0  502  501  0.00000000000E+00  0.00000000000E+00  0.35376796781E+03  0.35376796781E+03  0.00000000000E+00 0. -1.
         21   -1    0    0  501  502 -0.00000000000E+00 -0.00000000000E+00 -0.15571263408E+03  0.15571263408E+03  0.00000000000E+00 0. -1.
         25    1    1    2    0    0  0.59359977812E+02 -0.65476551302E+01  0.12128296504E+03  0.18412234075E+03  0.12500000000E+03 0.  0.
         25    1    1    2    0    0 -0.29870619393E+02  0.37844823613E+02  0.12636950871E+03  0.18417040291E+03  0.12500000000E+03 0.  0.
         25    1    1    2    0    0 -0.29489358419E+02 -0.31297168483E+02 -0.49597140019E+02  0.14118785824E+03  0.12500000000E+03 0.  0.
</event>
<event>
 5    0  0.5641283E-005  0.2497330E+03  0.7546771E-02  0.1113474E+00
         21   -1    0    0  502  501  0.00000000000E+00  0.00000000000E+00  0.67360422912E+02  0.67360422912E+02  0.00000000000E+00 0. -1.
         21   -1    0    0  501  502 -0.00000000000E+00 -0.00000000000E+00 -0.92586364322E+03  0.92586364322E+03  0.00000000000E+00 0. -1.
         25    1    1    2    0    0 -0.14672772693E+02 -0.12364397520E+02 -0.42501934978E+03  0.44343501922E+03  0.12500000000E+03 0.  0.
         25    1    1    2    0    0 -0.17454918334E+02 -0.14607916702E+02 -0.39121275681E+03  0.41132771180E+03  0.12500000000E+03 0.  0.
         25    1    1    2    0    0  0.32127691027E+02  0.26972314222E+02 -0.42271113717E+02  0.13846133511E+03  0.12500000000E+03 0.  0.
</event>
<event>
 5    0  0.5641283E-005  0.2996680E+03  0.7546771E-02  0.1085407E+00
         21   -1    0    0  502  501  0.00000000000E+00  0.00000000000E+00  0.64010384350E+03  0.64010384350E+03  0.00000000000E+00 0.  1.
         21   -1    0    0  501  502 -0.00000000000E+00 -0.00000000000E+00 -0.14029112568E+03  0.14029112568E+03  0.00000000000E+00 0.  1.
         25    1    1    2    0    0 -0.16119531656E+03  0.49284678563E+02  0.36312046392E+03  0.41939764060E+03  0.12500000000E+03 0.  0.
         25    1    1    2    0    0  0.11449099201E+03 -0.93424041965E+02  0.80992633374E+02  0.20981192895E+03  0.12500000000E+03 0.  0.
         25    1    1    2    0    0  0.46704324546E+02  0.44139363402E+02  0.55699620523E+02  0.15118539962E+03  0.12500000000E+03 0.  0.
</event>
<event>
 5    0  0.5641283E-005  0.2557773E+03  0.7546771E-02  0.1109707E+00
         21   -1    0    0  502  501  0.00000000000E+00  0.00000000000E+00  0.17608711551E+04  0.17608711551E+04  0.00000000000E+00 0.  1.
         21   -1    0    0  501  502 -0.00000000000E+00 -0.00000000000E+00 -0.37153203277E+02  0.37153203277E+02  0.00000000000E+00 0.  1.
         25    1    1    2    0    0  0.15378400487E+02  0.37817403525E+02  0.58104076184E+03  0.59573485556E+03  0.12500000000E+03 0.  0.
         25    1    1    2    0    0 -0.25286053447E+02  0.97618315142E+02  0.30698998169E+03  0.34646294002E+03  0.12500000000E+03 0.  0.
         25    1    1    2    0    0  0.99076529604E+01 -0.13543571867E+03  0.83568720827E+03  0.85582656277E+03  0.12500000000E+03 0.  0.
</event>
<event>
 5    0  0.5641283E-005  0.3389381E+03  0.7546771E-02  0.1067249E+00
         21   -1    0    0  502  501  0.00000000000E+00  0.00000000000E+00  0.27922314245E+03  0.27922314245E+03  0.00000000000E+00 0.  1.
         21   -1    0    0  501  502 -0.00000000000E+00 -0.00000000000E+00 -0.41142379260E+03  0.41142379260E+03  0.00000000000E+00 0.  1.
         25    1    1    2    0    0  0.31042123336E+02 -0.19223019880E+03 -0.75206731459E+02  0.24330457293E+03  0.12500000000E+03 0.  0.
         25    1    1    2    0    0  0.60457006518E+02  0.16253431790E+03  0.89806504165E+02  0.23186776905E+03  0.12500000000E+03 0.  0.
         25    1    1    2    0    0 -0.91499129854E+02  0.29695880897E+02 -0.14680042286E+03  0.21547459307E+03  0.12500000000E+03 0.  0.
</event>
<event>
 5    0  0.5641283E-005  0.2678563E+03  0.7546771E-02  0.1102513E+00
         21   -1    0    0  502  501  0.00000000000E+00  0.00000000000E+00  0.13070308349E+03  0.13070308349E+03  0.00000000000E+00 0.  1.
         21   -1    0    0  501  502 -0.00000000000E+00 -0.00000000000E+00 -0.54893101964E+03  0.54893101964E+03  0.00000000000E+00 0.  1.
         25    1    1    2    0    0 -0.14562794668E+03 -0.44688379670E+02 -0.14755791627E+03  0.24617653988E+03  0.12500000000E+03 0.  0.
         25    1    1    2    0    0  0.15849838487E+03  0.54335841012E+01 -0.19924410290E+03  0.28368023262E+03  0.12500000000E+03 0.  0.
         25    1    1    2    0    0 -0.12870438183E+02  0.39254795569E+02 -0.71425916990E+02  0.14977733063E+03  0.12500000000E+03 0.  0.
</event>
<event>
 5    0  0.5641283E-005  0.2677518E+03  0.7546771E-02  0.1102573E+00
         21   -1    0    0  502  501  0.00000000000E+00  0.00000000000E+00  0.36902406558E+03  0.36902406558E+03  0.00000000000E+00 0.  1.
         21   -1    0    0  501  502 -0.00000000000E+00 -0.00000000000E+00 -0.19427193415E+03  0.19427193415E+03  0.00000000000E+00 0.  1.
         25    1    1    2    0    0 -0.57719831329E+01  0.29929125462E+02  0.48444656790E+02  0.13748073724E+03  0.12500000000E+03 0.  0.
         25    1    1    2    0    0 -0.12549181788E+03  0.56517627189E+02  0.12671127222E+03  0.22499596673E+03  0.12500000000E+03 0.  0.
         25    1    1    2    0    0  0.13126380101E+03 -0.86446752651E+02 -0.40379758002E+00  0.20081929577E+03  0.12500000000E+03 0.  0.
</event>
<event>
 5    0  0.5641283E-005  0.2718505E+03  0.7546771E-02  0.1100225E+00
         21   -1    0    0  502  501  0.00000000000E+00  0.00000000000E+00  0.39725130855E+03  0.39725130855E+03  0.00000000000E+00 0.  1.
         21   -1    0    0  501  502 -0.00000000000E+00 -0.00000000000E+00 -0.18603515506E+03  0.18603515506E+03  0.00000000000E+00 0.  1.
         25    1    1    2    0    0 -0.11636396817E+03  0.86451849029E+02  0.16250428758E+03  0.25109189308E+03  0.12500000000E+03 0.  0.
         25    1    1    2    0    0  0.57762571270E+02 -0.29703333648E+02  0.10176716668E+03  0.17378250454E+03  0.12500000000E+03 0.  0.
         25    1    1    2    0    0  0.58601396901E+02 -0.56748515381E+02 -0.53055300760E+02  0.15841206600E+03  0.12500000000E+03 0.  0.
</event>
<event>
 5    0  0.5641283E-005  0.2554492E+03  0.7546771E-02  0.1109909E+00
         21   -1    0    0  502  501  0.00000000000E+00  0.00000000000E+00  0.33163324323E+03  0.33163324323E+03  0.00000000000E+00 0.  1.
         21   -1    0    0  501  502 -0.00000000000E+00 -0.00000000000E+00 -0.19676637344E+03  0.19676637344E+03  0.00000000000E+00 0.  1.
         25    1    1    2    0    0 -0.17057579153E+02  0.77278844138E+02 -0.58078164310E+02  0.15893726412E+03  0.12500000000E+03 0.  0.
         25    1    1    2    0    0  0.16864183820E+02 -0.12837766756E+03  0.10652085736E+03  0.20913373539E+03  0.12500000000E+03 0.  0.
         25    1    1    2    0    0  0.19339533309E+00  0.51098823423E+02  0.86424176737E+02  0.16032861716E+03  0.12500000000E+03 0.  0.
</event>
<event>
 5    0  0.5902334E-005  0.2961352E+03  0.7546771E-02  0.1087189E+00
         21   -1    0    0  502  501  0.00000000000E+00  0.00000000000E+00  0.48676246845E+03  0.48676246845E+03  0.00000000000E+00 0.  1.
         21   -1    0    0  501  502 -0.00000000000E+00 -0.00000000000E+00 -0.18016187171E+03  0.18016187171E+03  0.00000000000E+00 0.  1.
         25    1    1    2    0    0  0.13923317613E+03  0.11682626897E+03  0.15443955273E+03  0.26927835023E+03  0.12500000000E+03 0.  0.
         25    1    1    2    0    0 -0.89811480481E+02 -0.12758589829E+03  0.16896157722E+03  0.26175805249E+03  0.12500000000E+03 0.  0.
         25    1    1    2    0    0 -0.49421695647E+02  0.10759629317E+02 -0.16800533205E+02  0.13588793743E+03  0.12500000000E+03 0.  0.
</event>
<event>
 5    0  0.5714428E-005  0.3472745E+03  0.7546771E-02  0.1063739E+00
         21   -1    0    0  502  501  0.00000000000E+00  0.00000000000E+00  0.61285740883E+03  0.61285740883E+03  0.00000000000E+00 0. -1.
         21   -1    0    0  501  502 -0.00000000000E+00 -0.00000000000E+00 -0.19678248016E+03  0.19678248016E+03  0.00000000000E+00 0. -1.
         25    1    1    2    0    0  0.31760611568E+02 -0.11589507298E+03  0.14677733296E+03  0.22717612079E+03  0.12500000000E+03 0.  0.
         25    1    1    2    0    0  0.96374456070E+02  0.14411067773E+03 -0.46161080423E+02  0.21865902352E+03  0.12500000000E+03 0.  0.
         25    1    1    2    0    0 -0.12813506764E+03 -0.28215604758E+02  0.31545867612E+03  0.36380474468E+03  0.12500000000E+03 0.  0.
</event>
<event>
 5    0  0.5641283E-005  0.2455302E+03  0.7546771E-02  0.1116163E+00
         21   -1    0    0  502  501  0.00000000000E+00  0.00000000000E+00  0.20640702131E+03  0.20640702131E+03  0.00000000000E+00 0.  1.
         21   -1    0    0  501  502 -0.00000000000E+00 -0.00000000000E+00 -0.29206900901E+03  0.29206900901E+03  0.00000000000E+00 0.  1.
         25    1    1    2    0    0 -0.10034001766E+03 -0.62807423622E+02 -0.46980664193E+02  0.17845188263E+03  0.12500000000E+03 0.  0.
         25    1    1    2    0    0  0.11837165533E+03 -0.90154149464E+01 -0.20819916565E+02  0.17364214758E+03  0.12500000000E+03 0.  0.
         25    1    1    2    0    0 -0.18031637666E+02  0.71822838569E+02 -0.17861406939E+02  0.14638200011E+03  0.12500000000E+03 0.  0.
</event>
<event>
 5    0  0.5641283E-005  0.5741631E+03  0.7546771E-02  0.9960508E-01
         21   -1    0    0  502  501  0.00000000000E+00  0.00000000000E+00  0.27211011422E+03  0.27211011422E+03  0.00000000000E+00 0. -1.
         21   -1    0    0  501  502 -0.00000000000E+00 -0.00000000000E+00 -0.12115067237E+04  0.12115067237E+04  0.00000000000E+00 0. -1.
         25    1    1    2    0    0 -0.31268462220E+02 -0.38604088962E+03 -0.46779370455E+03  0.62004938127E+03  0.12500000000E+03 0.  0.
         25    1    1    2    0    0 -0.23664433724E+03  0.69682352684E+02 -0.10361897906E+03  0.29532704828E+03  0.12500000000E+03 0.  0.
         25    1    1    2    0    0  0.26791279946E+03  0.31635853694E+03 -0.36798392590E+03  0.56824040839E+03  0.12500000000E+03 0.  0.
</event>
<event>
 5    0  0.5641283E-005  0.2582271E+03  0.7546771E-02  0.1108213E+00
         21   -1    0    0  502  501  0.00000000000E+00  0.00000000000E+00  0.95759265344E+02  0.95759265344E+02  0.00000000000E+00 0. -1.
         21   -1    0    0  501  502 -0.00000000000E+00 -0.00000000000E+00 -0.69634248378E+03  0.69634248378E+03  0.00000000000E+00 0. -1.
         25    1    1    2    0    0 -0.47252323703E+02  0.11370316492E+03 -0.23046788559E+03  0.28965779481E+03  0.12500000000E+03 0.  0.
         25    1    1    2    0    0  0.74959328628E+02  0.82006401246E+01 -0.90909196620E+02  0.17197567699E+03  0.12500000000E+03 0.  0.
         25    1    1    2    0    0 -0.27707004925E+02 -0.12190380504E+03 -0.27920613622E+03  0.33046827731E+03  0.12500000000E+03 0.  0.
</event>
<event>
 5    0  0.5641283E-005  0.2959281E+03  0.7546771E-02  0.1087294E+00
         21   -1    0    0  502  501  0.00000000000E+00  0.00000000000E+00  0.94236119923E+02  0.94236119923E+02  0.00000000000E+00 0. -1.
         21   -1    0    0  501  502 -0.00000000000E+00 -0.00000000000E+00 -0.92929812554E+03  0.92929812554E+03  0.00000000000E+00 0. -1.
         25    1    1    2    0    0  0.10561541560E+03 -0.13562744988E+03 -0.43926539313E+03  0.48798412554E+03  0.12500000000E+03 0.  0.
         25    1    1    2    0    0 -0.14432849420E+03  0.32578537155E+02 -0.22709917113E+03  0.29848133752E+03  0.12500000000E+03 0.  0.
         25    1    1    2    0    0  0.38713078599E+02  0.10304891273E+03 -0.16869744136E+03  0.23706878240E+03  0.12500000000E+03 0.  0.
</event>
<event>
 5    0  0.5641283E-005  0.4246730E+03  0.7546771E-02  0.1035556E+00
         21   -1    0    0  502  501  0.00000000000E+00  0.00000000000E+00  0.50702458108E+03  0.50702458108E+03  0.00000000000E+00 0. -1.
         21   -1    0    0  501  502 -0.00000000000E+00 -0.00000000000E+00 -0.35569702552E+03  0.35569702552E+03  0.00000000000E+00 0. -1.
         25    1    1    2    0    0  0.10922096944E+03  0.18774765570E+03  0.94989291757E+02  0.26800441775E+03  0.12500000000E+03 0.  0.
         25    1    1    2    0    0  0.48090326240E+02  0.93752029152E+01  0.22831214745E+03  0.26486224831E+03  0.12500000000E+03 0.  0.
         25    1    1    2    0    0 -0.15731129568E+03 -0.19712285862E+03 -0.17197388365E+03  0.32985494054E+03  0.12500000000E+03 0.  0.
</event>
<event>
 5    0  0.5641283E-005  0.2257704E+03  0.7546771E-02  0.1129653E+00
         21   -1    0    0  502  501  0.00000000000E+00  0.00000000000E+00  0.16238302147E+03  0.16238302147E+03  0.00000000000E+00 0.  1.
         21   -1    0    0  501  502 -0.00000000000E+00 -0.00000000000E+00 -0.31390153978E+03  0.31390153978E+03  0.00000000000E+00 0.  1.
         25    1    1    2    0    0 -0.89829177929E+02  0.39226937253E+02 -0.25799718244E+02  0.16093060391E+03  0.12500000000E+03 0.  0.
         25    1    1    2    0    0  0.81807477606E+02  0.19361285712E+02 -0.72584069565E+02  0.16721474197E+03  0.12500000000E+03 0.  0.
         25    1    1    2    0    0  0.80217003230E+01 -0.58588222965E+02 -0.53134730504E+02  0.14813921538E+03  0.12500000000E+03 0.  0.
</event>
<event>
 5    0  0.5641283E-005  0.4061742E+03  0.7546771E-02  0.1041662E+00
         21   -1    0    0  502  501  0.00000000000E+00  0.00000000000E+00  0.30577050030E+03  0.30577050030E+03  0.00000000000E+00 0. -1.
         21   -1    0    0  501  502 -0.00000000000E+00 -0.00000000000E+00 -0.53954677068E+03  0.53954677068E+03  0.00000000000E+00 0. -1.
         25    1    1    2    0    0  0.19412750286E+02 -0.10023223984E+03 -0.35730148571E+02  0.16530275344E+03  0.12500000000E+03 0.  0.
         25    1    1    2    0    0  0.27744090936E+03 -0.18033750291E+02 -0.12340891931E+03  0.32886689664E+03  0.12500000000E+03 0.  0.
         25    1    1    2    0    0 -0.29685365965E+03  0.11826599013E+03 -0.74637202501E+02  0.35114762090E+03  0.12500000000E+03 0.  0.
</event>
<event>
 5    0  0.5641283E-005  0.3702868E+03  0.7546771E-02  0.1054583E+00
         21   -1    0    0  502  501  0.00000000000E+00  0.00000000000E+00  0.48322125079E+03  0.48322125079E+03  0.00000000000E+00 0.  1.
         21   -1    0    0  501  502 -0.00000000000E+00 -0.00000000000E+00 -0.28374651710E+03  0.28374651710E+03  0.00000000000E+00 0.  1.
         25    1    1    2    0    0  0.18218378103E+03 -0.59110483177E+02  0.27471887994E+03  0.35746390347E+03  0.12500000000E+03 0.  0.
         25    1    1    2    0    0  0.21334970520E+02  0.88501179406E+02 -0.67526544866E+02  0.16873788545E+03  0.12500000000E+03 0.  0.
         25    1    1    2    0    0 -0.20351875155E+03 -0.29390696229E+02 -0.77176013871E+01  0.24076597897E+03  0.12500000000E+03 0.  0.
</event>
<event>
 5    0  0.5641283E-005  0.1982009E+03  0.7546771E-02  0.1151266E+00
         21   -1    0    0  502  501  0.00000000000E+00  0.00000000000E+00  0.14352778719E+03  0.14352778719E+03  0.00000000000E+00 0. -1.
         21   -1    0    0  501  502 -0.00000000000E+00 -0.00000000000E+00 -0.27370035450E+03  0.27370035450E+03  0.00000000000E+00 0. -1.
         25    1    1    2    0    0  0.11064007386E+02 -0.13044686614E+02 -0.45676728167E+02  0.13417875989E+03  0.12500000000E+03 0.  0.
         25    1    1    2    0    0  0.37983637074E+02  0.79331984883E+01 -0.14925930182E+02  0.13173259170E+03  0.12500000000E+03 0.  0.
         25    1    1    2    0    0 -0.49047644460E+02  0.51114881253E+01 -0.69569908959E+02  0.15131679011E+03  0.12500000000E+03 0.  0.
</event>
<event>
 5    0  0.5641283E-005  0.2282521E+03  0.7546771E-02  0.1127876E+00
         21   -1    0    0  502  501  0.00000000000E+00  0.00000000000E+00  0.11884689374E+03  0.11884689374E+03  0.00000000000E+00 0. -1.
         21   -1    0    0  501  502 -0.00000000000E+00 -0.00000000000E+00 -0.43837102034E+03  0.43837102034E+03  0.00000000000E+00 0. -1.
         25    1    1    2    0    0 -0.10766749516E+02  0.84272359568E+02 -0.16628824704E+03  0.22470988982E+03  0.12500000000E+03 0.  0.
         25    1    1    2    0    0 -0.36630165527E+02 -0.82881432829E+02 -0.45923284466E+02  0.16107466899E+03  0.12500000000E+03 0.  0.
         25    1    1    2    0    0  0.47396915043E+02 -0.13909267392E+01 -0.10731259510E+03  0.17143335527E+03  0.12500000000E+03 0.  0.
</event>
<event>
 5    0  0.5641283E-005  0.2769603E+03  0.7546771E-02  0.1097361E+00
         21   -1    0    0  502  501  0.00000000000E+00  0.00000000000E+00  0.70721984758E+03  0.70721984758E+03  0.00000000000E+00 0.  1.
         21   -1    0    0  501  502 -0.00000000000E+00 -0.00000000000E+00 -0.10846272694E+03  0.10846272694E+03  0.00000000000E+00 0.  1.
         25    1    1    2    0    0  0.73885564230E+02  0.96547416460E+02  0.11056434080E+03  0.20647022469E+03  0.12500000000E+03 0.  0.
         25    1    1    2    0    0 -0.16943034056E+02  0.47482359884E+02  0.32497604110E+03  0.35181823175E+03  0.12500000000E+03 0.  0.
         25    1    1    2    0    0 -0.56942530174E+02 -0.14402977634E+03  0.16321673873E+03  0.25739411807E+03  0.12500000000E+03 0.  0.
</event>
<event>
 5    0  0.5641283E-005  0.2524734E+03  0.7546771E-02  0.1111752E+00
         21   -1    0    0  502  501  0.00000000000E+00  0.00000000000E+00  0.73769162118E+03  0.73769162118E+03  0.00000000000E+00 0. -1.
         21   -1    0    0  501  502 -0.00000000000E+00 -0.00000000000E+00 -0.86408474951E+02  0.86408474951E+02  0.00000000000E+00 0. -1.
         25    1    1    2    0    0 -0.14546592548E+03  0.23791424623E+02  0.16755829912E+03  0.25578731589E+03  0.12500000000E+03 0.  0.
         25    1    1    2    0    0  0.82772519574E+02 -0.34985257286E+02  0.20603237136E+03  0.25719563813E+03  0.12500000000E+03 0.  0.
         25    1    1    2    0    0  0.62693405909E+02  0.11193832663E+02  0.27769247574E+03  0.31111714211E+03  0.12500000000E+03 0.  0.
</event>
<event>
 5    0  0.5641283E-005  0.7472845E+03  0.7546771E-02  0.9639620E-01
         21   -1    0    0  502  501  0.00000000000E+00  0.00000000000E+00  0.15043643667E+04  0.15043643667E+04  0.00000000000E+00 0.  1.
         21   -1    0    0  501  502 -0.00000000000E+00 -0.00000000000E+00 -0.37120933246E+03  0.37120933246E+03  0.00000000000E+00 0.  1.
         25    1    1    2    0    0 -0.57436004798E+03 -0.29040938124E+03  0.87855695944E+03  0.10962273507E+04  0.12500000000E+03 0.  0.
         25    1    1    2    0    0  0.18353849353E+03  0.23303629555E+03  0.12365608354E+03  0.34483056803E+03  0.12500000000E+03 0.  0.
         25    1    1    2    0    0  0.39082155445E+03  0.57373085688E+02  0.13094199127E+03  0.43451578045E+03  0.12500000000E+03 0.  0.
</event>
<event>
 5    0  0.5641283E-005  0.3641478E+03  0.7546771E-02  0.1056953E+00
         21   -1    0    0  502  501  0.00000000000E+00  0.00000000000E+00  0.69649522553E+02  0.69649522553E+02  0.00000000000E+00 0. -1.
         21   -1    0    0  501  502 -0.00000000000E+00 -0.00000000000E+00 -0.19038701941E+04  0.19038701941E+04  0.00000000000E+00 0. -1.
         25    1    1    2    0    0 -0.49510858614E+02 -0.70680961503E+02 -0.11886611840E+04  0.11983269728E+04  0.12500000000E+03 0.  0.
         25    1    1    2    0    0 -0.62723141746E+02  0.12019985277E+03 -0.54019083711E+03  0.57080061108E+03  0.12500000000E+03 0.  0.
         25    1    1    2    0    0  0.11223400036E+03 -0.49518891265E+02 -0.10536865041E+03  0.20439213272E+03  0.12500000000E+03 0.  0.
</event>
<event>
 5    0  0.5641283E-005  0.4306467E+03  0.7546771E-02  0.1033656E+00
         21   -1    0    0  502  501  0.00000000000E+00  0.00000000000E+00  0.21795403956E+03  0.21795403956E+03  0.00000000000E+00 0. -1.
         21   -1    0    0  501  502 -0.00000000000E+00 -0.00000000000E+00 -0.85089764801E+03  0.85089764801E+03  0.00000000000E+00 0. -1.
         25    1    1    2    0    0  0.15721609639E+03  0.25318110845E+03 -0.12107645152E+03  0.34511169460E+03  0.12500000000E+03 0.  0.
         25    1    1    2    0    0 -0.50651947988E+02 -0.67941894598E+02 -0.44111699178E+03  0.46625199336E+03  0.12500000000E+03 0.  0.
         25    1    1    2    0    0 -0.10656414840E+03 -0.18523921385E+03 -0.70750165139E+02  0.25748799960E+03  0.12500000000E+03 0.  0.
</event>
<event>
 5    0  0.5641283E-005  0.2720647E+03  0.7546771E-02  0.1100104E+00
         21   -1    0    0  502  501  0.00000000000E+00  0.00000000000E+00  0.27036842664E+03  0.27036842664E+03  0.00000000000E+00 0. -1.
         21   -1    0    0  501  502 -0.00000000000E+00 -0.00000000000E+00 -0.27377156826E+03  0.27377156826E+03  0.00000000000E+00 0. -1.
         25    1    1    2    0    0 -0.50882469760E+02  0.66594538667E+02  0.13278136144E+02  0.15108000268E+03  0.12500000000E+03 0.  0.
         25    1    1    2    0    0  0.12400658470E+03 -0.53824151174E+02  0.97371759306E+02  0.20828089641E+03  0.12500000000E+03 0.  0.
         25    1    1    2    0    0 -0.73124114944E+02 -0.12770387493E+02 -0.11405303707E+03  0.18477909581E+03  0.12500000000E+03 0.  0.
</event>
<event>
 5    0  0.5641283E-005  0.2729792E+03  0.7546771E-02  0.1099587E+00
         21   -1    0    0  502  501  0.00000000000E+00  0.00000000000E+00  0.67956208872E+02  0.67956208872E+02  0.00000000000E+00 0. -1.
         21   -1    0    0  501  502 -0.00000000000E+00 -0.00000000000E+00 -0.10965540563E+04  0.10965540563E+04  0.00000000000E+00 0. -1.
         25    1    1    2    0    0 -0.41694218134E+02  0.15933517986E+03 -0.57474288733E+03  0.61080315479E+03  0.12500000000E+03 0.  0.
         25    1    1    2    0    0  0.67618886024E+02 -0.60108021976E+02 -0.24564129549E+03  0.29008608050E+03  0.12500000000E+03 0.  0.
         25    1    1    2    0    0 -0.25924667890E+02 -0.99227157881E+02 -0.20821366464E+03  0.26362102991E+03  0.12500000000E+03 0.  0.
</event>
<event>
 5    0  0.5641283E-005  0.3618925E+03  0.7546771E-02  0.1057837E+00
         21   -1    0    0  502  501  0.00000000000E+00  0.00000000000E+00  0.11742555951E+03  0.11742555951E+03  0.00000000000E+00 0.  1.
         21   -1    0    0  501  502 -0.00000000000E+00 -0.00000000000E+00 -0.11153126691E+04  0.11153126691E+04  0.00000000000E+00 0.  1.
         25    1    1    2    0    0 -0.61044600013E+02 -0.33388113085E+02 -0.14220020368E+02  0.14376514969E+03  0.12500000000E+03 0.  0.
         25    1    1    2    0    0  0.12154331990E+03 -0.13086976985E+03 -0.29050518364E+03  0.36320508944E+03  0.12500000000E+03 0.  0.
         25    1    1    2    0    0 -0.60498719891E+02  0.16425788293E+03 -0.69316190556E+03  0.72576798946E+03  0.12500000000E+03 0.  0.
</event>
<event>
 5    0  0.5641283E-005  0.4596387E+03  0.7546771E-02  0.1024886E+00
         21   -1    0    0  502  501  0.00000000000E+00  0.00000000000E+00  0.87125116487E+02  0.87125116487E+02  0.00000000000E+00 0.  1.
         21   -1    0    0  501  502 -0.00000000000E+00 -0.00000000000E+00 -0.24248774971E+04  0.24248774971E+04  0.00000000000E+00 0.  1.
         25    1    1    2    0    0 -0.33686989368E+02 -0.12577659618E+03 -0.69216888531E+03  0.71531624558E+03  0.12500000000E+03 0.  0.
         25    1    1    2    0    0  0.80649488554E+02  0.39412960906E+03 -0.94072360621E+03  0.10307416709E+04  0.12500000000E+03 0.  0.
         25    1    1    2    0    0 -0.46962499185E+02 -0.26835301288E+03 -0.70485988907E+03  0.76594469714E+03  0.12500000000E+03 0.  0.
</event>
<event>
 5    0  0.5641283E-005  0.3134447E+03  0.7546771E-02  0.1078706E+00
         21   -1    0    0  502  501  0.00000000000E+00  0.00000000000E+00  0.16566260360E+03  0.16566260360E+03  0.00000000000E+00 0. -1.
         21   -1    0    0  501  502 -0.00000000000E+00 -0.00000000000E+00 -0.59305846488E+03  0.59305846488E+03  0.00000000000E+00 0. -1.
         25    1    1    2    0    0 -0.17046268150E+03  0.13025605420E+03 -0.27235379145E+03  0.36854545603E+03  0.12500000000E+03 0.  0.
         25    1    1    2    0    0  0.49795058235E+02  0.84732433131E+01 -0.72004910010E+02  0.15284322276E+03  0.12500000000E+03 0.  0.
         25    1    1    2    0    0  0.12066762327E+03 -0.13872929751E+03 -0.83037159817E+02  0.23733238970E+03  0.12500000000E+03 0.  0.
</event>
<event>
 5    0  0.5641283E-005  0.2159223E+03  0.7546771E-02  0.1136960E+00
         21   -1    0    0  502  501  0.00000000000E+00  0.00000000000E+00  0.46151448800E+02  0.46151448800E+02  0.00000000000E+00 0. -1.
         21   -1    0    0  501  502 -0.00000000000E+00 -0.00000000000E+00 -0.10102056739E+04  0.10102056739E+04  0.00000000000E+00 0. -1.
         25    1    1    2    0    0  0.12948926852E+02  0.54379912639E+02 -0.21837443538E+03  0.25775423107E+03  0.12500000000E+03 0.  0.
         25    1    1    2    0    0 -0.37459038197E+02 -0.83794092056E+02 -0.41337280898E+03  0.44150504936E+03  0.12500000000E+03 0.  0.
         25    1    1    2    0    0  0.24510111345E+02  0.29414179418E+02 -0.33230698075E+03  0.35709784228E+03  0.12500000000E+03 0.  0.
</event>
<event>
 5    0  0.5641283E-005  0.2543683E+03  0.7546771E-02  0.1110575E+00
         21   -1    0    0  502  501  0.00000000000E+00  0.00000000000E+00  0.55591248769E+03  0.55591248769E+03  0.00000000000E+00 0. -1.
         21   -1    0    0  501  502 -0.00000000000E+00 -0.00000000000E+00 -0.11639101775E+03  0.11639101775E+03  0.00000000000E+00 0. -1.
         25    1    1    2    0    0  0.13278070925E+03 -0.23586094671E+02  0.94582709397E+02  0.20677985765E+03  0.12500000000E+03 0.  0.
         25    1    1    2    0    0 -0.12008753790E+03  0.15583388508E+02  0.26279388885E+03  0.31519753612E+03  0.12500000000E+03 0.  0.
         25    1    1    2    0    0 -0.12693171353E+02  0.80027061625E+01  0.82144871694E+02  0.15032611167E+03  0.12500000000E+03 0.  0.
</event>
<event>
 5    0  0.5641283E-005  0.3438927E+03  0.7546771E-02  0.1065150E+00
         21   -1    0    0  502  501  0.00000000000E+00  0.00000000000E+00  0.40415736273E+03  0.40415736273E+03  0.00000000000E+00 0. -1.
         21   -1    0    0  501  502 -0.00000000000E+00 -0.00000000000E+00 -0.29261429001E+03  0.29261429001E+03  0.00000000000E+00 0. -1.
         25    1    1    2    0    0 -0.13265698586E+03  0.24075753656E+03  0.74134967596E+02  0.31093899841E+03  0.12500000000E+03 0.  0.
         25    1    1    2    0    0  0.91754754761E+02 -0.15754191808E+03 -0.15128784067E+02  0.22156775731E+03  0.12500000000E+03 0.  0.
         25    1    1    2    0    0  0.40902231103E+02 -0.83215618484E+02  0.52536889196E+02  0.16426489703E+03  0.12500000000E+03 0.  0.
</event>
<event>
 5    0  0.5841233E-005  0.2883896E+03  0.7546771E-02  0.1091193E+00
         21   -1    0    0  502  501  0.00000000000E+00  0.00000000000E+00  0.22636270809E+03  0.22636270809E+03  0.00000000000E+00 0.  1.
         21   -1    0    0  501  502 -0.00000000000E+00 -0.00000000000E+00 -0.36741284669E+03  0.36741284669E+03  0.00000000000E+00 0.  1.
         25    1    1    2    0    0 -0.63317825240E+01 -0.60694872460E+02 -0.16791447646E+03  0.21804639510E+03  0.12500000000E+03 0.  0.
         25    1    1    2    0    0 -0.12763379555E+03  0.21680094145E+01  0.39470719448E+02  0.18297000772E+03  0.12500000000E+03 0.  0.
         25    1    1    2    0    0  0.13396557807E+03  0.58526863046E+02 -0.12606381586E+02  0.19275915196E+03  0.12500000000E+03 0.  0.
</event>
<event>
 5    0  0.5641283E-005  0.3621346E+03  0.7546771E-02  0.1057742E+00
         21   -1    0    0  502  501  0.00000000000E+00  0.00000000000E+00  0.26386845762E+03  0.26386845762E+03  0.00000000000E+00 0.  1.
         21   -1    0    0  501  502 -0.00000000000E+00 -0.00000000000E+00 -0.49699559304E+03  0.49699559304E+03  0.00000000000E+00 0.  1.
         25    1    1    2    0    0 -0.50813572201E+02  0.11347388789E+03 -0.23609712596E+03  0.29466115326E+03  0.12500000000E+03 0.  0.
         25    1    1    2    0    0  0.18821462766E+02  0.56605915113E+02  0.15215783405E+03  0.20575588339E+03  0.12500000000E+03 0.  0.
         25    1    1    2    0    0  0.31992109435E+02 -0.17007980300E+03 -0.14918784352E+03  0.26044701401E+03  0.12500000000E+03 0.  0.
</event>
<event>
 5    0  0.5641283E-005  0.3167251E+03  0.7546771E-02  0.1077166E+00
         21   -1    0    0  502  501  0.00000000000E+00  0.00000000000E+00  0.17847546718E+03  0.17847546718E+03  0.00000000000E+00 0.  1.
         21   -1    0    0  501  502 -0.00000000000E+00 -0.00000000000E+00 -0.56206488018E+03  0.56206488018E+03  0.00000000000E+00 0.  1.
         25    1    1    2    0    0  0.88640252970E+02 -0.98062021039E+02 -0.24987531442E+03  0.30908886615E+03  0.12500000000E+03 0.  0.
         25    1    1    2    0    0 -0.17379319861E+03  0.12958375072E+03 -0.11639098187E+03  0.27598529851E+03  0.12500000000E+03 0.  0.
         25    1    1    2    0    0  0.85152945638E+02 -0.31521729679E+02 -0.17323116716E+02  0.15546618271E+03  0.12500000000E+03 0.  0.
</event>
<event>
 5    0  0.5641283E-005  0.5151933E+03  0.7546771E-02  0.1009888E+00
         21   -1    0    0  502  501  0.00000000000E+00  0.00000000000E+00  0.38707952969E+03  0.38707952969E+03  0.00000000000E+00 0. -1.
         21   -1    0    0  501  502 -0.00000000000E+00 -0.00000000000E+00 -0.68570956096E+03  0.68570956096E+03  0.00000000000E+00 0. -1.
         25    1    1    2    0    0 -0.36015915958E+03 -0.45642075451E+02 -0.90280702097E+02  0.39442797119E+03  0.12500000000E+03 0.  0.
         25    1    1    2    0    0  0.37633099411E+03  0.15587066271E+03 -0.26479681257E+03  0.50166027605E+03  0.12500000000E+03 0.  0.
         25    1    1    2    0    0 -0.16171834527E+02 -0.11022858726E+03  0.56447483393E+02  0.17670084341E+03  0.12500000000E+03 0.  0.
</event>
<event>
 5    0  0.5641283E-005  0.4255901E+03  0.7546771E-02  0.1035262E+00
         21   -1    0    0  502  501  0.00000000000E+00  0.00000000000E+00  0.32711651023E+03  0.32711651023E+03  0.00000000000E+00 0. -1.
         21   -1    0    0  501  502 -0.00000000000E+00 -0.00000000000E+00 -0.55370777651E+03  0.55370777651E+03  0.00000000000E+00 0. -1.
         25    1    1    2    0    0  0.36842714691E+02  0.11649538805E+03  0.16463775580E+03  0.24012320108E+03  0.12500000000E+03 0.  0.
         25    1    1    2    0    0 -0.45032593100E+02  0.56224417977E+02 -0.40196069371E+03  0.42706734703E+03  0.12500000000E+03 0.  0.
         25    1    1    2    0    0  0.81898784095E+01 -0.17271980602E+03  0.10731671626E+02  0.21363373862E+03  0.12500000000E+03 0.  0.
</event>
<event>
 5    0  0.5641283E-005  0.3170591E+03  0.7546771E-02  0.1077011E+00
         21   -1    0    0  502  501  0.00000000000E+00  0.00000000000E+00  0.11466477110E+04  0.11466477110E+04  0.00000000000E+00 0. -1.
         21   -1    0    0  501  502 -0.00000000000E+00 -0.00000000000E+00 -0.87669910544E+02  0.87669910544E+02  0.00000000000E+00 0. -1.
         25    1    1    2    0    0 -0.11269199601E+03 -0.13429895679E+03  0.30705758788E+03  0.37502674309E+03  0.12500000000E+03 0.  0.
         25    1    1    2    0    0  0.12391147736E+03 -0.55661508826E+02  0.39388446490E+03  0.43499681548E+03  0.12500000000E+03 0.  0.
         25    1    1    2    0    0 -0.11219481357E+02  0.18996046561E+03  0.35803574764E+03  0.42429406294E+03  0.12500000000E+03 0.  0.
</event>
<event>
 5    0  0.5641283E-005  0.5064572E+03  0.7546771E-02  0.1012107E+00
         21   -1    0    0  502  501  0.00000000000E+00  0.00000000000E+00  0.57586582914E+03  0.57586582914E+03  0.00000000000E+00 0. -1.
         21   -1    0    0  501  502 -0.00000000000E+00 -0.00000000000E+00 -0.44541432212E+03  0.44541432212E+03  0.00000000000E+00 0. -1.
         25    1    1    2    0    0 -0.96215545530E+02 -0.32953086948E+03  0.37134347248E+03  0.52093089724E+03  0.12500000000E+03 0.  0.
         25    1    1    2    0    0  0.56075861125E+02  0.94031455698E+02 -0.65005250907E+02  0.17842953653E+03  0.12500000000E+03 0.  0.
         25    1    1    2    0    0  0.40139684405E+02  0.23549941378E+03 -0.17588671455E+03  0.32191971749E+03  0.12500000000E+03 0.  0.
</event>
<event>
 5    0  0.5641283E-005  0.2432044E+03  0.7546771E-02  0.1117676E+00
         21   -1    0    0  502  501  0.00000000000E+00  0.00000000000E+00  0.41858224436E+03  0.41858224436E+03  0.00000000000E+00 0.  1.
         21   -1    0    0  501  502 -0.00000000000E+00 -0.00000000000E+00 -0.14130643787E+03  0.14130643787E+03  0.00000000000E+00 0.  1.
         25    1    1    2    0    0 -0.13412946074E+03 -0.48439507970E+02  0.10804560937E+03  0.21825661932E+03  0.12500000000E+03 0.  0.
         25    1    1    2    0    0  0.51152847583E+02  0.13194237660E+02  0.11616683698E+03  0.17863492306E+03  0.12500000000E+03 0.  0.
         25    1    1    2    0    0  0.82976613160E+02  0.35245270310E+02  0.53063360135E+02  0.16299713985E+03  0.12500000000E+03 0.  0.
</event>
<event>
 5    0  0.5641283E-005  0.3290672E+03  0.7546771E-02  0.1071550E+00
         21   -1    0    0  502  501  0.00000000000E+00  0.00000000000E+00  0.33049616776E+03  0.33049616776E+03  0.00000000000E+00 0. -1.
         21   -1    0    0  501  502 -0.00000000000E+00 -0.00000000000E+00 -0.32764449800E+03  0.32764449800E+03  0.00000000000E+00 0. -1.
         25    1    1    2    0    0  0.80178441254E+02  0.21934662581E+02 -0.11687466765E+03  0.19024825834E+03  0.12500000000E+03 0.  0.
         25    1    1    2    0    0 -0.34317555964E+02 -0.86604079429E+02 -0.11267848800E+03  0.19235228847E+03  0.12500000000E+03 0.  0.
         25    1    1    2    0    0 -0.45860885290E+02  0.64669416848E+02  0.23240482541E+03  0.27554011894E+03  0.12500000000E+03 0.  0.
</event>
<event>
 5    0  0.5641283E-005  0.3588910E+03  0.7546771E-02  0.1059024E+00
         21   -1    0    0  502  501  0.00000000000E+00  0.00000000000E+00  0.10784076754E+03  0.10784076754E+03  0.00000000000E+00 0. -1.
         21   -1    0    0  501  502 -0.00000000000E+00 -0.00000000000E+00 -0.11943792171E+04  0.11943792171E+04  0.00000000000E+00 0. -1.
         25    1    1    2    0    0  0.45127618651E+01 -0.21151634456E+03 -0.55313393737E+03  0.60526166383E+03  0.12500000000E+03 0.  0.
         25    1    1    2    0    0  0.95076606383E+02  0.68670794258E+02 -0.67703237130E+02  0.18429315609E+03  0.12500000000E+03 0.  0.
         25    1    1    2    0    0 -0.99589368248E+02  0.14284555030E+03 -0.46570127502E+03  0.51266516467E+03  0.12500000000E+03 0.  0.
</event>
<event>
 5    0  0.5641283E-005  0.3814969E+03  0.7546771E-02  0.1050382E+00
         21   -1    0    0  502  501  0.00000000000E+00  0.00000000000E+00  0.16600833896E+04  0.16600833896E+04  0.00000000000E+00 0. -1.
         21   -1    0    0  501  502 -0.00000000000E+00 -0.00000000000E+00 -0.87670247761E+02  0.87670247761E+02  0.00000000000E+00 0. -1.
         25    1    1    2    0    0  0.24948178077E+03  0.76959859444E+01  0.61688010626E+03  0.67710150837E+03  0.12500000000E+03 0.  0.
         25    1    1    2    0    0 -0.32010607073E+02  0.13101481912E+03  0.49669896546E+03  0.52964556458E+03  0.12500000000E+03 0.  0.
         25    1    1    2    0    0 -0.21747117370E+03 -0.13871080506E+03  0.45883407012E+03  0.54100656441E+03  0.12500000000E+03 0.  0.
</event>
<event>
 5    0  0.5641283E-005  0.3585163E+03  0.7546771E-02  0.1059173E+00
         21   -1    0    0  502  501  0.00000000000E+00  0.00000000000E+00  0.23003980567E+03  0.23003980567E+03  0.00000000000E+00 0.  1.
         21   -1    0    0  501  502 -0.00000000000E+00 -0.00000000000E+00 -0.55874661586E+03  0.55874661586E+03  0.00000000000E+00 0.  1.
         25    1    1    2    0    0  0.14492175331E+03  0.16195128908E+03 -0.13215243442E+03  0.28340748144E+03  0.12500000000E+03 0.  0.
         25    1    1    2    0    0  0.47511202945E+02 -0.19028332458E+03 -0.76320489985E+02  0.24477515236E+03  0.12500000000E+03 0.  0.
         25    1    1    2    0    0 -0.19243295625E+03  0.28332035508E+02 -0.12023388580E+03  0.26060378773E+03  0.12500000000E+03 0.  0.
</event>
<event>
 5    0  0.5641283E-005  0.2379383E+03  0.7546771E-02  0.1121174E+00
         21   -1    0    0  502  501  0.00000000000E+00  0.00000000000E+00  0.15590877894E+03  0.15590877894E+03  0.00000000000E+00 0. -1.
         21   -1    0    0  501  502 -0.00000000000E+00 -0.00000000000E+00 -0.36312669525E+03  0.36312669525E+03  0.00000000000E+00 0. -1.
         25    1    1    2    0    0 -0.10153857104E+03 -0.41368775141E+02 -0.30696494798E+02  0.16908202672E+03  0.12500000000E+03 0.  0.
         25    1    1    2    0    0  0.25949426943E+02 -0.29741641278E+02 -0.12062957328E+03  0.17814160641E+03  0.12500000000E+03 0.  0.
         25    1    1    2    0    0  0.75589144101E+02  0.71110416419E+02 -0.55891848230E+02  0.17181184106E+03  0.12500000000E+03 0.  0.
</event>
<event>
 5    0  0.5641283E-005  0.3868466E+03  0.7546771E-02  0.1048432E+00
         21   -1    0    0  502  501  0.00000000000E+00  0.00000000000E+00  0.73487495442E+03  0.73487495442E+03  0.00000000000E+00 0. -1.
         21   -1    0    0  501  502 -0.00000000000E+00 -0.00000000000E+00 -0.20364043266E+03  0.20364043266E+03  0.00000000000E+00 0. -1.
         25    1    1    2    0    0 -0.71751888212E+01  0.10213351181E+03  0.13671113270E+03  0.21165460395E+03  0.12500000000E+03 0.  0.
         25    1    1    2    0    0 -0.14696942940E+03 -0.16528500051E+03 -0.28203363751E+02  0.25561606816E+03  0.12500000000E+03 0.  0.
         25    1    1    2    0    0  0.15414461822E+03  0.63151488705E+02  0.42272675282E+03  0.47124471498E+03  0.12500000000E+03 0.  0.
</event>
<event>
 5    0  0.5641283E-005  0.2908041E+03  0.7546771E-02  0.1089930E+00
         21   -1    0    0  502  501  0.00000000000E+00  0.00000000000E+00  0.24273476890E+03  0.24273476890E+03  0.00000000000E+00 0. -1.
         21   -1    0    0  501  502 -0.00000000000E+00 -0.00000000000E+00 -0.34839271151E+03  0.34839271151E+03  0.00000000000E+00 0. -1.
         25    1    1    2    0    0  0.56618683177E+02  0.65956765665E+02  0.68540308473E+02  0.16696929091E+03  0.12500000000E+03 0.  0.
         25    1    1    2    0    0 -0.52939925912E+02 -0.16682793351E+03 -0.14870798241E+03  0.26148280859E+03  0.12500000000E+03 0.  0.
         25    1    1    2    0    0 -0.36787572653E+01  0.10087116785E+03 -0.25490268668E+02  0.16267538091E+03  0.12500000000E+03 0.  0.
</event>
<event>
 5    0  0.5641283E-005  0.4816528E+03  0.7546771E-02  0.1018682E+00
         21   -1    0    0  502  501  0.00000000000E+00  0.00000000000E+00  0.61966540705E+03  0.61966540705E+03  0.00000000000E+00 0. -1.
         21   -1    0    0  501  502 -0.00000000000E+00 -0.00000000000E+00 -0.37437849202E+03  0.37437849202E+03  0.00000000000E+00 0. -1.
         25    1    1    2    0    0 -0.26008789568E+03 -0.14204183014E+03  0.33409050641E+03  0.46374892071E+03  0.12500000000E+03 0.  0.
         25    1    1    2    0    0  0.22942168661E+03  0.14341383501E+03  0.88771073035E+02  0.31097771909E+03  0.12500000000E+03 0.  0.
         25    1    1    2    0    0  0.30666209066E+02 -0.13720048707E+01 -0.17757466440E+03  0.21931725927E+03  0.12500000000E+03 0.  0.
</event>
<event>
 5    0  0.5641283E-005  0.2774975E+03  0.7546771E-02  0.1097064E+00
         21   -1    0    0  502  501  0.00000000000E+00  0.00000000000E+00  0.90581861181E+03  0.90581861181E+03  0.00000000000E+00 0.  1.
         21   -1    0    0  501  502 -0.00000000000E+00 -0.00000000000E+00 -0.85011339529E+02  0.85011339529E+02  0.00000000000E+00 0.  1.
         25    1    1    2    0    0  0.14341649199E+03  0.34559329280E+02  0.25484162850E+03  0.31989356516E+03  0.12500000000E+03 0.  0.
         25    1    1    2    0    0  0.33895829720E+02 -0.48288588213E+02  0.27448826540E+03  0.30732641095E+03  0.12500000000E+03 0.  0.
         25    1    1    2    0    0 -0.17731232171E+03  0.13729258934E+02  0.29147737838E+03  0.36360997523E+03  0.12500000000E+03 0.  0.
</event>
<event>
 5    0  0.5641283E-005  0.3087847E+03  0.7546771E-02  0.1080930E+00
         21   -1    0    0  502  501  0.00000000000E+00  0.00000000000E+00  0.19358762647E+03  0.19358762647E+03  0.00000000000E+00 0. -1.
         21   -1    0    0  501  502 -0.00000000000E+00 -0.00000000000E+00 -0.49253129863E+03  0.49253129863E+03  0.00000000000E+00 0. -1.
         25    1    1    2    0    0  0.48766249228E+02  0.96403468194E+02 -0.18695398668E+03  0.24949663100E+03  0.12500000000E+03 0.  0.
         25    1    1    2    0    0 -0.15025788147E+03 -0.23416187535E+02  0.43026595872E+02  0.20149947081E+03  0.12500000000E+03 0.  0.
         25    1    1    2    0    0  0.10149163225E+03 -0.72987280660E+02 -0.15501628136E+03  0.23512282331E+03  0.12500000000E+03 0.  0.
</event>
<event>
 5    0  0.5641283E-005  0.2760274E+03  0.7546771E-02  0.1097879E+00
         21   -1    0    0  502  501  0.00000000000E+00  0.00000000000E+00  0.73148613802E+02  0.73148613802E+02  0.00000000000E+00 0. -1.
         21   -1    0    0  501  502 -0.00000000000E+00 -0.00000000000E+00 -0.10415939065E+04  0.10415939065E+04  0.00000000000E+00 0. -1.
         25    1    1    2    0    0 -0.36506647815E+02 -0.14272457160E+03 -0.19160227498E+03  0.27210194863E+03  0.12500000000E+03 0.  0.
         25    1    1    2    0    0 -0.58054677784E+01  0.14721961287E+03 -0.42589608192E+03  0.46767487688E+03  0.12500000000E+03 0.  0.
         25    1    1    2    0    0  0.42312115593E+02 -0.44950412675E+01 -0.35094693580E+03  0.37496569479E+03  0.12500000000E+03 0.  0.
</event>
<event>
 5    0  0.5641283E-005  0.3276912E+03  0.7546771E-02  0.1072163E+00
         21   -1    0    0  502  501  0.00000000000E+00  0.00000000000E+00  0.11573051795E+03  0.11573051795E+03  0.00000000000E+00 0.  1.
         21   -1    0    0  501  502 -0.00000000000E+00 -0.00000000000E+00 -0.92785834132E+03  0.92785834132E+03  0.00000000000E+00 0.  1.
         25    1    1    2    0    0 -0.12026431768E+03  0.73627644970E+02 -0.37345092294E+02  0.19210463849E+03  0.12500000000E+03 0.  0.
         25    1    1    2    0    0  0.80309141778E+02  0.50430831098E+02 -0.48777986445E+03  0.51239342613E+03  0.12500000000E+03 0.  0.
         25    1    1    2    0    0  0.39955175906E+02 -0.12405847607E+03 -0.28700286662E+03  0.33909079465E+03  0.12500000000E+03 0.  0.
</event>
<event>
 5    0  0.5641283E-005  0.3032330E+03  0.7546771E-02  0.1083636E+00
         21   -1    0    0  502  501  0.00000000000E+00  0.00000000000E+00  0.17260456311E+04  0.17260456311E+04  0.00000000000E+00 0.  1.
         21   -1    0    0  501  502 -0.00000000000E+00 -0.00000000000E+00 -0.53272192020E+02  0.53272192020E+02  0.00000000000E+00 0.  1.
         25    1    1    2    0    0 -0.39254007725E+02  0.57153911154E+02  0.24167082533E+03  0.28077969033E+03  0.12500000000E+03 0.  0.
         25    1    1    2    0    0 -0.12844577254E+03  0.71088799095E+02  0.50715758821E+03  0.54257326982E+03  0.12500000000E+03 0.  0.
         25    1    1    2    0    0  0.16769978027E+03 -0.12824271025E+03  0.92394502558E+03  0.95596486302E+03  0.12500000000E+03 0.  0.
</event>
<event>
 5    0  0.5641283E-005  0.2395910E+03  0.7546771E-02  0.1120066E+00
         21   -1    0    0  502  501  0.00000000000E+00  0.00000000000E+00  0.43941470615E+03  0.43941470615E+03  0.00000000000E+00 0.  1.
         21   -1    0    0  501  502 -0.00000000000E+00 -0.00000000000E+00 -0.13063703818E+03  0.13063703818E+03  0.00000000000E+00 0.  1.
         25    1    1    2    0    0 -0.84656483762E+02 -0.10075146313E+02  0.42263230523E+02  0.15709681560E+03  0.12500000000E+03 0.  0.
         25    1    1    2    0    0  0.62945425684E+00 -0.69770973540E+02  0.99770920716E+02  0.17449246855E+03  0.12500000000E+03 0.  0.
         25    1    1    2    0    0  0.84027029505E+02  0.79846119853E+02  0.16674351673E+03  0.23846246018E+03  0.12500000000E+03 0.  0.
</event>
<event>
 5    0  0.5641283E-005  0.5043665E+03  0.7546771E-02  0.1012645E+00
         21   -1    0    0  502  501  0.00000000000E+00  0.00000000000E+00  0.52218857614E+03  0.52218857614E+03  0.00000000000E+00 0.  1.
         21   -1    0    0  501  502 -0.00000000000E+00 -0.00000000000E+00 -0.48715269659E+03  0.48715269659E+03  0.00000000000E+00 0.  1.
         25    1    1    2    0    0 -0.11695829411E+03 -0.37370619591E+03  0.11769119092E+03  0.42756494225E+03  0.12500000000E+03 0.  0.
         25    1    1    2    0    0  0.20960010348E+03  0.10728105130E+03 -0.53254610899E+02  0.27185010746E+03  0.12500000000E+03 0.  0.
         25    1    1    2    0    0 -0.92641809367E+02  0.26642514461E+03 -0.29400700466E+02  0.30992622301E+03  0.12500000000E+03 0.  0.
</event>
<event>
 5    0  0.5641283E-005  0.2286476E+03  0.7546771E-02  0.1127595E+00
         21   -1    0    0  502  501  0.00000000000E+00  0.00000000000E+00  0.89465436498E+02  0.89465436498E+02  0.00000000000E+00 0. -1.
         21   -1    0    0  501  502 -0.00000000000E+00 -0.00000000000E+00 -0.58435692359E+03  0.58435692359E+03  0.00000000000E+00 0. -1.
         25    1    1    2    0    0 -0.16401559145E+02 -0.10218608992E+03 -0.18056191845E+03  0.24277276311E+03  0.12500000000E+03 0.  0.
         25    1    1    2    0    0 -0.31566630139E+02  0.86132571001E+02 -0.12807754479E+03  0.20110725846E+03  0.12500000000E+03 0.  0.
         25    1    1    2    0    0  0.47968189284E+02  0.16053518917E+02 -0.18625202385E+03  0.22994233851E+03  0.12500000000E+03 0.  0.
</event>
<event>
 5    0  0.7929314E-005  0.3267021E+03  0.7546771E-02  0.1072605E+00
         21   -1    0    0  502  501  0.00000000000E+00  0.00000000000E+00  0.57390701329E+03  0.57390701329E+03  0.00000000000E+00 0. -1.
         21   -1    0    0  501  502 -0.00000000000E+00 -0.00000000000E+00 -0.18597826765E+03  0.18597826765E+03  0.00000000000E+00 0. -1.
         25    1    1    2    0    0  0.84765290541E+02 -0.14863041846E+03  0.18994407180E+02  0.21274854471E+03  0.12500000000E+03 0.  0.
         25    1    1    2    0    0 -0.12299879149E+03 -0.68287833015E+00  0.27836185515E+03  0.32899770734E+03  0.12500000000E+03 0.  0.
         25    1    1    2    0    0  0.38233500953E+02  0.14931329679E+03  0.90572483312E+02  0.21813902889E+03  0.12500000000E+03 0.  0.
</event>
<event>
 5    0  0.5641283E-005  0.2980709E+03  0.7546771E-02  0.1086209E+00
         21   -1    0    0  502  501  0.00000000000E+00  0.00000000000E+00  0.18702475605E+03  0.18702475605E+03  0.00000000000E+00 0. -1.
         21   -1    0    0  501  502 -0.00000000000E+00 -0.00000000000E+00 -0.47505065817E+03  0.47505065817E+03  0.00000000000E+00 0. -1.
         25    1    1    2    0    0  0.35990008896E+02  0.83318539127E+02  0.72631140005E+01  0.15464479470E+03  0.12500000000E+03 0.  0.
         25    1    1    2    0    0 -0.15789786715E+03  0.30192364056E+02 -0.13053372663E+03  0.24188296568E+03  0.12500000000E+03 0.  0.
         25    1    1    2    0    0  0.12190785825E+03 -0.11351090318E+03 -0.16475528950E+03  0.26554765384E+03  0.12500000000E+03 0.  0.
</event>
<event>
 5    0  0.5721779E-005  0.2905322E+03  0.7546771E-02  0.1090072E+00
         21   -1    0    0  502  501  0.00000000000E+00  0.00000000000E+00  0.31758009966E+03  0.31758009966E+03  0.00000000000E+00 0.  1.
         21   -1    0    0  501  502 -0.00000000000E+00 -0.00000000000E+00 -0.26578800608E+03  0.26578800608E+03  0.00000000000E+00 0.  1.
         25    1    1    2    0    0  0.11854671832E+02 -0.21018710470E+02 -0.13190235296E+03  0.18331816645E+03  0.12500000000E+03 0.  0.
         25    1    1    2    0    0 -0.74870768247E+02  0.15031198664E+02  0.21143299841E+03  0.25721679900E+03  0.12500000000E+03 0.  0.
         25    1    1    2    0    0  0.63016096415E+02  0.59875118060E+01 -0.27738551861E+02  0.14283314029E+03  0.12500000000E+03 0.  0.
</event>
<event>
 5    0  0.5641283E-005  0.3893554E+03  0.7546771E-02  0.1047529E+00
         21   -1    0    0  502  501  0.00000000000E+00  0.00000000000E+00  0.25765591732E+03  0.25765591732E+03  0.00000000000E+00 0. -1.
         21   -1    0    0  501  502 -0.00000000000E+00 -0.00000000000E+00 -0.58837224033E+03  0.58837224033E+03  0.00000000000E+00 0. -1.
         25    1    1    2    0    0  0.67170626537E+02 -0.79396909745E+02  0.72205778932E+02  0.17791693808E+03  0.12500000000E+03 0.  0.
         25    1    1    2    0    0  0.30532975641E+02 -0.13876197412E+03 -0.74316026664E+01  0.18938684427E+03  0.12500000000E+03 0.  0.
         25    1    1    2    0    0 -0.97703602179E+02  0.21815888387E+03 -0.39549049927E+03  0.47872437529E+03  0.12500000000E+03 0.  0.
</event>
<event>
 5    0  0.5641283E-005  0.3694192E+03  0.7546771E-02  0.1054915E+00
         21   -1    0    0  502  501  0.00000000000E+00  0.00000000000E+00  0.47265813816E+03  0.47265813816E+03  0.00000000000E+00 0. -1.
         21   -1    0    0  501  502 -0.00000000000E+00 -0.00000000000E+00 -0.28872984856E+03  0.28872984856E+03  0.00000000000E+00 0. -1.
         25    1    1    2    0    0  0.15730513765E+03  0.10414120891E+03  0.10901868562E+03  0.25119787328E+03  0.12500000000E+03 0.  0.
         25    1    1    2    0    0 -0.23657317341E+03 -0.89261677796E+02  0.17403115099E+03  0.33143076957E+03  0.12500000000E+03 0.  0.
         25    1    1    2    0    0  0.79268035761E+02 -0.14879531110E+02 -0.99121547013E+02  0.17875934387E+03  0.12500000000E+03 0.  0.
</event>
<event>
 5    0  0.5641283E-005  0.2279429E+03  0.7546771E-02  0.1128096E+00
         21   -1    0    0  502  501  0.00000000000E+00  0.00000000000E+00  0.15501015755E+03  0.15501015755E+03  0.00000000000E+00 0.  1.
         21   -1    0    0  501  502 -0.00000000000E+00 -0.00000000000E+00 -0.33519062143E+03  0.33519062143E+03  0.00000000000E+00 0.  1.
         25    1    1    2    0    0 -0.80327220231E+02 -0.58066855834E+02 -0.11812199898E+03  0.19849944257E+03  0.12500000000E+03 0.  0.
         25    1    1    2    0    0  0.20150766769E+02  0.37509138361E+02 -0.73252600083E+02  0.15100970923E+03  0.12500000000E+03 0.  0.
         25    1    1    2    0    0  0.60176453462E+02  0.20557717473E+02  0.11194135180E+02  0.14069162719E+03  0.12500000000E+03 0.  0.
</event>
<event>
 5    0  0.5641283E-005  0.3578386E+03  0.7546771E-02  0.1059443E+00
         21   -1    0    0  502  501  0.00000000000E+00  0.00000000000E+00  0.12076726512E+03  0.12076726512E+03  0.00000000000E+00 0. -1.
         21   -1    0    0  501  502 -0.00000000000E+00 -0.00000000000E+00 -0.10602912147E+04  0.10602912147E+04  0.00000000000E+00 0. -1.
         25    1    1    2    0    0 -0.80339416804E+02  0.20252007484E+03 -0.20386246108E+03  0.32350224983E+03  0.12500000000E+03 0.  0.
         25    1    1    2    0    0  0.22574558357E+02 -0.60781026316E+02 -0.60376218930E+03  0.61996590638E+03  0.12500000000E+03 0.  0.
         25    1    1    2    0    0  0.57764858447E+02 -0.14173904852E+03 -0.13189929921E+03  0.23759032363E+03  0.12500000000E+03 0.  0.
</event>
<event>
 5    0  0.5641283E-005  0.3386163E+03  0.7546771E-02  0.1067387E+00
         21   -1    0    0  502  501  0.00000000000E+00  0.00000000000E+00  0.32007393256E+03  0.32007393256E+03  0.00000000000E+00 0.  1.
         21   -1    0    0  501  502 -0.00000000000E+00 -0.00000000000E+00 -0.35823290823E+03  0.35823290823E+03  0.00000000000E+00 0.  1.
         25    1    1    2    0    0 -0.45256359998E+02  0.30195131209E+02  0.44312441968E+02  0.14334739824E+03  0.12500000000E+03 0.  0.
         25    1    1    2    0    0  0.20190240538E+03  0.39538171837E+02  0.94536291177E+02  0.25863093141E+03  0.12500000000E+03 0.  0.
         25    1    1    2    0    0 -0.15664604539E+03 -0.69733303046E+02 -0.17700770881E+03  0.27632851114E+03  0.12500000000E+03 0.  0.
</event>
<event>
 5    0  0.5641283E-005  0.4526918E+03  0.7546771E-02  0.1026922E+00
         21   -1    0    0  502  501  0.00000000000E+00  0.00000000000E+00  0.38775143184E+03  0.38775143184E+03  0.00000000000E+00 0.  1.
         21   -1    0    0  501  502 -0.00000000000E+00 -0.00000000000E+00 -0.52850839752E+03  0.52850839752E+03  0.00000000000E+00 0.  1.
         25    1    1    2    0    0 -0.18042801498E+02  0.89574049762E+02 -0.91532910569E+02  0.17986752568E+03  0.12500000000E+03 0.  0.
         25    1    1    2    0    0  0.10788594017E+03  0.65452299869E+02  0.28575955656E+03  0.33646233639E+03  0.12500000000E+03 0.  0.
         25    1    1    2    0    0 -0.89843138670E+02 -0.15502634963E+03 -0.33498361168E+03  0.39992996729E+03  0.12500000000E+03 0.  0.
</event>
<event>
 5    0  0.5641283E-005  0.2365625E+03  0.7546771E-02  0.1122104E+00
         21   -1    0    0  502  501  0.00000000000E+00  0.00000000000E+00  0.29674969931E+03  0.29674969931E+03  0.00000000000E+00 0.  1.
         21   -1    0    0  501  502 -0.00000000000E+00 -0.00000000000E+00 -0.18858253447E+03  0.18858253447E+03  0.00000000000E+00 0.  1.
         25    1    1    2    0    0 -0.62666003561E+02  0.86192759158E+01  0.53904290619E+02  0.15010660367E+03  0.12500000000E+03 0.  0.
         25    1    1    2    0    0  0.10861823453E+03 -0.49008061432E+02  0.85334137495E+02  0.19263080226E+03  0.12500000000E+03 0.  0.
         25    1    1    2    0    0 -0.45952230973E+02  0.40388785516E+02 -0.31071263274E+02  0.14259482785E+03  0.12500000000E+03 0.  0.
</event>
<event>
 5    0  0.5641283E-005  0.2757890E+03  0.7546771E-02  0.1098011E+00
         21   -1    0    0  502  501  0.00000000000E+00  0.00000000000E+00  0.10865927258E+04  0.10865927258E+04  0.00000000000E+00 0. -1.
         21   -1    0    0  501  502 -0.00000000000E+00 -0.00000000000E+00 -0.69998247676E+02  0.69998247676E+02  0.00000000000E+00 0. -1.
         25    1    1    2    0    0  0.12110386540E+03  0.67670597374E+02  0.13708825300E+03  0.23165414971E+03  0.12500000000E+03 0.  0.
         25    1    1    2    0    0 -0.67060581027E+02 -0.39489281132E+02  0.45066643866E+03  0.47411155205E+03  0.12500000000E+03 0.  0.
         25    1    1    2    0    0 -0.54043284375E+02 -0.28181316243E+02  0.42883978646E+03  0.45082527172E+03  0.12500000000E+03 0.  0.
</event>
<event>
 5    0  0.5641283E-005  0.2684538E+03  0.7546771E-02  0.1102168E+00
         21   -1    0    0  502  501  0.00000000000E+00  0.00000000000E+00  0.72598111047E+02  0.72598111047E+02  0.00000000000E+00 0.  1.
         21   -1    0    0  501  502 -0.00000000000E+00 -0.00000000000E+00 -0.99269017763E+03  0.99269017763E+03  0.00000000000E+00 0.  1.
         25    1    1    2    0    0  0.35138987852E+02 -0.27171444571E+02 -0.14846723356E+03  0.19909936039E+03  0.12500000000E+03 0.  0.
         25    1    1    2    0    0 -0.43084949194E+02  0.13764448049E+03 -0.22722033510E+03  0.29674298060E+03  0.12500000000E+03 0.  0.
         25    1    1    2    0    0  0.79459613423E+01 -0.11047303592E+03 -0.54440449792E+03  0.56944594768E+03  0.12500000000E+03 0.  0.
</event>
<event>
 5    0  0.5641283E-005  0.3506910E+03  0.7546771E-02  0.1062332E+00
         21   -1    0    0  502  501  0.00000000000E+00  0.00000000000E+00  0.14088716999E+03  0.14088716999E+03  0.00000000000E+00 0.  1.
         21   -1    0    0  501  502 -0.00000000000E+00 -0.00000000000E+00 -0.87292653441E+03  0.87292653441E+03  0.00000000000E+00 0.  1.
         25    1    1    2    0    0 -0.92492558646E+02 -0.91348575863E+02 -0.54922036677E+03  0.57807218148E+03  0.12500000000E+03 0.  0.
         25    1    1    2    0    0 -0.76696770809E+02  0.97684669739E+02 -0.12939095537E+03  0.21861314847E+03  0.12500000000E+03 0.  0.
         25    1    1    2    0    0  0.16918932946E+03 -0.63360938758E+01 -0.53428042283E+02  0.21712837445E+03  0.12500000000E+03 0.  0.
</event>
<event>
 5    0  0.5641283E-005  0.3472440E+03  0.7546771E-02  0.1063752E+00
         21   -1    0    0  502  501  0.00000000000E+00  0.00000000000E+00  0.87242809458E+02  0.87242809458E+02  0.00000000000E+00 0.  1.
         21   -1    0    0  501  502 -0.00000000000E+00 -0.00000000000E+00 -0.13821011958E+04  0.13821011958E+04  0.00000000000E+00 0.  1.
         25    1    1    2    0    0 -0.21192636577E+02 -0.75532280429E+02 -0.26832588682E+03  0.30623199501E+03  0.12500000000E+03 0.  0.
         25    1    1    2    0    0 -0.10221699036E+03 -0.15306303495E+03 -0.66182778971E+03  0.69822462648E+03  0.12500000000E+03 0.  0.
         25    1    1    2    0    0  0.12340962693E+03  0.22859531538E+03 -0.36470470982E+03  0.46488738378E+03  0.12500000000E+03 0.  0.
</event>
<event>
 5    0  0.5641283E-005  0.2139572E+03  0.7546771E-02  0.1138470E+00
         21   -1    0    0  502  501  0.00000000000E+00  0.00000000000E+00  0.25797893744E+04  0.25797893744E+04  0.00000000000E+00 0. -1.
         21   -1    0    0  501  502 -0.00000000000E+00 -0.00000000000E+00 -0.17744737045E+02  0.17744737045E+02  0.00000000000E+00 0. -1.
         25    1    1    2    0    0  0.35716824447E+02 -0.89420647280E+01  0.74197721658E+03  0.75333315471E+03  0.12500000000E+03 0.  0.
         25    1    1    2    0    0  0.36438386251E+02 -0.17237650888E+02  0.53937059657E+03  0.55513109537E+03  0.12500000000E+03 0.  0.
         25    1    1    2    0    0 -0.72155210698E+02  0.26179715616E+02  0.12806968242E+04  0.12890698614E+04  0.12500000000E+03 0.  0.
</event>
<event>
 5    0  0.5641283E-005  0.3532089E+03  0.7546771E-02  0.1061306E+00
         21   -1    0    0  502  501  0.00000000000E+00  0.00000000000E+00  0.49742979401E+02  0.49742979401E+02  0.00000000000E+00 0.  1.
         21   -1    0    0  501  502 -0.00000000000E+00 -0.00000000000E+00 -0.25080228969E+04  0.25080228969E+04  0.00000000000E+00 0.  1.
         25    1    1    2    0    0  0.51847524847E+02 -0.16310632089E+02 -0.93562555046E+03  0.94550218045E+03  0.12500000000E+03 0.  0.
         25    1    1    2    0    0 -0.25345210128E+03  0.40812971724E+02 -0.94874011974E+03  0.99077569667E+03  0.12500000000E+03 0.  0.
         25    1    1    2    0    0  0.20160457643E+03 -0.24502339635E+02 -0.57391424731E+03  0.62148799920E+03  0.12500000000E+03 0.  0.
</event>
<event>
 5    0  0.5641283E-005  0.3255010E+03  0.7546771E-02  0.1073145E+00
         21   -1    0    0  502  501  0.00000000000E+00  0.00000000000E+00  0.13014003038E+03  0.13014003038E+03  0.00000000000E+00 0.  1.
         21   -1    0    0  501  502 -0.00000000000E+00 -0.00000000000E+00 -0.81412975850E+03  0.81412975850E+03  0.00000000000E+00 0.  1.
         25    1    1    2    0    0  0.61143424293E+02 -0.10066865890E+03 -0.45545000294E+03  0.48675702604E+03  0.12500000000E+03 0.  0.
         25    1    1    2    0    0 -0.11516813154E+03 -0.54062455492E+02 -0.16192291368E+03  0.24089515892E+03  0.12500000000E+03 0.  0.
         25    1    1    2    0    0  0.54024707251E+02  0.15473111439E+03 -0.66616811501E+02  0.21661760392E+03  0.12500000000E+03 0.  0.
</event>
<event>
 5    0  0.5641283E-005  0.3168908E+03  0.7546771E-02  0.1077089E+00
         21   -1    0    0  502  501  0.00000000000E+00  0.00000000000E+00  0.21177910209E+03  0.21177910209E+03  0.00000000000E+00 0.  1.
         21   -1    0    0  501  502 -0.00000000000E+00 -0.00000000000E+00 -0.47417223413E+03  0.47417223413E+03  0.00000000000E+00 0.  1.
         25    1    1    2    0    0 -0.94555481546E+02 -0.37743427070E+01 -0.30638128162E+02  0.15974567177E+03  0.12500000000E+03 0.  0.
         25    1    1    2    0    0  0.49417490268E+02  0.19243071906E+03 -0.71945617508E+02  0.24550527868E+03  0.12500000000E+03 0.  0.
         25    1    1    2    0    0  0.45137991279E+02 -0.18865637636E+03 -0.15980938636E+03  0.28070038576E+03  0.12500000000E+03 0.  0.
</event>
<event>
 5    0  0.7081147E-005  0.3573107E+03  0.7546771E-02  0.1059654E+00
         21   -1    0    0  502  501  0.00000000000E+00  0.00000000000E+00  0.20241834783E+03  0.20241834783E+03  0.00000000000E+00 0. -1.
         21   -1    0    0  501  502 -0.00000000000E+00 -0.00000000000E+00 -0.63072801734E+03  0.63072801734E+03  0.00000000000E+00 0. -1.
         25    1    1    2    0    0  0.16343737933E+03  0.83935061764E+02 -0.31023798080E+03  0.38161430304E+03  0.12500000000E+03 0.  0.
         25    1    1    2    0    0 -0.11793500314E+03 -0.12805917020E+03 -0.19663950891E+03  0.29086064104E+03  0.12500000000E+03 0.  0.
         25    1    1    2    0    0 -0.45502376188E+02  0.44124108439E+02  0.78567820204E+02  0.16067142109E+03  0.12500000000E+03 0.  0.
</event>
<event>
 5    0  0.5641283E-005  0.4029174E+03  0.7546771E-02  0.1042774E+00
         21   -1    0    0  502  501  0.00000000000E+00  0.00000000000E+00  0.75011700715E+03  0.75011700715E+03  0.00000000000E+00 0. -1.
         21   -1    0    0  501  502 -0.00000000000E+00 -0.00000000000E+00 -0.21642280148E+03  0.21642280148E+03  0.00000000000E+00 0. -1.
         25    1    1    2    0    0  0.76078074741E+02  0.94527631820E+02  0.11350194410E+01  0.17421146605E+03  0.12500000000E+03 0.  0.
         25    1    1    2    0    0 -0.41840129920E+02 -0.30850734079E+03  0.28208243486E+03  0.43831823582E+03  0.12500000000E+03 0.  0.
         25    1    1    2    0    0 -0.34237944821E+02  0.21397970897E+03  0.25047675137E+03  0.35401010677E+03  0.12500000000E+03 0.  0.
</event>
<event>
 5    0  0.5641283E-005  0.2421126E+03  0.7546771E-02  0.1118393E+00
         21   -1    0    0  502  501  0.00000000000E+00  0.00000000000E+00  0.30246759557E+03  0.30246759557E+03  0.00000000000E+00 0.  1.
         21   -1    0    0  501  502 -0.00000000000E+00 -0.00000000000E+00 -0.19380102452E+03  0.19380102452E+03  0.00000000000E+00 0.  1.
         25    1    1    2    0    0  0.12595612312E+03  0.12352235488E+02 -0.31157097780E+02  0.18059149319E+03  0.12500000000E+03 0.  0.
         25    1    1    2    0    0 -0.61472798350E+02 -0.17886297550E+02  0.87700289434E+02  0.16557525583E+03  0.12500000000E+03 0.  0.
         25    1    1    2    0    0 -0.64483324766E+02  0.55340620624E+01  0.52123379396E+02  0.15010187106E+03  0.12500000000E+03 0.  0.
</event>
<event>
 5    0  0.5641283E-005  0.2410644E+03  0.7546771E-02  0.1119086E+00
         21   -1    0    0  502  501  0.00000000000E+00  0.00000000000E+00  0.12747133905E+04  0.12747133905E+04  0.00000000000E+00 0. -1.
         21   -1    0    0  501  502 -0.00000000000E+00 -0.00000000000E+00 -0.45588309487E+02  0.45588309487E+02  0.00000000000E+00 0. -1.
         25    1    1    2    0    0 -0.76585312715E+02  0.83269097479E+02  0.28419476060E+03  0.33044018320E+03  0.12500000000E+03 0.  0.
         25    1    1    2    0    0  0.21945809928E+02  0.83358997450E+01  0.48726918587E+03  0.50359444526E+03  0.12500000000E+03 0.  0.
         25    1    1    2    0    0  0.54639502787E+02 -0.91604997224E+02  0.45766113450E+03  0.48626707149E+03  0.12500000000E+03 0.  0.
</event>
<event>
 5    0  0.5641283E-005  0.2640744E+03  0.7546771E-02  0.1104720E+00
         21   -1    0    0  502  501  0.00000000000E+00  0.00000000000E+00  0.13364845655E+04  0.13364845655E+04  0.00000000000E+00 0.  1.
         21   -1    0    0  501  502 -0.00000000000E+00 -0.00000000000E+00 -0.52178150379E+02  0.52178150379E+02  0.00000000000E+00 0.  1.
         25    1    1    2    0    0  0.45389013789E+02 -0.76990679396E+02  0.14812286142E+03  0.21343174404E+03  0.12500000000E+03 0.  0.
         25    1    1    2    0    0 -0.21573768832E+02  0.48186217431E+02  0.84933110575E+03  0.86010212548E+03  0.12500000000E+03 0.  0.
         25    1    1    2    0    0 -0.23815244956E+02  0.28804461965E+02  0.28685244798E+03  0.31512884640E+03  0.12500000000E+03 0.  0.
</event>
<event>
 5    0  0.5641283E-005  0.4807247E+03  0.7546771E-02  0.1018936E+00
         21   -1    0    0  502  501  0.00000000000E+00  0.00000000000E+00  0.15739540232E+03  0.15739540232E+03  0.00000000000E+00 0.  1.
         21   -1    0    0  501  502 -0.00000000000E+00 -0.00000000000E+00 -0.14682528357E+04  0.14682528357E+04  0.00000000000E+00 0.  1.
         25    1    1    2    0    0  0.27230769402E+03  0.19513702822E+03 -0.37355206702E+03  0.51710355518E+03  0.12500000000E+03 0.  0.
         25    1    1    2    0    0 -0.15904648971E+03 -0.31929355297E+02 -0.80290023956E+02  0.21996990150E+03  0.12500000000E+03 0.  0.
         25    1    1    2    0    0 -0.11326120431E+03 -0.16320767293E+03 -0.85701534241E+03  0.88857478133E+03  0.12500000000E+03 0.  0.
</event>
<event>
 5    0  0.6506385E-005  0.3027988E+03  0.7546771E-02  0.1083850E+00
         21   -1    0    0  502  501  0.00000000000E+00  0.00000000000E+00  0.55446519248E+03  0.55446519248E+03  0.00000000000E+00 0.  1.
         21   -1    0    0  501  502 -0.00000000000E+00 -0.00000000000E+00 -0.16536132574E+03  0.16536132574E+03  0.00000000000E+00 0.  1.
         25    1    1    2    0    0  0.55153202813E+02  0.99563513883E+02  0.86183924059E+02  0.18975625904E+03  0.12500000000E+03 0.  0.
         25    1    1    2    0    0 -0.36011818013E+02  0.83266339955E+02  0.14680740484E+00  0.15445114424E+03  0.12500000000E+03 0.  0.
         25    1    1    2    0    0 -0.19141384800E+02 -0.18282985384E+03  0.30277313527E+03  0.37561911494E+03  0.12500000000E+03 0.  0.
</event>
<event>
 5    0  0.5641283E-005  0.2860851E+03  0.7546771E-02  0.1092411E+00
         21   -1    0    0  502  501  0.00000000000E+00  0.00000000000E+00  0.18721348271E+03  0.18721348271E+03  0.00000000000E+00 0.  1.
         21   -1    0    0  501  502 -0.00000000000E+00 -0.00000000000E+00 -0.43717317069E+03  0.43717317069E+03  0.00000000000E+00 0.  1.
         25    1    1    2    0    0  0.10917852514E+03 -0.47886540955E+02 -0.10013298529E+03  0.19966142817E+03  0.12500000000E+03 0.  0.
         25    1    1    2    0    0  0.15360394817E+01  0.96367359246E+02  0.44470589149E+02  0.16398676972E+03  0.12500000000E+03 0.  0.
         25    1    1    2    0    0 -0.11071456462E+03 -0.48480818291E+02 -0.19429729184E+03  0.26073845550E+03  0.12500000000E+03 0.  0.
</event>
<event>
 5    0  0.5641283E-005  0.5654134E+03  0.7546771E-02  0.9979880E-01
         21   -1    0    0  502  501  0.00000000000E+00  0.00000000000E+00  0.38170066438E+03  0.38170066438E+03  0.00000000000E+00 0. -1.
         21   -1    0    0  501  502 -0.00000000000E+00 -0.00000000000E+00 -0.83754722366E+03  0.83754722366E+03  0.00000000000E+00 0. -1.
         25    1    1    2    0    0 -0.29552336402E+03 -0.10055992225E+03 -0.44887068118E+03  0.56085314037E+03  0.12500000000E+03 0.  0.
         25    1    1    2    0    0  0.31345166452E+03  0.20885961997E+03  0.15514101714E+03  0.42610799340E+03  0.12500000000E+03 0.  0.
         25    1    1    2    0    0 -0.17928300503E+02 -0.10829969772E+03 -0.16211689524E+03  0.23228675427E+03  0.12500000000E+03 0.  0.
</event>
<event>
 5    0  0.5641283E-005  0.3619087E+03  0.7546771E-02  0.1057831E+00
         21   -1    0    0  502  501  0.00000000000E+00  0.00000000000E+00  0.44497226510E+03  0.44497226510E+03  0.00000000000E+00 0. -1.
         21   -1    0    0  501  502 -0.00000000000E+00 -0.00000000000E+00 -0.29435077658E+03  0.29435077658E+03  0.00000000000E+00 0. -1.
         25    1    1    2    0    0  0.63774750804E+02  0.77560651022E+02  0.13329082706E+03  0.20850495919E+03  0.12500000000E+03 0.  0.
         25    1    1    2    0    0  0.35423787766E+01  0.18989627067E+03 -0.22369592506E+01  0.22738325807E+03  0.12500000000E+03 0.  0.
         25    1    1    2    0    0 -0.67317129581E+02 -0.26745692169E+03  0.19567620704E+02  0.30343482443E+03  0.12500000000E+03 0.  0.
</event>
<event>
 5    0  0.5641283E-005  0.2805119E+03  0.7546771E-02  0.1095410E+00
         21   -1    0    0  502  501  0.00000000000E+00  0.00000000000E+00  0.16859897006E+03  0.16859897006E+03  0.00000000000E+00 0.  1.
         21   -1    0    0  501  502 -0.00000000000E+00 -0.00000000000E+00 -0.46671073926E+03  0.46671073926E+03  0.00000000000E+00 0.  1.
         25    1    1    2    0    0 -0.74516330461E+02 -0.73913314986E+02 -0.19734864071E+03  0.25610026870E+03  0.12500000000E+03 0.  0.
         25    1    1    2    0    0 -0.32075413976E+02  0.27360883433E+02  0.59789908970E+02  0.14483536633E+03  0.12500000000E+03 0.  0.
         25    1    1    2    0    0  0.10659174444E+03  0.46552431553E+02 -0.16055303746E+03  0.23437407430E+03  0.12500000000E+03 0.  0.
</event>
<event>
 5    0  0.5641283E-005  0.2544451E+03  0.7546771E-02  0.1110527E+00
         21   -1    0    0  502  501  0.00000000000E+00  0.00000000000E+00  0.20399611983E+03  0.20399611983E+03  0.00000000000E+00 0. -1.
         21   -1    0    0  501  502 -0.00000000000E+00 -0.00000000000E+00 -0.31737036867E+03  0.31737036867E+03  0.00000000000E+00 0. -1.
         25    1    1    2    0    0 -0.82410373539E+02 -0.11968607308E+03 -0.69852888147E+02  0.20401140100E+03  0.12500000000E+03 0.  0.
         25    1    1    2    0    0  0.87794240558E+02  0.10912823620E+03 -0.38861099637E+02  0.19170807410E+03  0.12500000000E+03 0.  0.
         25    1    1    2    0    0 -0.53838670189E+01  0.10557836884E+02 -0.46602610579E+01  0.12564701340E+03  0.12500000000E+03 0.  0.
</event>
<event>
 5    0  0.6564107E-005  0.2876409E+03  0.7546771E-02  0.1091587E+00
         21   -1    0    0  502  501  0.00000000000E+00  0.00000000000E+00  0.28379063529E+03  0.28379063529E+03  0.00000000000E+00 0.  1.
         21   -1    0    0  501  502 -0.00000000000E+00 -0.00000000000E+00 -0.29154345124E+03  0.29154345124E+03  0.00000000000E+00 0.  1.
         25    1    1    2    0    0  0.74972617440E+01  0.97022345541E+02 -0.63008474805E+02  0.17048346654E+03  0.12500000000E+03 0.  0.
         25    1    1    2    0    0  0.31911363644E+02 -0.19750826990E+03  0.32122184036E+02  0.23808546053E+03  0.12500000000E+03 0.  0.
         25    1    1    2    0    0 -0.39408625388E+02  0.10048592436E+03  0.23133474822E+02  0.16676515945E+03  0.12500000000E+03 0.  0.
</event>
<event>
 5    0  0.5641283E-005  0.2425341E+03  0.7546771E-02  0.1118116E+00
         21   -1    0    0  502  501  0.00000000000E+00  0.00000000000E+00  0.18605791408E+04  0.18605791408E+04  0.00000000000E+00 0. -1.
         21   -1    0    0  501  502 -0.00000000000E+00 -0.00000000000E+00 -0.31615317718E+02  0.31615317718E+02  0.00000000000E+00 0. -1.
         25    1    1    2    0    0 -0.23488946237E+02  0.12715777734E+03  0.65569962430E+03  0.67991751576E+03  0.12500000000E+03 0.  0.
         25    1    1    2    0    0 -0.45894304253E+02 -0.50813217157E+02  0.58269320695E+03  0.59987052238E+03  0.12500000000E+03 0.  0.
         25    1    1    2    0    0  0.69383250490E+02 -0.76344560182E+02  0.59057099185E+03  0.61240642039E+03  0.12500000000E+03 0.  0.
</event>
<event>
 5    0  0.5641283E-005  0.2377167E+03  0.7546771E-02  0.1121323E+00
         21   -1    0    0  502  501  0.00000000000E+00  0.00000000000E+00  0.10616978204E+04  0.10616978204E+04  0.00000000000E+00 0. -1.
         21   -1    0    0  501  502 -0.00000000000E+00 -0.00000000000E+00 -0.53225327281E+02  0.53225327281E+02  0.00000000000E+00 0. -1.
         25    1    1    2    0    0 -0.10546593473E+03 -0.72331122012E+02  0.47308287952E+03  0.50575415520E+03  0.12500000000E+03 0.  0.
         25    1    1    2    0    0  0.91813593648E+02  0.36077998664E+02  0.31141861816E+03  0.34976837150E+03  0.12500000000E+03 0.  0.
         25    1    1    2    0    0  0.13652341082E+02  0.36253123348E+02  0.22397099542E+03  0.25940062097E+03  0.12500000000E+03 0.  0.
</event>
<event>
 5    0  0.5641283E-005  0.2343725E+03  0.7546771E-02  0.1123599E+00
         21   -1    0    0  502  501  0.00000000000E+00  0.00000000000E+00  0.29961423133E+03  0.29961423133E+03  0.00000000000E+00 0.  1.
         21   -1    0    0  501  502 -0.00000000000E+00 -0.00000000000E+00 -0.18333738085E+03  0.18333738085E+03  0.00000000000E+00 0.  1.
         25    1    1    2    0    0 -0.20958952917E+02  0.73116457658E+02  0.20162943368E+02  0.14770524152E+03  0.12500000000E+03 0.  0.
         25    1    1    2    0    0 -0.59328625303E+02  0.16501272657E+02  0.80786131969E+02  0.16107009933E+03  0.12500000000E+03 0.  0.
         25    1    1    2    0    0  0.80287578220E+02 -0.89617730314E+02  0.15327775147E+02  0.17417627133E+03  0.12500000000E+03 0.  0.
</event>
<event>
 5    0  0.5641283E-005  0.4417276E+03  0.7546771E-02  0.1030218E+00
         21   -1    0    0  502  501  0.00000000000E+00  0.00000000000E+00  0.67004362552E+02  0.67004362552E+02  0.00000000000E+00 0.  1.
         21   -1    0    0  501  502 -0.00000000000E+00 -0.00000000000E+00 -0.29120982381E+04  0.29120982381E+04  0.00000000000E+00 0.  1.
         25    1    1    2    0    0 -0.17238210423E+03 -0.16736161574E+03 -0.18209238842E+04  0.18409547231E+04  0.12500000000E+03 0.  0.
         25    1    1    2    0    0  0.47901548503E+02  0.20209717897E+03 -0.86397468984E+03  0.89733778076E+03  0.12500000000E+03 0.  0.
         25    1    1    2    0    0  0.12448055573E+03 -0.34735563232E+02 -0.16019530146E+03  0.24081009680E+03  0.12500000000E+03 0.  0.
</event>
<event>
 5    0  0.5641283E-005  0.4137829E+03  0.7546771E-02  0.1039109E+00
         21   -1    0    0  502  501  0.00000000000E+00  0.00000000000E+00  0.26599794732E+03  0.26599794732E+03  0.00000000000E+00 0. -1.
         21   -1    0    0  501  502 -0.00000000000E+00 -0.00000000000E+00 -0.64367523067E+03  0.64367523067E+03  0.00000000000E+00 0. -1.
         25    1    1    2    0    0 -0.40971221642E+02  0.93910810970E+02  0.97839883938E+01  0.16192161020E+03  0.12500000000E+03 0.  0.
         25    1    1    2    0    0  0.43083035085E+01 -0.15474598573E+03 -0.51716475618E+03  0.55412026368E+03  0.12500000000E+03 0.  0.
         25    1    1    2    0    0  0.36662918133E+02  0.60835174762E+02  0.12970348444E+03  0.19363130411E+03  0.12500000000E+03 0.  0.
</event>
<event>
 5    0  0.5641283E-005  0.2804053E+03  0.7546771E-02  0.1095468E+00
         21   -1    0    0  502  501  0.00000000000E+00  0.00000000000E+00  0.15877485926E+03  0.15877485926E+03  0.00000000000E+00 0. -1.
         21   -1    0    0  501  502 -0.00000000000E+00 -0.00000000000E+00 -0.49521140688E+03  0.49521140688E+03  0.00000000000E+00 0. -1.
         25    1    1    2    0    0  0.35409457001E+01  0.12970059185E+03 -0.77256383247E+02  0.19603145302E+03  0.12500000000E+03 0.  0.
         25    1    1    2    0    0 -0.61347211747E+01 -0.18121233728E+03 -0.23227466732E+03  0.32008134445E+03  0.12500000000E+03 0.  0.
         25    1    1    2    0    0  0.25937754746E+01  0.51511745433E+02 -0.26905497052E+02  0.13787346866E+03  0.12500000000E+03 0.  0.
</event>
<event>
 5    0  0.5641283E-005  0.4261834E+03  0.7546771E-02  0.1035072E+00
         21   -1    0    0  502  501  0.00000000000E+00  0.00000000000E+00  0.23614494005E+03  0.23614494005E+03  0.00000000000E+00 0.  1.
         21   -1    0    0  501  502 -0.00000000000E+00 -0.00000000000E+00 -0.76915608523E+03  0.76915608523E+03  0.00000000000E+00 0.  1.
         25    1    1    2    0    0 -0.34867223557E+03 -0.11110507271E+02 -0.31719401566E+03  0.48778357373E+03  0.12500000000E+03 0.  0.
         25    1    1    2    0    0  0.19014612626E+03 -0.85427958918E+02 -0.14393164321E+03  0.28247973983E+03  0.12500000000E+03 0.  0.
         25    1    1    2    0    0  0.15852610931E+03  0.96538466188E+02 -0.71885486308E+02  0.23503771172E+03  0.12500000000E+03 0.  0.
</event>
<event>
 5    0  0.5643032E-005  0.3230999E+03  0.7546771E-02  0.1074231E+00
         21   -1    0    0  502  501  0.00000000000E+00  0.00000000000E+00  0.36142522206E+03  0.36142522206E+03  0.00000000000E+00 0.  1.
         21   -1    0    0  501  502 -0.00000000000E+00 -0.00000000000E+00 -0.28883862196E+03  0.28883862196E+03  0.00000000000E+00 0.  1.
         25    1    1    2    0    0  0.14314867020E+02  0.68849155022E+02 -0.12090698111E+03  0.18758629920E+03  0.12500000000E+03 0.  0.
         25    1    1    2    0    0  0.90935238828E+02  0.94869196075E+02  0.41993541446E+02  0.18616616112E+03  0.12500000000E+03 0.  0.
         25    1    1    2    0    0 -0.10525010585E+03 -0.16371835110E+03  0.15150003976E+03  0.27651138370E+03  0.12500000000E+03 0.  0.
</event>
<event>
 5    0  0.5641283E-005  0.3543056E+03  0.7546771E-02  0.1060862E+00
         21   -1    0    0  502  501  0.00000000000E+00  0.00000000000E+00  0.14254062994E+03  0.14254062994E+03  0.00000000000E+00 0. -1.
         21   -1    0    0  501  502 -0.00000000000E+00 -0.00000000000E+00 -0.88067852447E+03  0.88067852447E+03  0.00000000000E+00 0. -1.
         25    1    1    2    0    0 -0.25690846565E+02 -0.57900610164E+02 -0.34423699199E+03  0.37166733366E+03  0.12500000000E+03 0.  0.
         25    1    1    2    0    0 -0.11134133751E+03  0.21733333420E+03 -0.20222672138E+03  0.34080979803E+03  0.12500000000E+03 0.  0.
         25    1    1    2    0    0  0.13703218407E+03 -0.15943272403E+03 -0.19167418116E+03  0.31074202272E+03  0.12500000000E+03 0.  0.
</event>
<event>
 5    0  0.5641283E-005  0.2548546E+03  0.7546771E-02  0.1110275E+00
         21   -1    0    0  502  501  0.00000000000E+00  0.00000000000E+00  0.22228558984E+03  0.22228558984E+03  0.00000000000E+00 0.  1.
         21   -1    0    0  501  502 -0.00000000000E+00 -0.00000000000E+00 -0.29219566333E+03  0.29219566333E+03  0.00000000000E+00 0.  1.
         25    1    1    2    0    0  0.60084942085E+02 -0.65412914913E+02  0.83767247946E+02  0.17473122655E+03  0.12500000000E+03 0.  0.
         25    1    1    2    0    0  0.32047407789E+02 -0.92727070333E+01 -0.81677521630E+02  0.15300077445E+03  0.12500000000E+03 0.  0.
         25    1    1    2    0    0 -0.92132349874E+02  0.74685621946E+02 -0.71999799805E+02  0.18674925218E+03  0.12500000000E+03 0.  0.
</event>
<event>
 5    0  0.5641283E-005  0.3687440E+03  0.7546771E-02  0.1055174E+00
         21   -1    0    0  502  501  0.00000000000E+00  0.00000000000E+00  0.51203688583E+03  0.51203688583E+03  0.00000000000E+00 0. -1.
         21   -1    0    0  501  502 -0.00000000000E+00 -0.00000000000E+00 -0.26555148086E+03  0.26555148086E+03  0.00000000000E+00 0. -1.
         25    1    1    2    0    0 -0.23000866884E+03  0.91616991469E+02  0.14896652619E+02  0.27774911544E+03  0.12500000000E+03 0.  0.
         25    1    1    2    0    0  0.32154630418E+02  0.80463975992E+02  0.89310803516E+02  0.17637967943E+03  0.12500000000E+03 0.  0.
         25    1    1    2    0    0  0.19785403842E+03 -0.17208096746E+03  0.14227794883E+03  0.32345957182E+03  0.12500000000E+03 0.  0.
</event>
<event>
 5    0  0.5641283E-005  0.2652508E+03  0.7546771E-02  0.1104029E+00
         21   -1    0    0  502  501  0.00000000000E+00  0.00000000000E+00  0.40012010217E+03  0.40012010217E+03  0.00000000000E+00 0.  1.
         21   -1    0    0  501  502 -0.00000000000E+00 -0.00000000000E+00 -0.17584213653E+03  0.17584213653E+03  0.00000000000E+00 0.  1.
         25    1    1    2    0    0  0.86201717068E+02  0.56537699665E+02  0.64918842856E+02  0.17454713881E+03  0.12500000000E+03 0.  0.
         25    1    1    2    0    0 -0.15534702523E+03 -0.94447173133E+02  0.94766147776E+02  0.24012203048E+03  0.12500000000E+03 0.  0.
         25    1    1    2    0    0  0.69145308159E+02  0.37909473468E+02  0.64592975012E+02  0.16129306941E+03  0.12500000000E+03 0.  0.
</event>
<event>
 5    0  0.5641283E-005  0.4696119E+03  0.7546771E-02  0.1022030E+00
         21   -1    0    0  502  501  0.00000000000E+00  0.00000000000E+00  0.42815686678E+03  0.42815686678E+03  0.00000000000E+00 0.  1.
         21   -1    0    0  501  502 -0.00000000000E+00 -0.00000000000E+00 -0.51508070314E+03  0.51508070314E+03  0.00000000000E+00 0.  1.
         25    1    1    2    0    0  0.34603678600E+02 -0.22532068100E+03 -0.12035874045E+03  0.28649267052E+03  0.12500000000E+03 0.  0.
         25    1    1    2    0    0 -0.14626855389E+03  0.22727395698E+01  0.24143961791E+03  0.30873571918E+03  0.12500000000E+03 0.  0.
         25    1    1    2    0    0  0.11166487529E+03  0.22304794143E+03 -0.20800471383E+03  0.34800918023E+03  0.12500000000E+03 0.  0.
</event>
<event>
 5    0  0.5641283E-005  0.3946852E+03  0.7546771E-02  0.1045636E+00
         21   -1    0    0  502  501  0.00000000000E+00  0.00000000000E+00  0.24974907021E+03  0.24974907021E+03  0.00000000000E+00 0. -1.
         21   -1    0    0  501  502 -0.00000000000E+00 -0.00000000000E+00 -0.62373167078E+03  0.62373167078E+03  0.00000000000E+00 0. -1.
         25    1    1    2    0    0 -0.21555113743E+03 -0.14102585830E+03 -0.17978081688E+03  0.33807799052E+03  0.12500000000E+03 0.  0.
         25    1    1    2    0    0  0.23628664426E+03  0.10856194487E+03 -0.26053600549E+03  0.38874295400E+03  0.12500000000E+03 0.  0.
         25    1    1    2    0    0 -0.20735506830E+02  0.32463913438E+02  0.66334221793E+02  0.14665979647E+03  0.12500000000E+03 0.  0.
</event>
<event>
 5    0  0.5641283E-005  0.3666534E+03  0.7546771E-02  0.1055980E+00
         21   -1    0    0  502  501  0.00000000000E+00  0.00000000000E+00  0.10825403816E+04  0.10825403816E+04  0.00000000000E+00 0. -1.
         21   -1    0    0  501  502 -0.00000000000E+00 -0.00000000000E+00 -0.12418445534E+03  0.12418445534E+03  0.00000000000E+00 0. -1.
         25    1    1    2    0    0  0.24142409107E+03  0.27412323484E+02  0.24399645548E+03  0.36632812820E+03  0.12500000000E+03 0.  0.
         25    1    1    2    0    0 -0.18303895514E+03  0.11043432769E+03  0.40192275563E+03  0.47208675191E+03  0.12500000000E+03 0.  0.
         25    1    1    2    0    0 -0.58385135926E+02 -0.13784665117E+03  0.31243671517E+03  0.36830995686E+03  0.12500000000E+03 0.  0.
</event>
<event>
 5    0  0.5641283E-005  0.4137039E+03  0.7546771E-02  0.1039135E+00
         21   -1    0    0  502  501  0.00000000000E+00  0.00000000000E+00  0.32598648306E+03  0.32598648306E+03  0.00000000000E+00 0. -1.
         21   -1    0    0  501  502 -0.00000000000E+00 -0.00000000000E+00 -0.52502464773E+03  0.52502464773E+03  0.00000000000E+00 0. -1.
         25    1    1    2    0    0 -0.17417715840E+03  0.12076021888E+03 -0.34847758833E+03  0.42659388479E+03  0.12500000000E+03 0.  0.
         25    1    1    2    0    0  0.17963306024E+03 -0.16883232995E+02  0.14240898339E+03  0.26164555880E+03  0.12500000000E+03 0.  0.
         25    1    1    2    0    0 -0.54559018362E+01 -0.10387698589E+03  0.70304402702E+01  0.16277168719E+03  0.12500000000E+03 0.  0.
</event>
<event>
 5    0  0.5641283E-005  0.4853306E+03  0.7546771E-02  0.1017680E+00
         21   -1    0    0  502  501  0.00000000000E+00  0.00000000000E+00  0.19021488973E+03  0.19021488973E+03  0.00000000000E+00 0.  1.
         21   -1    0    0  501  502 -0.00000000000E+00 -0.00000000000E+00 -0.12383141592E+04  0.12383141592E+04  0.00000000000E+00 0.  1.
         25    1    1    2    0    0  0.12113489720E+03 -0.24014491522E+03 -0.59490026635E+02  0.30250174693E+03  0.12500000000E+03 0.  0.
         25    1    1    2    0    0 -0.66243300921E+02  0.31359860823E+03 -0.85408518152E+03  0.92077074199E+03  0.12500000000E+03 0.  0.
         25    1    1    2    0    0 -0.54891596279E+02 -0.73453693003E+02 -0.13452406130E+03  0.20525656001E+03  0.12500000000E+03 0.  0.
</event>
<event>
 5    0  0.5641283E-005  0.3961231E+03  0.7546771E-02  0.1045130E+00
         21   -1    0    0  502  501  0.00000000000E+00  0.00000000000E+00  0.10697327211E+04  0.10697327211E+04  0.00000000000E+00 0.  1.
         21   -1    0    0  501  502 -0.00000000000E+00 -0.00000000000E+00 -0.14668476726E+03  0.14668476726E+03  0.00000000000E+00 0.  1.
         25    1    1    2    0    0 -0.13057069522E+03  0.22571152365E+03  0.22027507739E+03  0.36351135894E+03  0.12500000000E+03 0.  0.
         25    1    1    2    0    0  0.45014759649E+02 -0.71383266978E+02  0.40414480193E+02  0.15614169719E+03  0.12500000000E+03 0.  0.
         25    1    1    2    0    0  0.85555935575E+02 -0.15432825667E+03  0.66235839629E+03  0.69676443225E+03  0.12500000000E+03 0.  0.
</event>
<event>
 5    0  0.5641283E-005  0.4441265E+03  0.7546771E-02  0.1029488E+00
         21   -1    0    0  502  501  0.00000000000E+00  0.00000000000E+00  0.14265463698E+04  0.14265463698E+04  0.00000000000E+00 0. -1.
         21   -1    0    0  501  502 -0.00000000000E+00 -0.00000000000E+00 -0.13826983235E+03  0.13826983235E+03  0.00000000000E+00 0. -1.
         25    1    1    2    0    0 -0.11815342861E+03 -0.21653286685E+03  0.52430765134E+03  0.59276490143E+03  0.12500000000E+03 0.  0.
         25    1    1    2    0    0 -0.12275070816E+03  0.15559752058E+03  0.10497078698E+03  0.25675317112E+03  0.12500000000E+03 0.  0.
         25    1    1    2    0    0  0.24090413677E+03  0.60935346275E+02  0.65899809916E+03  0.71529812962E+03  0.12500000000E+03 0.  0.
</event>
<event>
 5    0  0.5641283E-005  0.4809685E+03  0.7546771E-02  0.1018869E+00
         21   -1    0    0  502  501  0.00000000000E+00  0.00000000000E+00  0.11634673350E+04  0.11634673350E+04  0.00000000000E+00 0. -1.
         21   -1    0    0  501  502 -0.00000000000E+00 -0.00000000000E+00 -0.19882869113E+03  0.19882869113E+03  0.00000000000E+00 0. -1.
         25    1    1    2    0    0 -0.19672976760E+03  0.16838657733E+03  0.72257152926E+03  0.77768326186E+03  0.12500000000E+03 0.  0.
         25    1    1    2    0    0  0.30298513311E+03 -0.10621904111E+03  0.99702561221E+02  0.35867544702E+03  0.12500000000E+03 0.  0.
         25    1    1    2    0    0 -0.10625536551E+03 -0.62167536224E+02  0.14236455338E+03  0.22593731724E+03  0.12500000000E+03 0.  0.
</event>
<event>
 5    0  0.5641283E-005  0.3186665E+03  0.7546771E-02  0.1076265E+00
         21   -1    0    0  502  501  0.00000000000E+00  0.00000000000E+00  0.10900467938E+04  0.10900467938E+04  0.00000000000E+00 0. -1.
         21   -1    0    0  501  502 -0.00000000000E+00 -0.00000000000E+00 -0.93159611958E+02  0.93159611958E+02  0.00000000000E+00 0. -1.
         25    1    1    2    0    0  0.16682643662E+03  0.74748219405E+02  0.43894476061E+03  0.49164607100E+03  0.12500000000E+03 0.  0.
         25    1    1    2    0    0 -0.21942450714E+03 -0.82208766569E+02  0.42730616794E+03  0.50311127675E+03  0.12500000000E+03 0.  0.
         25    1    1    2    0    0  0.52598070525E+02  0.74605471640E+01  0.13063625326E+03  0.18844905798E+03  0.12500000000E+03 0.  0.
</event>
<event>
 5    0  0.5641283E-005  0.5451734E+03  0.7546771E-02  0.1002617E+00
         21   -1    0    0  502  501  0.00000000000E+00  0.00000000000E+00  0.46337070824E+03  0.46337070824E+03  0.00000000000E+00 0. -1.
         21   -1    0    0  501  502 -0.00000000000E+00 -0.00000000000E+00 -0.64141738563E+03  0.64141738563E+03  0.00000000000E+00 0. -1.
         25    1    1    2    0    0  0.19949695617E+03  0.10577837185E+03  0.29098467230E+03  0.38895395484E+03  0.12500000000E+03 0.  0.
         25    1    1    2    0    0 -0.32633260481E+03 -0.82993448880E+02 -0.28267768226E+03  0.45706952816E+03  0.12500000000E+03 0.  0.
         25    1    1    2    0    0  0.12683564864E+03 -0.22784922966E+02 -0.18635366743E+03  0.25876461088E+03  0.12500000000E+03 0.  0.
</event>
<event>
 5    0  0.5641283E-005  0.2639687E+03  0.7546771E-02  0.1104782E+00
         21   -1    0    0  502  501  0.00000000000E+00  0.00000000000E+00  0.10776594942E+03  0.10776594942E+03  0.00000000000E+00 0. -1.
         21   -1    0    0  501  502 -0.00000000000E+00 -0.00000000000E+00 -0.64658135926E+03  0.64658135926E+03  0.00000000000E+00 0. -1.
         25    1    1    2    0    0  0.67086799260E+02 -0.55165361354E+02 -0.65784501204E+02  0.16582055460E+03  0.12500000000E+03 0.  0.
         25    1    1    2    0    0 -0.92082484419E+02  0.66090289438E+02 -0.41509149593E+03  0.44807706959E+03  0.12500000000E+03 0.  0.
         25    1    1    2    0    0  0.24995685158E+02 -0.10924928084E+02 -0.57939412709E+02  0.14044968450E+03  0.12500000000E+03 0.  0.
</event>
<event>
 5    0  0.5641283E-005  0.4326216E+03  0.7546771E-02  0.1033035E+00
         21   -1    0    0  502  501  0.00000000000E+00  0.00000000000E+00  0.15723336553E+03  0.15723336553E+03  0.00000000000E+00 0.  1.
         21   -1    0    0  501  502 -0.00000000000E+00 -0.00000000000E+00 -0.11903419842E+04  0.11903419842E+04  0.00000000000E+00 0.  1.
         25    1    1    2    0    0 -0.12979677465E+03  0.29314700003E+03 -0.73318142942E+03  0.80991504171E+03  0.12500000000E+03 0.  0.
         25    1    1    2    0    0  0.67690435037E+01 -0.18359901791E+03 -0.81015409760E+02  0.23652254849E+03  0.12500000000E+03 0.  0.
         25    1    1    2    0    0  0.12302773115E+03 -0.10954798213E+03 -0.21891177954E+03  0.30113775957E+03  0.12500000000E+03 0.  0.
</event>
<event>
 5    0  0.5641283E-005  0.3480111E+03  0.7546771E-02  0.1063434E+00
         21   -1    0    0  502  501  0.00000000000E+00  0.00000000000E+00  0.50476378574E+03  0.50476378574E+03  0.00000000000E+00 0.  1.
         21   -1    0    0  501  502 -0.00000000000E+00 -0.00000000000E+00 -0.23993736410E+03  0.23993736410E+03  0.00000000000E+00 0. -1.
         25    1    1    2    0    0 -0.80924477415E+02  0.65054186276E+01  0.94478311307E+02  0.17647164878E+03  0.12500000000E+03 0.  0.
         25    1    1    2    0    0  0.39051705328E+02 -0.23557977744E+03  0.36566797831E+02  0.27200183443E+03  0.12500000000E+03 0.  0.
         25    1    1    2    0    0  0.41872772087E+02  0.22907435881E+03  0.13378131250E+03  0.29622766664E+03  0.12500000000E+03 0.  0.
</event>
<event>
 5    0  0.5641283E-005  0.3323693E+03  0.7546771E-02  0.1070093E+00
         21   -1    0    0  502  501  0.00000000000E+00  0.00000000000E+00  0.89731512995E+03  0.89731512995E+03  0.00000000000E+00 0. -1.
         21   -1    0    0  501  502 -0.00000000000E+00 -0.00000000000E+00 -0.12311102280E+03  0.12311102280E+03  0.00000000000E+00 0. -1.
         25    1    1    2    0    0  0.15330042555E+03 -0.14547815640E+03  0.25595845688E+03  0.35468950663E+03  0.12500000000E+03 0.  0.
         25    1    1    2    0    0  0.54859307609E+02  0.36360428767E+02  0.11310657131E+03  0.18096883954E+03  0.12500000000E+03 0.  0.
         25    1    1    2    0    0 -0.20815973316E+03  0.10911772763E+03  0.40513907896E+03  0.48476780658E+03  0.12500000000E+03 0.  0.
</event>
<event>
 5    0  0.5641283E-005  0.4372336E+03  0.7546771E-02  0.1031599E+00
         21   -1    0    0  502  501  0.00000000000E+00  0.00000000000E+00  0.25189220259E+03  0.25189220259E+03  0.00000000000E+00 0.  1.
         21   -1    0    0  501  502 -0.00000000000E+00 -0.00000000000E+00 -0.75894860306E+03  0.75894860306E+03  0.00000000000E+00 0.  1.
         25    1    1    2    0    0 -0.21295987965E+03  0.21416358726E+03 -0.21588000603E+03  0.39172328173E+03  0.12500000000E+03 0.  0.
         25    1    1    2    0    0  0.75636090033E+02 -0.30606518459E+03 -0.17752648647E+03  0.38280199677E+03  0.12500000000E+03 0.  0.
         25    1    1    2    0    0  0.13732378961E+03  0.91901597326E+02 -0.11364990798E+03  0.23631552714E+03  0.12500000000E+03 0.  0.
</event>
<event>
 5    0  0.5641283E-005  0.2876806E+03  0.7546771E-02  0.1091566E+00
         21   -1    0    0  502  501  0.00000000000E+00  0.00000000000E+00  0.27642014256E+03  0.27642014256E+03  0.00000000000E+00 0. -1.
         21   -1    0    0  501  502 -0.00000000000E+00 -0.00000000000E+00 -0.29939975104E+03  0.29939975104E+03  0.00000000000E+00 0. -1.
         25    1    1    2    0    0  0.15956994367E+02 -0.10730596313E+02  0.69564960795E+02  0.14434006768E+03  0.12500000000E+03 0.  0.
         25    1    1    2    0    0 -0.71159141637E+02 -0.86262550641E+02  0.84418869004E+02  0.18776686749E+03  0.12500000000E+03 0.  0.
         25    1    1    2    0    0  0.55202147270E+02  0.96993146955E+02 -0.17696343828E+03  0.24371295843E+03  0.12500000000E+03 0.  0.
</event>
<event>
 5    0  0.5641283E-005  0.2979689E+03  0.7546771E-02  0.1086260E+00
         21   -1    0    0  502  501  0.00000000000E+00  0.00000000000E+00  0.23604944322E+03  0.23604944322E+03  0.00000000000E+00 0. -1.
         21   -1    0    0  501  502 -0.00000000000E+00 -0.00000000000E+00 -0.37613075051E+03  0.37613075051E+03  0.00000000000E+00 0. -1.
         25    1    1    2    0    0  0.13795762104E+00 -0.10667086629E+03  0.33967230079E+01  0.16436310558E+03  0.12500000000E+03 0.  0.
         25    1    1    2    0    0  0.26904425110E+02  0.34135036005E+02  0.98292191066E+02  0.16484963936E+03  0.12500000000E+03 0.  0.
         25    1    1    2    0    0 -0.27042382731E+02  0.72535830286E+02 -0.24177022136E+03  0.28296744879E+03  0.12500000000E+03 0.  0.
</event>
<event>
 5    0  0.5641283E-005  0.2275347E+03  0.7546771E-02  0.1128387E+00
         21   -1    0    0  502  501  0.00000000000E+00  0.00000000000E+00  0.10316485683E+03  0.10316485683E+03  0.00000000000E+00 0.  1.
         21   -1    0    0  501  502 -0.00000000000E+00 -0.00000000000E+00 -0.50183812622E+03  0.50183812622E+03  0.00000000000E+00 0.  1.
         25    1    1    2    0    0  0.63826531212E+02  0.15527596830E+02 -0.14257748505E+03  0.20066955821E+03  0.12500000000E+03 0.  0.
         25    1    1    2    0    0 -0.10632050302E+03  0.41198764914E+02 -0.13896329345E+03  0.21894562000E+03  0.12500000000E+03 0.  0.
         25    1    1    2    0    0  0.42493971805E+02 -0.56726361744E+02 -0.11713249089E+03  0.18538780483E+03  0.12500000000E+03 0.  0.
</event>
<event>
 5    0  0.7025107E-005  0.6154813E+03  0.7546771E-02  0.9873798E-01
         21   -1    0    0  502  501  0.00000000000E+00  0.00000000000E+00  0.14536342069E+04  0.14536342069E+04  0.00000000000E+00 0.  1.
         21   -1    0    0  501  502 -0.00000000000E+00 -0.00000000000E+00 -0.26060012989E+03  0.26060012989E+03  0.00000000000E+00 0.  1.
         25    1    1    2    0    0  0.40014021376E+03  0.78252236719E+02  0.22184981031E+03  0.48070567040E+03  0.12500000000E+03 0.  0.
         25    1    1    2    0    0 -0.39087148035E+03 -0.78194501423E+02  0.22035602481E+03  0.47230993200E+03  0.12500000000E+03 0.  0.
         25    1    1    2    0    0 -0.92687334139E+01 -0.57735295549E-01  0.75082824190E+03  0.76121873439E+03  0.12500000000E+03 0.  0.
</event>
<event>
 5    0  0.5641283E-005  0.4096312E+03  0.7546771E-02  0.1040495E+00
         21   -1    0    0  502  501  0.00000000000E+00  0.00000000000E+00  0.34315898107E+03  0.34315898107E+03  0.00000000000E+00 0. -1.
         21   -1    0    0  501  502 -0.00000000000E+00 -0.00000000000E+00 -0.48897962737E+03  0.48897962737E+03  0.00000000000E+00 0. -1.
         25    1    1    2    0    0 -0.24587770406E+03  0.22456870118E+03  0.54856929961E+01  0.35572747958E+03  0.12500000000E+03 0.  0.
         25    1    1    2    0    0  0.24404660947E+02 -0.10864228933E+03 -0.23349629521E+02  0.16902348862E+03  0.12500000000E+03 0.  0.
         25    1    1    2    0    0  0.22147304311E+03 -0.11592641185E+03 -0.12795670978E+03  0.30738764023E+03  0.12500000000E+03 0.  0.
</event>
<event>
 5    0  0.5800170E-005  0.2816652E+03  0.7546771E-02  0.1094783E+00
         21   -1    0    0  502  501  0.00000000000E+00  0.00000000000E+00  0.97635034469E+02  0.97635034469E+02  0.00000000000E+00 0.  1.
         21   -1    0    0  501  502 -0.00000000000E+00 -0.00000000000E+00 -0.81256977425E+03  0.81256977425E+03  0.00000000000E+00 0.  1.
         25    1    1    2    0    0 -0.15405788501E+03 -0.65110468308E+02 -0.21016922960E+03  0.29625885655E+03  0.12500000000E+03 0.  0.
         25    1    1    2    0    0  0.99842572459E+02  0.11224627477E+03 -0.21664559304E+03  0.29176716481E+03  0.12500000000E+03 0.  0.
         25    1    1    2    0    0  0.54215312554E+02 -0.47135806467E+02 -0.28811991714E+03  0.32217878735E+03  0.12500000000E+03 0.  0.
</event>
<event>
 5    0  0.5641283E-005  0.2358513E+03  0.7546771E-02  0.1122588E+00
         21   -1    0    0  502  501  0.00000000000E+00  0.00000000000E+00  0.68594843583E+03  0.68594843583E+03  0.00000000000E+00 0. -1.
         21   -1    0    0  501  502 -0.00000000000E+00 -0.00000000000E+00 -0.81093310050E+02  0.81093310050E+02  0.00000000000E+00 0. -1.
         25    1    1    2    0    0 -0.33541122978E+00  0.12062983518E+03  0.26080247470E+03  0.31336017687E+03  0.12500000000E+03 0.  0.
         25    1    1    2    0    0  0.26680670222E+02 -0.10760044461E+03  0.20359084426E+03  0.26337035845E+03  0.12500000000E+03 0.  0.
         25    1    1    2    0    0 -0.26345258993E+02 -0.13029390574E+02  0.14046180681E+03  0.19031121056E+03  0.12500000000E+03 0.  0.
</event>
<event>
 5    0  0.5641283E-005  0.3125168E+03  0.7546771E-02  0.1079146E+00
         21   -1    0    0  502  501  0.00000000000E+00  0.00000000000E+00  0.17280797224E+03  0.17280797224E+03  0.00000000000E+00 0.  1.
         21   -1    0    0  501  502 -0.00000000000E+00 -0.00000000000E+00 -0.56517489234E+03  0.56517489234E+03  0.00000000000E+00 0.  1.
         25    1    1    2    0    0 -0.40695898631E+02 -0.12159986663E+03 -0.31656188500E+03  0.36370195321E+03  0.12500000000E+03 0.  0.
         25    1    1    2    0    0 -0.67327193122E+02  0.58523418769E+02  0.45108161542E+02  0.16005526457E+03  0.12500000000E+03 0.  0.
         25    1    1    2    0    0  0.10802309175E+03  0.63076447862E+02 -0.12091319665E+03  0.21422564681E+03  0.12500000000E+03 0.  0.
</event>
<event>
 5    0  0.5641283E-005  0.2865658E+03  0.7546771E-02  0.1092156E+00
         21   -1    0    0  502  501  0.00000000000E+00  0.00000000000E+00  0.13595087682E+04  0.13595087682E+04  0.00000000000E+00 0. -1.
         21   -1    0    0  501  502 -0.00000000000E+00 -0.00000000000E+00 -0.60404158698E+02  0.60404158698E+02  0.00000000000E+00 0. -1.
         25    1    1    2    0    0 -0.89140299376E+02  0.13396599983E+03  0.46062110094E+03  0.50367616651E+03  0.12500000000E+03 0.  0.
         25    1    1    2    0    0  0.48279410135E+02 -0.23589831320E+02  0.13338428785E+03  0.19053542933E+03  0.12500000000E+03 0.  0.
         25    1    1    2    0    0  0.40860889241E+02 -0.11037616851E+03  0.70509922074E+03  0.72570133108E+03  0.12500000000E+03 0.  0.
</event>
<event>
 5    0  0.5641283E-005  0.2712362E+03  0.7546771E-02  0.1100574E+00
         21   -1    0    0  502  501  0.00000000000E+00  0.00000000000E+00  0.55421969852E+03  0.55421969852E+03  0.00000000000E+00 0.  1.
         21   -1    0    0  501  502 -0.00000000000E+00 -0.00000000000E+00 -0.13274350305E+03  0.13274350305E+03  0.00000000000E+00 0.  1.
         25    1    1    2    0    0  0.11041339352E+03 -0.47995837149E-01  0.19509432793E+03  0.25666693702E+03  0.12500000000E+03 0.  0.
         25    1    1    2    0    0 -0.13465552838E+03  0.45952984086E+02  0.22610535752E+03  0.29494477580E+03  0.12500000000E+03 0.  0.
         25    1    1    2    0    0  0.24242134862E+02 -0.45904988249E+02  0.27651001511E+00  0.13535148875E+03  0.12500000000E+03 0.  0.
</event>
<event>
 5    0  0.5641283E-005  0.3628746E+03  0.7546771E-02  0.1057451E+00
         21   -1    0    0  502  501  0.00000000000E+00  0.00000000000E+00  0.22562231880E+03  0.22562231880E+03  0.00000000000E+00 0. -1.
         21   -1    0    0  501  502 -0.00000000000E+00 -0.00000000000E+00 -0.58362130668E+03  0.58362130668E+03  0.00000000000E+00 0. -1.
         25    1    1    2    0    0  0.20145579607E+03  0.73573721556E+02 -0.20548590798E+03  0.32225298859E+03  0.12500000000E+03 0.  0.
         25    1    1    2    0    0 -0.55997865931E+02 -0.16777843713E+03  0.12599474982E+02  0.21695416964E+03  0.12500000000E+03 0.  0.
         25    1    1    2    0    0 -0.14545793014E+03  0.94204715570E+02 -0.16511255488E+03  0.27003646727E+03  0.12500000000E+03 0.  0.
</event>
<event>
 5    0  0.5641283E-005  0.3026283E+03  0.7546771E-02  0.1083934E+00
         21   -1    0    0  502  501  0.00000000000E+00  0.00000000000E+00  0.20191186288E+03  0.20191186288E+03  0.00000000000E+00 0. -1.
         21   -1    0    0  501  502 -0.00000000000E+00 -0.00000000000E+00 -0.45358348313E+03  0.45358348313E+03  0.00000000000E+00 0. -1.
         25    1    1    2    0    0 -0.86182987478E+02 -0.77667599403E+02 -0.25888257038E+02  0.17249627584E+03  0.12500000000E+03 0.  0.
         25    1    1    2    0    0 -0.94490013662E+02 -0.44561573414E+02 -0.14728504496E+03  0.21961780660E+03  0.12500000000E+03 0.  0.
         25    1    1    2    0    0  0.18067300114E+03  0.12222917282E+03 -0.78498318254E+02  0.26338126357E+03  0.12500000000E+03 0.  0.
</event>
<event>
 5    0  0.5641283E-005  0.2626553E+03  0.7546771E-02  0.1105558E+00
         21   -1    0    0  502  501  0.00000000000E+00  0.00000000000E+00  0.89213884469E+03  0.89213884469E+03  0.00000000000E+00 0. -1.
         21   -1    0    0  501  502 -0.00000000000E+00 -0.00000000000E+00 -0.77328552742E+02  0.77328552742E+02  0.00000000000E+00 0. -1.
         25    1    1    2    0    0  0.11788698269E+02 -0.80998431182E+02  0.13350523271E+03  0.20037057274E+03  0.12500000000E+03 0.  0.
         25    1    1    2    0    0 -0.32477667716E+02  0.16726351316E+02  0.58042074447E+03  0.59485108249E+03  0.12500000000E+03 0.  0.
         25    1    1    2    0    0  0.20688969446E+02  0.64272079866E+02  0.10088431476E+03  0.17424574219E+03  0.12500000000E+03 0.  0.
</event>
<event>
 5    0  0.7833328E-005  0.7638820E+03  0.7546771E-02  0.9613820E-01
         21   -1    0    0  502  501  0.00000000000E+00  0.00000000000E+00  0.10580574892E+04  0.10580574892E+04  0.00000000000E+00 0. -1.
         21   -1    0    0  501  502 -0.00000000000E+00 -0.00000000000E+00 -0.55149721321E+03  0.55149721321E+03  0.00000000000E+00 0. -1.
         25    1    1    2    0    0 -0.13667602755E+03 -0.25670482716E+03 -0.18706897333E+03  0.36769213423E+03  0.12500000000E+03 0.  0.
         25    1    1    2    0    0 -0.39110490286E+02 -0.30864856527E+03  0.50846754796E+03  0.60906306293E+03  0.12500000000E+03 0.  0.
         25    1    1    2    0    0  0.17578651784E+03  0.56535339243E+03  0.18516170135E+03  0.63279950524E+03  0.12500000000E+03 0.  0.
</event>
<event>
 5    0  0.5641283E-005  0.2348784E+03  0.7546771E-02  0.1123252E+00
         21   -1    0    0  502  501  0.00000000000E+00  0.00000000000E+00  0.13720406620E+03  0.13720406620E+03  0.00000000000E+00 0. -1.
         21   -1    0    0  501  502 -0.00000000000E+00 -0.00000000000E+00 -0.40208613094E+03  0.40208613094E+03  0.00000000000E+00 0. -1.
         25    1    1    2    0    0 -0.91146108276E+02 -0.44325853215E+02 -0.15296856449E+02  0.16165205886E+03  0.12500000000E+03 0.  0.
         25    1    1    2    0    0  0.28849624433E+02  0.55217009504E+02 -0.94394519820E+02  0.16857207462E+03  0.12500000000E+03 0.  0.
         25    1    1    2    0    0  0.62296483844E+02 -0.10891156289E+02 -0.15519068847E+03  0.20906606366E+03  0.12500000000E+03 0.  0.
</event>
<event>
 5    0  0.5641283E-005  0.3436831E+03  0.7546771E-02  0.1065238E+00
         21   -1    0    0  502  501  0.00000000000E+00  0.00000000000E+00  0.13819194570E+03  0.13819194570E+03  0.00000000000E+00 0. -1.
         21   -1    0    0  501  502 -0.00000000000E+00 -0.00000000000E+00 -0.85473924277E+03  0.85473924277E+03  0.00000000000E+00 0. -1.
         25    1    1    2    0    0 -0.50784866208E+02 -0.18494945206E+03 -0.12826035336E+03  0.26241402534E+03  0.12500000000E+03 0.  0.
         25    1    1    2    0    0  0.16588841674E+03  0.50996713297E+02 -0.33425987829E+03  0.39683031362E+03  0.12500000000E+03 0.  0.
         25    1    1    2    0    0 -0.11510355053E+03  0.13395273876E+03 -0.25402706543E+03  0.33368684951E+03  0.12500000000E+03 0.  0.
</event>
<event>
 5    0  0.5641283E-005  0.3520050E+03  0.7546771E-02  0.1061795E+00
         21   -1    0    0  502  501  0.00000000000E+00  0.00000000000E+00  0.17304018886E+04  0.17304018886E+04  0.00000000000E+00 0. -1.
         21   -1    0    0  501  502 -0.00000000000E+00 -0.00000000000E+00 -0.71606195335E+02  0.71606195335E+02  0.00000000000E+00 0. -1.
         25    1    1    2    0    0  0.11427794760E+03 -0.13472992707E+03  0.83099473600E+03  0.85871348762E+03  0.12500000000E+03 0.  0.
         25    1    1    2    0    0 -0.11264266031E+03  0.23700936383E+03  0.54088394860E+03  0.61403766441E+03  0.12500000000E+03 0.  0.
         25    1    1    2    0    0 -0.16352872990E+01 -0.10227943677E+03  0.28691700872E+03  0.32925693196E+03  0.12500000000E+03 0.  0.
</event>
<event>
 5    0  0.5641283E-005  0.4427471E+03  0.7546771E-02  0.1029907E+00
         21   -1    0    0  502  501  0.00000000000E+00  0.00000000000E+00  0.13282518629E+04  0.13282518629E+04  0.00000000000E+00 0.  1.
         21   -1    0    0  501  502 -0.00000000000E+00 -0.00000000000E+00 -0.14758119456E+03  0.14758119456E+03  0.00000000000E+00 0.  1.
         25    1    1    2    0    0 -0.29770224013E+03 -0.13348072261E+03  0.69295141683E+03  0.77604793226E+03  0.12500000000E+03 0.  0.
         25    1    1    2    0    0  0.13986833663E+03 -0.68205661646E+02  0.29340701233E+03  0.35486312680E+03  0.12500000000E+03 0.  0.
         25    1    1    2    0    0  0.15783390350E+03  0.20168638426E+03  0.19431223917E+03  0.34492199840E+03  0.12500000000E+03 0.  0.
</event>
<event>
 5    0  0.5641283E-005  0.2786030E+03  0.7546771E-02  0.1096454E+00
         21   -1    0    0  502  501  0.00000000000E+00  0.00000000000E+00  0.12300459303E+04  0.12300459303E+04  0.00000000000E+00 0. -1.
         21   -1    0    0  501  502 -0.00000000000E+00 -0.00000000000E+00 -0.63103043300E+02  0.63103043300E+02  0.00000000000E+00 0. -1.
         25    1    1    2    0    0  0.61961547981E+02 -0.18742353972E+02  0.19708844114E+03  0.24219695063E+03  0.12500000000E+03 0.  0.
         25    1    1    2    0    0 -0.18868835545E+03  0.11840524094E+02  0.55056166695E+03  0.59538780858E+03  0.12500000000E+03 0.  0.
         25    1    1    2    0    0  0.12672680747E+03  0.69018298787E+01  0.41929277887E+03  0.45556421435E+03  0.12500000000E+03 0.  0.
</event>
<event>
 5    0  0.5641283E-005  0.2983179E+03  0.7546771E-02  0.1086085E+00
         21   -1    0    0  502  501  0.00000000000E+00  0.00000000000E+00  0.96926659567E+03  0.96926659567E+03  0.00000000000E+00 0. -1.
         21   -1    0    0  501  502 -0.00000000000E+00 -0.00000000000E+00 -0.91815372712E+02  0.91815372712E+02  0.00000000000E+00 0. -1.
         25    1    1    2    0    0  0.50028160569E+02  0.44797059858E+02  0.36144422316E+03  0.38829952340E+03  0.12500000000E+03 0.  0.
         25    1    1    2    0    0 -0.99297171715E+02 -0.17976837035E+03  0.30869069940E+03  0.39126914418E+03  0.12500000000E+03 0.  0.
         25    1    1    2    0    0  0.49269011147E+02  0.13497131049E+03  0.20731630040E+03  0.28151330080E+03  0.12500000000E+03 0.  0.
</event>
<event>
 5    0  0.5641283E-005  0.3326860E+03  0.7546771E-02  0.1069955E+00
         21   -1    0    0  502  501  0.00000000000E+00  0.00000000000E+00  0.40275192343E+03  0.40275192343E+03  0.00000000000E+00 0. -1.
         21   -1    0    0  501  502 -0.00000000000E+00 -0.00000000000E+00 -0.27480926109E+03  0.27480926109E+03  0.00000000000E+00 0. -1.
         25    1    1    2    0    0 -0.14699145554E+03 -0.17055132156E+03  0.81438511829E+01  0.25765396096E+03  0.12500000000E+03 0.  0.
         25    1    1    2    0    0  0.92254801955E+02  0.55807556585E+02  0.16767794009E+03  0.23530049607E+03  0.12500000000E+03 0.  0.
         25    1    1    2    0    0  0.54736653588E+02  0.11474376498E+03 -0.47879128942E+02  0.18460672749E+03  0.12500000000E+03 0.  0.
</event>
<event>
 5    0  0.5641283E-005  0.2228569E+03  0.7546771E-02  0.1131771E+00
         21   -1    0    0  502  501  0.00000000000E+00  0.00000000000E+00  0.20914589635E+03  0.20914589635E+03  0.00000000000E+00 0. -1.
         21   -1    0    0  501  502 -0.00000000000E+00 -0.00000000000E+00 -0.23746683223E+03  0.23746683223E+03  0.00000000000E+00 0. -1.
         25    1    1    2    0    0  0.20915239170E+02 -0.87524072311E+02  0.31474482559E+01  0.15405459063E+03  0.12500000000E+03 0.  0.
         25    1    1    2    0    0 -0.60767259200E+02  0.58379007748E+02 -0.45405368304E+02  0.15744019756E+03  0.12500000000E+03 0.  0.
         25    1    1    2    0    0  0.39852020030E+02  0.29145064563E+02  0.13936984166E+02  0.13511794039E+03  0.12500000000E+03 0.  0.
</event>
<event>
 5    0  0.5641283E-005  0.3618031E+03  0.7546771E-02  0.1057872E+00
         21   -1    0    0  502  501  0.00000000000E+00  0.00000000000E+00  0.22824847184E+03  0.22824847184E+03  0.00000000000E+00 0. -1.
         21   -1    0    0  501  502 -0.00000000000E+00 -0.00000000000E+00 -0.57350422744E+03  0.57350422744E+03  0.00000000000E+00 0. -1.
         25    1    1    2    0    0  0.11419279074E+03  0.60177937619E+02 -0.14838297615E+03  0.23303194040E+03  0.12500000000E+03 0.  0.
         25    1    1    2    0    0 -0.87413688218E+02 -0.74728275872E+02  0.13229837669E+03  0.21529823171E+03  0.12500000000E+03 0.  0.
         25    1    1    2    0    0 -0.26779102524E+02  0.14550338253E+02 -0.32917115614E+03  0.35342252717E+03  0.12500000000E+03 0.  0.
</event>
<event>
 5    0  0.5641283E-005  0.3642031E+03  0.7546771E-02  0.1056932E+00
         21   -1    0    0  502  501  0.00000000000E+00  0.00000000000E+00  0.12929309473E+04  0.12929309473E+04  0.00000000000E+00 0. -1.
         21   -1    0    0  501  502 -0.00000000000E+00 -0.00000000000E+00 -0.10259164602E+03  0.10259164602E+03  0.00000000000E+00 0. -1.
         25    1    1    2    0    0 -0.15187214083E+03 -0.10262483767E+03  0.71175865646E+03  0.74553496868E+03  0.12500000000E+03 0.  0.
         25    1    1    2    0    0  0.11833694184E+03 -0.92383387272E+02  0.28879610983E+03  0.34866389991E+03  0.12500000000E+03 0.  0.
         25    1    1    2    0    0  0.33535198991E+02  0.19500822494E+03  0.18978453498E+03  0.30132372473E+03  0.12500000000E+03 0.  0.
</event>
<event>
 5    0  0.5641283E-005  0.2495457E+03  0.7546771E-02  0.1113592E+00
         21   -1    0    0  502  501  0.00000000000E+00  0.00000000000E+00  0.10679935210E+04  0.10679935210E+04  0.00000000000E+00 0.  1.
         21   -1    0    0  501  502 -0.00000000000E+00 -0.00000000000E+00 -0.58308473991E+02  0.58308473991E+02  0.00000000000E+00 0.  1.
         25    1    1    2    0    0 -0.87429294091E+01 -0.50131245141E+02  0.19358631980E+03  0.23598780427E+03  0.12500000000E+03 0.  0.
         25    1    1    2    0    0  0.21493407089E+02  0.13710637769E+03  0.31272099029E+03  0.36425203242E+03  0.12500000000E+03 0.  0.
         25    1    1    2    0    0 -0.12750477680E+02 -0.86975132551E+02  0.50337773688E+03  0.52606215826E+03  0.12500000000E+03 0.  0.
</event>
